<?xml version="1.0"?>
<VTKFile type="PolyData" version="0.1" byte_order="LittleEndian">
   <PolyData>
 <Piece NumberOfPoints="2304" NumberOfLines="193" NumberOfVerts="0" NumberOfStrips="0" NumberOfPolys="0">
    <Points>
       <DataArray type="Float32" Name="Position" NumberOfComponents="3" format="ascii">
2.112	-1.723	-1.512
2.309	-1.583	-1.686
2.471	-1.421	-1.787
2.624	-1.268	-1.871
2.904	-0.981	-1.942
3.065	-0.704	-2.032
3.177	-0.522	-2.179
3.329	-0.192	-2.312
3.504	0.108	-2.373
3.714	0.352	-2.459
3.909	0.583	-2.539
4.063	0.912	-2.764
4.116	1.029	-3.140
4.238	0.977	-3.586
4.365	0.993	-3.933
2.358	-2.000	-1.708
2.319	-1.615	-1.682
2.386	-1.384	-1.721
2.522	-0.988	-1.828
2.656	-0.659	-1.864
2.825	-0.437	-1.914
3.056	-0.144	-2.056
3.222	0.090	-2.260
3.356	0.238	-2.530
3.470	0.380	-2.788
3.518	0.540	-3.037
3.610	0.590	-3.436
3.754	0.584	-3.784
3.947	0.472	-4.044
4.003	0.441	-4.132
2.726	-2.100	-1.800
2.754	-2.179	-1.333
2.873	-2.273	-0.902
2.843	-2.318	-0.528
2.834	-2.285	-0.223
2.857	-2.261	0.008
2.810	-2.346	0.358
2.707	-2.524	0.636
2.624	-2.647	0.931
2.413	-2.821	1.296
2.051	-2.923	1.490
1.693	-2.913	1.615
1.407	-2.880	1.594
3.143	-2.200	-1.750
3.102	-2.505	-1.784
3.126	-2.749	-1.832
3.183	-3.153	-2.006
3.294	-3.465	-2.168
3.367	-3.729	-2.277
3.356	-4.078	-2.487
3.296	-4.385	-2.649
3.178	-4.643	-2.829
3.061	-4.914	-2.948
3.024	-5.210	-2.947
2.958	-5.616	-2.858
2.837	-5.954	-2.889
2.800	-6.001	-2.896
3.426	-2.552	-1.750
3.429	-2.544	-2.149
3.454	-2.459	-2.375
3.499	-2.386	-2.797
3.574	-2.323	-3.139
3.598	-2.257	-3.621
3.732	-2.280	-3.955
3.977	-2.464	-4.360
4.145	-2.628	-4.571
4.329	-2.833	-4.915
4.446	-2.876	-5.296
4.453	-2.873	-5.360
3.750	-2.802	-1.799
3.401	-2.797	-1.842
3.178	-2.750	-1.938
2.973	-2.758	-2.036
2.582	-2.733	-2.448
2.443	-2.679	-2.695
2.344	-2.608	-3.077
2.305	-2.571	-3.426
2.338	-2.449	-3.738
2.575	-2.272	-4.102
2.930	-2.170	-4.325
2.980	-2.136	-4.357
3.618	-2.900	-1.982
3.341	-2.945	-1.718
3.233	-2.907	-1.503
3.099	-2.851	-1.095
3.031	-2.953	-0.759
2.914	-2.994	-0.504
2.926	-2.981	-0.114
3.019	-3.062	0.217
3.042	-3.241	0.494
3.148	-3.488	0.653
3.206	-3.757	0.781
3.458	-2.700	-2.292
3.750	-2.692	-2.588
3.897	-2.647	-2.774
4.118	-2.811	-3.315
4.231	-2.875	-3.603
4.370	-2.869	-3.802
4.592	-2.763	-4.076
4.734	-2.637	-4.370
4.747	-2.579	-4.690
4.738	-2.593	-4.769
3.175	-2.700	-2.675
3.198	-3.220	-2.708
3.295	-3.652	-2.637
3.281	-4.022	-2.596
3.231	-4.318	-2.585
3.153	-4.514	-2.505
3.009	-4.847	-2.491
2.968	-4.925	-2.477
2.858	-2.800	-2.992
2.798	-2.288	-3.011
2.681	-1.858	-3.072
0.200	-0.200	0.150
0.450	-0.300	0.050
0.600	-0.200	-0.000
0.650	-0.500	-0.250
0.850	-0.700	-0.450
0.950	-0.900	-0.650
1.150	-1.000	-0.950
1.300	-1.300	-1.100
1.650	-1.500	-1.150
1.950	-1.600	-1.300
2.150	-1.800	-1.550
2.350	-2.000	-1.650
2.600	-2.100	-1.800
2.950	-2.200	-1.800
3.250	-2.300	-1.750
3.450	-2.600	-1.750
3.750	-2.800	-1.800
3.650	-2.900	-1.950
3.500	-2.700	-2.250
3.250	-2.700	-2.600
3.000	-2.800	-2.850
2.800	-2.700	-3.050
2.550	-2.800	-3.250
2.300	-3.100	-3.350
2.000	-3.200	-3.250
1.700	-3.300	-3.100
1.400	-3.300	-2.850
1.069	-3.214	-2.551
0.903	-3.270	-2.395
0.645	-3.456	-2.112
0.448	-3.608	-1.837
0.364	-3.633	-1.528
0.380	-3.656	-1.133
0.419	-3.742	-0.758
0.627	-3.846	-0.613
2.265	-1.700	-0.815
1.927	-1.766	-1.078
1.758	-1.732	-1.246
1.262	-1.842	-1.562
0.958	-1.911	-1.600
0.725	-1.943	-1.557
0.378	-1.989	-1.430
0.046	-1.953	-1.338
-0.276	-1.905	-1.301
-0.552	-1.917	-1.154
-0.901	-1.907	-0.888
-1.284	-1.834	-0.828
-1.718	-1.722	-0.698
-2.039	-1.693	-0.511
2.579	-1.500	-0.900
2.566	-1.997	-0.986
2.471	-2.428	-1.083
2.416	-2.801	-1.061
2.337	-3.092	-1.089
2.155	-3.454	-1.093
1.932	-3.700	-1.225
1.613	-4.064	-1.301
1.480	-4.323	-1.403
1.542	-4.725	-1.539
1.739	-5.012	-1.717
1.984	-5.177	-1.903
2.164	-5.302	-2.069
2.843	-1.800	-0.707
2.617	-1.810	-0.472
2.468	-1.763	-0.279
2.285	-1.549	0.060
2.120	-1.518	0.385
2.021	-1.449	0.651
1.872	-1.412	1.027
1.522	-1.376	1.401
1.298	-1.422	1.630
1.028	-1.525	1.972
0.824	-1.430	2.328
0.558	-1.257	2.517
0.350	-1.112	2.658
3.122	-2.145	-0.678
3.360	-2.199	-0.994
3.528	-2.172	-1.168
3.836	-1.998	-1.412
4.080	-1.857	-1.630
4.209	-1.689	-1.815
4.443	-1.647	-2.129
4.589	-1.769	-2.429
4.771	-1.790	-2.705
4.857	-1.736	-3.006
4.865	-1.735	-3.308
5.029	-1.689	-3.678
5.181	-1.515	-3.971
5.183	-1.484	-4.022
3.449	-2.399	-0.600
3.379	-2.432	-0.135
3.435	-2.378	0.315
3.559	-2.418	0.674
3.722	-2.482	0.928
3.854	-2.513	1.118
3.893	-2.464	1.481
3.766	-2.466	1.804
3.695	-2.385	2.112
3.737	-2.238	2.384
3.751	-1.901	2.657
3.753	-1.606	2.917
3.811	-2.400	-0.861
3.512	-2.378	-1.114
3.283	-2.391	-1.195
2.893	-2.457	-1.347
2.558	-2.555	-1.421
2.286	-2.631	-1.431
1.899	-2.721	-1.373
1.585	-2.837	-1.285
1.300	-2.928	-1.136
0.997	-3.050	-0.797
0.746	-3.168	-0.464
0.714	-3.178	-0.404
4.050	-2.556	-0.822
4.403	-2.549	-0.847
4.639	-2.510	-0.909
5.037	-2.434	-1.070
5.391	-2.371	-1.116
5.644	-2.300	-1.236
5.921	-2.248	-1.525
6.189	-2.163	-1.744
6.389	-1.987	-1.941
6.619	-1.814	-2.070
6.837	-1.658	-2.212
4.100	-3.004	-0.648
4.086	-3.166	-0.876
4.028	-3.282	-1.092
3.952	-3.287	-1.312
3.781	-3.364	-1.677
3.594	-3.420	-1.950
3.441	-3.483	-2.153
3.237	-3.604	-2.447
3.103	-3.839	-2.668
2.996	-4.069	-2.881
2.976	-4.116	-2.944
4.150	-3.249	-0.374
3.717	-3.298	-0.403
3.284	-3.445	-0.336
2.970	-3.648	-0.236
2.709	-3.812	-0.177
2.550	-3.970	-0.095
2.291	-4.204	0.038
4.150	-3.400	-0.027
3.991	-3.418	-0.036
0.050	-0.200	0.050
-0.050	-0.500	-0.050
0.050	-0.900	-0.150
0.200	-1.100	-0.250
0.300	-1.300	-0.150
0.650	-1.400	-0.250
1.050	-1.400	-0.350
1.350	-1.500	-0.550
1.700	-1.500	-0.650
2.000	-1.600	-0.700
2.300	-1.700	-0.850
2.550	-1.500	-0.900
2.800	-1.800	-0.750
3.000	-2.000	-0.700
3.200	-2.300	-0.600
3.550	-2.400	-0.600
3.800	-2.400	-0.850
4.050	-2.500	-0.900
4.050	-2.800	-0.750
4.100	-3.100	-0.600
4.150	-3.200	-0.350
4.150	-3.400	-0.100
4.100	-3.400	0.350
4.100	-3.600	0.600
4.050	-3.700	0.900
3.950	-3.900	1.150
3.850	-4.000	1.450
3.700	-4.100	1.750
3.542	-4.167	1.963
3.244	-4.218	2.265
3.056	-4.391	2.537
2.914	-4.521	2.798
2.722	-4.736	3.070
2.411	-4.898	3.269
2.100	-5.007	3.343
-1.868	-0.600	-2.868
-1.846	-0.945	-2.910
-1.877	-1.190	-2.910
-1.957	-1.607	-2.802
-2.057	-1.944	-2.712
-2.105	-2.229	-2.712
-2.170	-2.619	-2.784
-2.075	-2.952	-2.842
-2.098	-3.279	-2.907
-2.079	-3.581	-2.989
-1.964	-3.842	-3.076
-2.002	-0.700	-3.252
-1.983	-1.188	-3.262
-1.975	-1.630	-3.367
-1.887	-1.944	-3.562
-1.943	-2.172	-3.757
-2.005	-2.377	-3.842
-2.029	-2.721	-3.975
-2.118	-3.046	-4.063
-2.238	-3.318	-4.199
-1.926	-0.848	-3.574
-2.139	-0.811	-3.806
-2.274	-0.758	-4.009
-2.366	-0.734	-4.219
-2.488	-0.562	-4.757
-2.499	-0.562	-5.051
-2.639	-0.634	-5.426
-2.666	-0.649	-5.512
0.000	-0.200	0.000
0.100	-0.300	-0.300
-0.100	0.000	-0.400
-0.050	0.200	-0.600
-0.150	0.100	-0.900
-0.350	0.000	-1.200
-0.500	0.000	-1.550
-0.800	0.000	-1.800
-1.100	-0.100	-2.050
-1.300	-0.200	-2.250
-1.450	-0.200	-2.600
-1.650	-0.400	-2.700
-1.850	-0.600	-2.850
-1.950	-0.700	-3.150
-2.000	-0.800	-3.550
-1.850	-1.100	-3.700
-1.600	-1.400	-3.650
-1.450	-1.700	-3.850
-1.150	-1.900	-3.950
-0.900	-2.100	-3.800
-0.900	-2.100	-3.400
-0.900	-2.300	-3.150
-0.795	-2.317	-2.870
-0.743	-2.196	-2.471
-0.640	-2.036	-2.160
-0.501	-2.030	-1.873
-0.289	-1.934	-1.554
-0.045	-1.792	-1.280
0.085	-1.794	-0.977
-2.152	-0.700	1.952
-1.830	-0.726	2.257
-1.568	-0.771	2.633
-1.389	-0.849	2.966
-1.194	-0.873	3.209
-1.110	-0.899	3.302
0.550	0.600	0.550
0.350	0.400	0.550
0.000	0.300	0.650
-0.350	0.100	0.600
-0.550	-0.100	0.800
-0.950	-0.100	0.850
-1.200	0.000	1.000
-1.300	-0.100	1.250
-1.500	-0.300	1.450
-1.750	-0.500	1.650
-2.000	-0.600	1.850
-2.300	-0.800	2.050
-2.650	-0.800	2.250
-2.950	-0.800	2.450
-3.250	-0.800	2.300
-3.450	-0.700	2.000
-3.550	-0.700	1.700
-3.396	-1.037	1.566
-3.264	-1.228	1.477
-3.139	-1.397	1.367
-2.885	-1.613	1.101
-2.680	-1.807	0.862
-2.541	-2.081	0.767
-2.452	-2.463	0.682
-2.251	-2.783	0.546
-2.152	-2.877	0.471
2.770	-0.900	1.970
2.805	-1.148	1.960
2.860	-1.372	1.856
2.902	-1.758	1.625
2.998	-1.997	1.350
3.133	-2.158	1.131
3.240	-2.211	0.936
3.423	-2.323	0.644
3.530	-2.499	0.369
3.712	-2.912	0.207
3.855	-3.156	0.095
4.100	-3.474	-0.022
4.349	-3.724	-0.162
4.503	-4.014	-0.261
4.603	-4.363	-0.484
4.744	-4.687	-0.608
3.139	-0.978	2.189
3.427	-0.702	2.516
3.632	-0.476	2.847
3.778	-0.293	3.140
3.827	-0.114	3.378
3.881	0.060	3.513
4.048	0.218	3.791
4.139	0.348	4.099
4.208	0.518	4.372
4.275	0.708	4.612
4.398	0.891	4.966
4.492	0.939	5.345
4.683	0.954	5.643
4.873	0.800	5.997
5.056	0.709	6.247
3.900	-0.700	-1.462
3.821	-0.291	-1.485
3.802	-0.064	-1.563
3.980	0.306	-1.681
4.041	0.626	-1.816
4.033	0.863	-1.960
3.957	1.032	-2.067
3.298	-1.296	2.352
3.505	-1.315	2.533
3.727	-1.378	2.633
4.072	-1.545	2.866
4.348	-1.619	3.106
4.610	-1.661	3.244
4.820	-1.730	3.288
5.158	-1.831	3.377
5.491	-1.828	3.338
5.810	-1.899	3.293
6.216	-2.069	3.192
6.488	-2.337	3.017
6.639	-2.632	2.839
6.533	-3.016	2.637
6.392	-3.326	2.497
3.498	-1.600	2.102
3.279	-1.610	1.915
3.110	-1.708	1.757
2.958	-1.861	1.670
2.757	-2.141	1.449
2.707	-2.460	1.363
2.631	-2.682	1.249
2.550	-3.035	1.115
2.576	-3.378	1.043
2.683	-3.687	0.990
2.733	-3.977	1.080
2.870	-4.304	1.333
2.969	-4.452	1.687
3.149	-4.476	2.097
3.210	-4.564	2.450
3.680	-1.341	1.820
3.860	-1.512	1.651
4.025	-1.669	1.548
4.404	-1.887	1.468
4.673	-2.130	1.393
4.943	-2.240	1.343
5.190	-2.502	1.155
5.363	-2.760	0.983
5.799	-2.951	0.948
6.110	-2.937	0.950
6.537	-2.877	0.968
6.862	-2.705	0.865
7.069	-2.569	0.611
7.221	-2.429	0.431
3.823	-1.154	1.477
3.997	-1.352	1.307
4.167	-1.521	1.240
4.426	-1.857	1.113
4.602	-2.115	0.919
4.762	-2.284	0.740
4.781	-2.612	0.500
4.804	-2.945	0.389
4.849	-3.271	0.334
4.894	-3.584	0.334
4.938	-3.862	0.435
4.846	-4.272	0.414
4.756	-4.637	0.466
4.676	-4.962	0.402
3.927	-0.800	1.223
3.923	-0.476	1.251
3.901	-0.228	1.261
3.916	-0.028	1.373
3.950	0.529	1.516
3.866	0.760	1.674
3.802	1.136	1.806
3.739	1.428	1.997
3.683	1.687	2.190
3.719	2.043	2.496
3.751	2.363	2.787
3.818	2.680	2.983
3.977	2.892	3.118
4.050	-0.600	0.898
[...]
         <PointData>
           <DataArray type="Float32" Name="plantID" NumberOfComponents="1" format="ascii">
 1.500e+01 1.500e+01 1.500e+01 1.500e+01 1.500e+01 1.500e+01 1.500e+01 1.500e+01 1.500e+01 1.500e+01 1.500e+01 1.500e+01 1.500e+01 1.500e+01 1.500e+01 1.500e+01 1.500e+01 1.500e+01 1.500e+01 1.500e+01 1.500e+01 1.500e+01 1.500e+01 1.500e+01 1.500e+01 1.500e+01 1.500e+01 1.500e+01 1.500e+01 1.500e+01 1.500e+01 1.500e+01 1.500e+01 1.500e+01 1.500e+01 1.500e+01 1.500e+01 1.500e+01 1.500e+01 1.500e+01 1.500e+01 1.500e+01 1.500e+01 1.500e+01 1.500e+01 1.500e+01 1.500e+01 1.500e+01 1.500e+01 1.500e+01 1.500e+01 1.500e+01 1.500e+01 1.500e+01 1.500e+01 1.500e+01 1.500e+01 1.500e+01 1.500e+01 1.500e+01 1.500e+01 1.500e+01 1.500e+01 1.500e+01 1.500e+01 1.500e+01 1.500e+01 1.500e+01 1.500e+01 1.500e+01 1.500e+01 1.500e+01 1.500e+01 1.500e+01 1.500e+01 1.500e+01 1.500e+01 1.500e+01 1.500e+01 1.500e+01 1.500e+01 1.500e+01 1.500e+01 1.500e+01 1.500e+01 1.500e+01 1.500e+01 1.500e+01 1.500e+01 1.500e+01 1.500e+01 1.500e+01 1.500e+01 1.500e+01 1.500e+01 1.500e+01 1.500e+01 1.500e+01 1.500e+01 1.500e+01 1.500e+01 1.500e+01 1.500e+01 1.500e+01 1.500e+01 1.500e+01 1.500e+01 1.500e+01 1.500e+01 1.500e+01 1.500e+01 1.500e+01 1.500e+01 1.500e+01 1.500e+01 1.500e+01 1.500e+01 1.500e+01 1.500e+01 1.500e+01 1.500e+01 1.500e+01 1.500e+01 1.500e+01 1.500e+01 1.500e+01 1.500e+01 1.500e+01 1.500e+01 1.500e+01 1.500e+01 1.500e+01 1.500e+01 1.500e+01 1.500e+01 1.500e+01 1.500e+01 1.500e+01 1.500e+01 1.500e+01 1.500e+01 1.500e+01 1.500e+01 1.500e+01 1.500e+01 1.500e+01 1.500e+01 1.500e+01 1.500e+01 1.500e+01 1.500e+01 1.500e+01 1.500e+01 1.500e+01 1.500e+01 1.500e+01 1.500e+01 1.500e+01 1.500e+01 1.500e+01 1.500e+01 1.500e+01 1.500e+01 1.500e+01 1.500e+01 1.500e+01 1.500e+01 1.500e+01 1.500e+01 1.500e+01 1.500e+01 1.500e+01 1.500e+01 1.500e+01 1.500e+01 1.500e+01 1.500e+01 1.500e+01 1.500e+01 1.500e+01 1.500e+01 1.500e+01 1.500e+01 1.500e+01 1.500e+01 1.500e+01 1.500e+01 1.500e+01 1.500e+01 1.500e+01 1.500e+01 1.500e+01 1.500e+01 1.500e+01 1.500e+01 1.500e+01 1.500e+01 1.500e+01 1.500e+01 1.500e+01 1.500e+01 1.500e+01 1.500e+01 1.500e+01 1.500e+01 1.500e+01 1.500e+01 1.500e+01 1.500e+01 1.500e+01 1.500e+01 1.500e+01 1.500e+01 1.500e+01 1.500e+01 1.500e+01 1.500e+01 1.500e+01 1.500e+01 1.500e+01 1.500e+01 1.500e+01 1.500e+01 1.500e+01 1.500e+01 1.500e+01 1.500e+01 1.500e+01 1.500e+01 1.500e+01 1.500e+01 1.500e+01 1.500e+01 1.500e+01 1.500e+01 1.500e+01 1.500e+01 1.500e+01 1.500e+01 1.500e+01 1.500e+01 1.500e+01 1.500e+01 1.500e+01 1.500e+01 1.500e+01 1.500e+01 1.500e+01 1.500e+01 1.500e+01 1.500e+01 1.500e+01 1.500e+01 1.500e+01 1.500e+01 1.500e+01 1.500e+01 1.500e+01 1.500e+01 1.500e+01 1.500e+01 1.500e+01 1.500e+01 1.500e+01 1.500e+01 1.500e+01 1.500e+01 1.500e+01 1.500e+01 1.500e+01 1.500e+01 1.500e+01 1.500e+01 1.500e+01 1.500e+01 1.500e+01 1.500e+01 1.500e+01 1.500e+01 1.500e+01 1.500e+01 1.500e+01 1.500e+01 1.500e+01 1.500e+01 1.500e+01 1.500e+01 1.500e+01 1.500e+01 1.500e+01 1.500e+01 1.500e+01 1.500e+01 1.500e+01 1.500e+01 1.500e+01 1.500e+01 1.500e+01 1.500e+01 1.500e+01 1.500e+01 1.500e+01 1.500e+01 1.500e+01 1.500e+01 1.500e+01 1.500e+01 1.500e+01 1.500e+01 1.500e+01 1.500e+01 1.500e+01 1.500e+01 1.500e+01 1.500e+01 1.500e+01 1.500e+01 1.500e+01 1.500e+01 1.500e+01 1.500e+01 1.500e+01 1.500e+01 1.500e+01 1.500e+01 1.500e+01 1.500e+01 1.500e+01 1.500e+01 1.500e+01 1.500e+01 1.500e+01 1.500e+01 1.500e+01 1.500e+01 1.500e+01 1.500e+01 1.500e+01 1.500e+01 1.500e+01 1.500e+01 1.500e+01 1.500e+01 1.500e+01 1.500e+01 1.500e+01 1.500e+01 1.500e+01 1.500e+01 1.500e+01 1.500e+01 1.500e+01 1.500e+01 1.500e+01 1.500e+01 1.500e+01 1.500e+01 1.500e+01 1.500e+01 1.500e+01 1.500e+01 1.500e+01 1.500e+01 1.500e+01 1.500e+01 1.500e+01 1.500e+01 1.500e+01 1.500e+01 1.500e+01 1.500e+01 1.500e+01 1.500e+01 1.500e+01 1.500e+01 1.500e+01 1.500e+01 1.500e+01 1.500e+01 1.500e+01 1.500e+01 1.500e+01 1.500e+01 1.500e+01 1.500e+01 1.500e+01 1.500e+01 1.500e+01 1.500e+01 1.500e+01 1.500e+01 1.500e+01 1.500e+01 1.500e+01 1.500e+01 1.500e+01 1.500e+01 1.500e+01 1.500e+01 1.500e+01 1.500e+01 1.500e+01 1.500e+01 1.500e+01 1.500e+01 1.500e+01 1.500e+01 1.500e+01 1.500e+01 1.500e+01 1.500e+01 1.500e+01 1.500e+01 1.500e+01 1.500e+01 1.500e+01 1.500e+01 1.500e+01 1.500e+01 1.500e+01 1.500e+01 1.500e+01 1.500e+01 1.500e+01 1.500e+01 1.500e+01 1.500e+01 1.500e+01 1.500e+01 1.500e+01 1.500e+01 1.500e+01 1.500e+01 1.500e+01 1.500e+01 1.500e+01 1.500e+01 1.500e+01 1.500e+01 1.500e+01 1.500e+01 1.500e+01 1.500e+01 1.500e+01 1.500e+01 1.500e+01 1.500e+01 1.500e+01 1.500e+01 1.500e+01 1.500e+01 1.500e+01 1.500e+01 1.500e+01 1.500e+01 1.500e+01 1.500e+01 1.500e+01 1.500e+01 1.500e+01 1.500e+01 1.500e+01 1.500e+01 1.500e+01 1.500e+01 1.500e+01 1.500e+01 1.500e+01 1.500e+01 1.500e+01 1.500e+01 1.500e+01 1.500e+01 1.500e+01 1.500e+01 1.500e+01 1.500e+01 1.500e+01 1.500e+01 1.500e+01 1.500e+01 1.500e+01 1.500e+01 1.500e+01 1.500e+01 1.500e+01 1.500e+01 1.500e+01 1.500e+01 1.500e+01 1.500e+01 1.500e+01 1.500e+01 1.500e+01 1.500e+01 1.500e+01 1.500e+01 1.500e+01 1.500e+01 1.500e+01 1.500e+01 1.500e+01 1.500e+01 1.500e+01 1.500e+01 1.500e+01 1.500e+01 1.500e+01 1.500e+01 1.500e+01 1.500e+01 1.500e+01 1.500e+01 1.500e+01 1.500e+01 1.500e+01 1.500e+01 1.500e+01 1.500e+01 1.500e+01 1.500e+01 1.500e+01 1.500e+01 1.500e+01 1.500e+01 1.500e+01 1.500e+01 1.500e+01 1.500e+01 1.500e+01 1.500e+01 1.500e+01 1.500e+01 1.500e+01 1.500e+01 1.500e+01 1.500e+01 1.500e+01 1.500e+01 1.500e+01 1.500e+01 1.500e+01 1.500e+01 1.500e+01 1.500e+01 1.500e+01 1.500e+01 1.500e+01 1.500e+01 1.500e+01 1.500e+01 1.500e+01 1.500e+01 1.500e+01 1.500e+01 1.500e+01 1.500e+01 1.500e+01 1.500e+01 1.500e+01 1.500e+01 1.500e+01 1.500e+01 1.500e+01 1.500e+01 1.500e+01 1.500e+01 1.500e+01 1.500e+01 1.500e+01 1.500e+01 1.500e+01 1.500e+01 1.500e+01 1.500e+01 1.500e+01 1.500e+01 1.500e+01 1.500e+01 1.500e+01 1.500e+01 1.500e+01 1.500e+01 1.500e+01 1.500e+01 1.500e+01 1.500e+01 1.500e+01 1.500e+01 1.500e+01 1.500e+01 1.500e+01 1.500e+01 1.500e+01 1.500e+01 1.500e+01 1.500e+01 1.500e+01 1.500e+01 1.500e+01 1.500e+01 1.500e+01 1.500e+01 1.500e+01 1.500e+01 1.500e+01 1.500e+01 1.500e+01 1.500e+01 1.500e+01 1.500e+01 1.500e+01 1.500e+01 1.500e+01 1.500e+01 1.500e+01 1.500e+01 1.500e+01 1.500e+01 1.500e+01 1.500e+01 1.500e+01 1.500e+01 1.500e+01 1.500e+01 1.500e+01 1.500e+01 1.500e+01 1.500e+01 1.500e+01 1.500e+01 1.500e+01 1.500e+01 1.500e+01 1.500e+01 1.500e+01 1.500e+01 1.500e+01 1.500e+01 1.500e+01 1.500e+01 1.500e+01 1.500e+01 1.500e+01 1.500e+01 1.500e+01 1.500e+01 1.500e+01 1.500e+01 1.500e+01 1.500e+01 1.500e+01 1.500e+01 1.500e+01 1.500e+01 1.500e+01 1.500e+01 1.500e+01 1.500e+01 1.500e+01 1.500e+01 1.500e+01 1.500e+01 1.500e+01 1.500e+01 1.500e+01 1.500e+01 1.500e+01 1.500e+01 1.500e+01 1.500e+01 1.500e+01 1.500e+01 1.500e+01 1.500e+01 1.500e+01 1.500e+01 1.500e+01 1.500e+01 1.500e+01 1.500e+01 1.500e+01 1.500e+01 1.500e+01 1.500e+01 1.500e+01 1.500e+01 1.500e+01 1.500e+01 1.500e+01 1.500e+01 1.500e+01 1.500e+01 1.500e+01 1.500e+01 1.500e+01 1.500e+01 1.500e+01 1.500e+01 1.500e+01 1.500e+01 1.500e+01 1.500e+01 1.500e+01 1.500e+01 1.500e+01 1.500e+01 1.500e+01 1.500e+01 1.500e+01 1.500e+01 1.500e+01 1.500e+01 1.500e+01 1.500e+01 1.500e+01 1.500e+01 1.500e+01 1.500e+01 1.500e+01 1.500e+01 1.500e+01 1.500e+01 1.500e+01 1.500e+01 1.500e+01 1.500e+01 1.500e+01 1.500e+01 1.500e+01 1.500e+01 1.500e+01 1.500e+01 1.500e+01 1.500e+01 1.500e+01 1.500e+01 1.500e+01 1.500e+01 1.500e+01 1.500e+01 1.500e+01 1.500e+01 1.500e+01 1.500e+01 1.500e+01 1.500e+01 1.500e+01 1.500e+01 1.500e+01 1.500e+01 1.500e+01 1.500e+01 1.500e+01 1.500e+01 1.500e+01 1.500e+01 1.500e+01 1.500e+01 1.500e+01 1.500e+01 1.500e+01 1.500e+01 1.500e+01 1.500e+01 1.500e+01 1.500e+01 1.500e+01 1.500e+01 1.500e+01 1.500e+01 1.500e+01 1.500e+01 1.500e+01 1.500e+01 1.500e+01 1.500e+01 1.500e+01 1.500e+01 1.500e+01 1.500e+01 1.500e+01 1.500e+01 1.500e+01 1.500e+01 1.500e+01 1.500e+01 1.500e+01 1.500e+01 1.500e+01 1.500e+01 1.500e+01 1.500e+01 1.500e+01 1.500e+01 1.500e+01 1.500e+01 1.500e+01 1.500e+01 1.500e+01 1.500e+01 1.500e+01 1.500e+01 1.500e+01 1.500e+01 1.500e+01 1.500e+01 1.500e+01 1.500e+01 1.500e+01 1.500e+01 1.500e+01 1.500e+01 1.500e+01 1.500e+01 1.500e+01 1.500e+01 1.500e+01 1.500e+01 1.500e+01 1.500e+01 1.500e+01 1.500e+01 1.500e+01 1.500e+01 1.500e+01 1.500e+01 1.500e+01 1.500e+01 1.500e+01 1.500e+01 1.500e+01 1.500e+01 1.500e+01 1.500e+01 1.500e+01 1.500e+01 1.500e+01 1.500e+01 1.500e+01 1.500e+01 1.500e+01 1.500e+01 1.500e+01 1.500e+01 1.500e+01 1.500e+01 1.500e+01 1.500e+01 1.500e+01 1.500e+01 1.500e+01 1.500e+01 1.500e+01 1.500e+01 1.500e+01 1.500e+01 1.500e+01 1.500e+01 1.500e+01 1.500e+01 1.500e+01 1.500e+01 1.500e+01 1.500e+01 1.500e+01 1.500e+01 1.500e+01 1.500e+01 1.500e+01 1.500e+01 1.500e+01 1.500e+01 1.500e+01 1.500e+01 1.500e+01 1.500e+01 1.500e+01 1.500e+01 1.500e+01 1.500e+01 1.500e+01 1.500e+01 1.500e+01 1.500e+01 1.500e+01 1.500e+01 1.500e+01 1.500e+01 1.500e+01 1.500e+01 1.500e+01 1.500e+01 1.500e+01 1.500e+01 1.500e+01 1.500e+01 1.500e+01 1.500e+01 1.500e+01 1.500e+01 1.500e+01 1.500e+01 1.500e+01 1.500e+01 1.500e+01 1.500e+01 1.500e+01 1.500e+01 1.500e+01 1.500e+01 1.500e+01 1.500e+01 1.500e+01 1.500e+01 1.500e+01 1.500e+01 1.500e+01 1.500e+01 1.500e+01 1.500e+01 1.500e+01 1.500e+01 1.500e+01 1.500e+01 1.500e+01 1.500e+01 1.500e+01 1.500e+01 1.500e+01 1.500e+01 1.500e+01 1.500e+01 1.500e+01 1.500e+01 1.500e+01 1.500e+01 1.500e+01 1.500e+01 1.500e+01 1.500e+01 1.500e+01 1.500e+01 1.500e+01 1.500e+01 1.500e+01 1.500e+01 1.500e+01 1.500e+01 1.500e+01 1.500e+01 1.500e+01 1.500e+01 1.500e+01 1.500e+01 1.500e+01 1.500e+01 1.500e+01 1.500e+01 1.500e+01 1.500e+01 1.500e+01 1.500e+01 1.500e+01 1.500e+01 1.500e+01 1.500e+01 1.500e+01 1.500e+01 1.500e+01 1.500e+01 1.500e+01 1.500e+01 1.500e+01 1.500e+01 1.500e+01 1.500e+01 1.500e+01 1.500e+01 1.500e+01 1.500e+01 1.500e+01 1.500e+01 1.500e+01 1.500e+01 1.500e+01 1.500e+01 1.500e+01 1.500e+01 1.500e+01 1.500e+01 1.500e+01 1.500e+01 1.500e+01 1.500e+01 1.500e+01 1.500e+01 1.500e+01 1.500e+01 1.500e+01 1.500e+01 1.500e+01 1.500e+01 1.500e+01 1.500e+01 1.500e+01 1.500e+01 1.500e+01 1.500e+01 1.500e+01 1.500e+01 1.500e+01 1.500e+01 1.500e+01 1.500e+01 1.500e+01 1.500e+01 1.500e+01 1.500e+01 1.500e+01 1.500e+01 1.500e+01 1.500e+01 1.500e+01 1.500e+01 1.500e+01 1.500e+01 1.500e+01 1.500e+01 1.500e+01 1.500e+01 1.500e+01 1.500e+01 1.500e+01 1.500e+01 1.500e+01 1.500e+01 1.500e+01 1.500e+01 1.500e+01 1.500e+01 1.500e+01 1.500e+01 1.500e+01 1.500e+01 1.500e+01 1.500e+01 1.500e+01 1.500e+01 1.500e+01 1.500e+01 1.500e+01 1.500e+01 1.500e+01 1.500e+01 1.500e+01 1.500e+01 1.500e+01 1.500e+01 1.500e+01 1.500e+01 1.500e+01 1.500e+01 1.500e+01 1.500e+01 1.500e+01 1.500e+01 1.500e+01 1.500e+01 1.500e+01 1.500e+01 1.500e+01 1.500e+01 1.500e+01 1.500e+01 1.500e+01 1.500e+01 1.500e+01 1.500e+01 1.500e+01 1.500e+01 1.500e+01 1.500e+01 1.500e+01 1.500e+01 1.500e+01 1.500e+01 1.500e+01 1.500e+01 1.500e+01 1.500e+01 1.500e+01 1.500e+01 1.500e+01 1.500e+01 1.500e+01 1.500e+01 1.500e+01 1.500e+01 1.500e+01 1.500e+01 1.500e+01 1.500e+01 1.500e+01 1.500e+01 1.500e+01 1.500e+01 1.500e+01 1.500e+01 1.500e+01 1.500e+01 1.500e+01 1.500e+01 1.500e+01 1.500e+01 1.500e+01 1.500e+01 1.500e+01 1.500e+01 1.500e+01 1.500e+01 1.500e+01 1.500e+01 1.500e+01 1.500e+01 1.500e+01 1.500e+01 1.500e+01 1.500e+01 1.500e+01 1.500e+01 1.500e+01 1.500e+01 1.500e+01 1.500e+01 1.500e+01 1.500e+01 1.500e+01 1.500e+01 1.500e+01 1.500e+01 1.500e+01 1.500e+01 1.500e+01 1.500e+01 1.500e+01 1.500e+01 1.500e+01 1.500e+01 1.500e+01 1.500e+01 1.500e+01 1.500e+01 1.500e+01 1.500e+01 1.500e+01 1.500e+01 1.500e+01 1.500e+01 1.500e+01 1.500e+01 1.500e+01 1.500e+01 1.500e+01 1.500e+01 1.500e+01 1.500e+01 1.500e+01 1.500e+01 1.500e+01 1.500e+01 1.500e+01 1.500e+01 1.500e+01 1.500e+01 1.500e+01 1.500e+01 1.500e+01 1.500e+01 1.500e+01 1.500e+01 1.500e+01 1.500e+01 1.500e+01 1.500e+01 1.500e+01 1.500e+01 1.500e+01 1.500e+01 1.500e+01 1.500e+01 1.500e+01 1.500e+01 1.500e+01 1.500e+01 1.500e+01 1.500e+01 1.500e+01 1.500e+01 1.500e+01 1.500e+01 1.500e+01 1.500e+01 1.500e+01 1.500e+01 1.500e+01 1.500e+01 1.500e+01 1.500e+01 1.500e+01 1.500e+01 1.500e+01 1.500e+01 1.500e+01 1.500e+01 1.500e+01 1.500e+01 1.500e+01 1.500e+01 1.500e+01 1.500e+01 1.500e+01 1.500e+01 1.500e+01 1.500e+01 1.500e+01 1.500e+01 1.500e+01 1.500e+01 1.500e+01 1.500e+01 1.500e+01 1.500e+01 1.500e+01 1.500e+01 1.500e+01 1.500e+01 1.500e+01 1.500e+01 1.500e+01 1.500e+01 1.500e+01 1.500e+01 1.500e+01 1.500e+01 1.500e+01 1.500e+01 1.500e+01 1.500e+01 1.500e+01 1.500e+01 1.500e+01 1.500e+01 1.500e+01 1.500e+01 1.500e+01 1.500e+01 1.500e+01 1.500e+01 1.500e+01 1.500e+01 1.500e+01 1.500e+01 1.500e+01 1.500e+01 1.500e+01 1.500e+01 1.500e+01 1.500e+01 1.500e+01 1.500e+01 1.500e+01 1.500e+01 1.500e+01 1.500e+01 1.500e+01 1.500e+01 1.500e+01 1.500e+01 1.500e+01 1.500e+01 1.500e+01 1.500e+01 1.500e+01 1.500e+01 1.500e+01 1.500e+01 1.500e+01 1.500e+01 1.500e+01 1.500e+01 1.500e+01 1.500e+01 1.500e+01 1.500e+01 1.500e+01 1.500e+01 1.500e+01 1.500e+01 1.500e+01 1.500e+01 1.500e+01 1.500e+01 1.500e+01 1.500e+01 1.500e+01 1.500e+01 1.500e+01 1.500e+01 1.500e+01 1.500e+01 1.500e+01 1.500e+01 1.500e+01 1.500e+01 1.500e+01 1.500e+01 1.500e+01 1.500e+01 1.500e+01 1.500e+01 1.500e+01 1.500e+01 1.500e+01 1.500e+01 1.500e+01 1.500e+01 1.500e+01 1.500e+01 1.500e+01 1.500e+01 1.500e+01 1.500e+01 1.500e+01 1.500e+01 1.500e+01 1.500e+01 1.500e+01 1.500e+01 1.500e+01 1.500e+01 1.500e+01 1.500e+01 1.500e+01 1.500e+01 1.500e+01 1.500e+01 1.500e+01 1.500e+01 1.500e+01 1.500e+01 1.500e+01 1.500e+01 1.500e+01 1.500e+01 1.500e+01 1.500e+01 1.500e+01 1.500e+01 1.500e+01 1.500e+01 1.500e+01 1.500e+01 1.500e+01 1.500e+01 1.500e+01 1.500e+01 1.500e+01 1.500e+01 1.500e+01 1.500e+01 1.500e+01 1.500e+01 1.500e+01 1.500e+01 1.500e+01 1.500e+01 1.500e+01 1.500e+01 1.500e+01 1.500e+01 1.500e+01 1.500e+01 1.500e+01 1.500e+01 1.500e+01 1.500e+01 1.500e+01 1.500e+01 1.500e+01 1.500e+01 1.500e+01 1.500e+01 1.500e+01 1.500e+01 1.500e+01 1.500e+01 1.500e+01 1.500e+01 1.500e+01 1.500e+01 1.500e+01 1.500e+01 1.500e+01 1.500e+01 1.500e+01 1.500e+01 1.500e+01 1.500e+01 1.500e+01 1.500e+01 1.500e+01 1.500e+01 1.500e+01 1.500e+01 1.500e+01 1.500e+01 1.500e+01 1.500e+01 1.500e+01 1.500e+01 1.500e+01 1.500e+01 1.500e+01 1.500e+01 1.500e+01 1.500e+01 1.500e+01 1.500e+01 1.500e+01 1.500e+01 1.500e+01 1.500e+01 1.500e+01 1.500e+01 1.500e+01 1.500e+01 1.500e+01 1.500e+01 1.500e+01 1.500e+01 1.500e+01 1.500e+01 1.500e+01 1.500e+01 1.500e+01 1.500e+01 1.500e+01 1.500e+01 1.500e+01 1.500e+01 1.500e+01 1.500e+01 1.500e+01 1.500e+01 1.500e+01 1.500e+01 1.500e+01 1.500e+01 1.500e+01 1.500e+01 1.500e+01 1.500e+01 1.500e+01 1.500e+01 1.500e+01 1.500e+01 1.500e+01 1.500e+01 1.500e+01 1.500e+01 1.500e+01 1.500e+01 1.500e+01 1.500e+01 1.500e+01 1.500e+01 1.500e+01 1.500e+01 1.500e+01 1.500e+01 1.500e+01 1.500e+01 1.500e+01 1.500e+01 1.500e+01 1.500e+01 1.500e+01 1.500e+01 1.500e+01 1.500e+01 1.500e+01 1.500e+01 1.500e+01 1.500e+01 1.500e+01 1.500e+01 1.500e+01 1.500e+01 1.500e+01 1.500e+01 1.500e+01 1.500e+01 1.500e+01 1.500e+01 1.500e+01 1.500e+01 1.500e+01 1.500e+01 1.500e+01 1.500e+01 1.500e+01 1.500e+01 1.500e+01 1.500e+01 1.500e+01 1.500e+01 1.500e+01 1.500e+01 1.500e+01 1.500e+01 1.500e+01 1.500e+01 1.500e+01 1.500e+01 1.500e+01 1.500e+01 1.500e+01 1.500e+01 1.500e+01 1.500e+01 1.500e+01 1.500e+01 1.500e+01 1.500e+01 1.500e+01 1.500e+01 1.500e+01 1.500e+01 1.500e+01 1.500e+01 1.500e+01 1.500e+01 1.500e+01 1.500e+01 1.500e+01 1.500e+01 1.500e+01 1.500e+01 1.500e+01 1.500e+01 1.500e+01 1.500e+01 1.500e+01 1.500e+01 1.500e+01 1.500e+01 1.500e+01 1.500e+01 1.500e+01 1.500e+01 1.500e+01 1.500e+01 1.500e+01 1.500e+01 1.500e+01 1.500e+01 1.500e+01 1.500e+01 1.500e+01 1.500e+01 1.500e+01 1.500e+01 1.500e+01 1.500e+01 1.500e+01 1.500e+01 1.500e+01 1.500e+01 1.500e+01 1.500e+01 1.500e+01 1.500e+01 1.500e+01 1.500e+01 1.500e+01 1.500e+01 1.500e+01 1.500e+01 1.500e+01 1.500e+01 1.500e+01 1.500e+01 1.500e+01 1.500e+01 1.500e+01 1.500e+01 1.500e+01 1.500e+01 1.500e+01 1.500e+01 1.500e+01 1.500e+01 1.500e+01 1.500e+01 1.500e+01 1.500e+01 1.500e+01 1.500e+01 1.500e+01 1.500e+01 1.500e+01 1.500e+01 1.500e+01 1.500e+01 1.500e+01 1.500e+01 1.500e+01 1.500e+01 1.500e+01 1.500e+01 1.500e+01 1.500e+01 1.500e+01 1.500e+01 1.500e+01 1.500e+01 1.500e+01 1.500e+01 1.500e+01 1.500e+01 1.500e+01 1.500e+01 1.500e+01 1.500e+01 1.500e+01 1.500e+01 1.500e+01 1.500e+01 1.500e+01 1.500e+01 1.500e+01 1.500e+01 1.500e+01 1.500e+01 1.500e+01 1.500e+01 1.500e+01 1.500e+01 1.500e+01 1.500e+01 1.500e+01 1.500e+01 1.500e+01 1.500e+01 1.500e+01 1.500e+01 1.500e+01 1.500e+01 1.500e+01 1.500e+01 1.500e+01 1.500e+01 1.500e+01 1.500e+01 1.500e+01 1.500e+01 1.500e+01 1.500e+01 1.500e+01 1.500e+01 1.500e+01 1.500e+01 1.500e+01 1.500e+01 1.500e+01 1.500e+01 1.500e+01 1.500e+01 1.500e+01 1.500e+01 1.500e+01 1.500e+01 1.500e+01 1.500e+01 1.500e+01 1.500e+01 1.500e+01 1.500e+01 1.500e+01 1.500e+01 1.500e+01 1.500e+01 1.500e+01 1.500e+01 1.500e+01 1.500e+01 1.500e+01 1.500e+01 1.500e+01 1.500e+01 1.500e+01 1.500e+01 1.500e+01 1.500e+01 1.500e+01 1.500e+01 1.500e+01 1.500e+01 1.500e+01 1.500e+01 1.500e+01 1.500e+01 1.500e+01 1.500e+01 1.500e+01 1.500e+01 1.500e+01 1.500e+01 1.500e+01 1.500e+01 1.500e+01 1.500e+01 1.500e+01 1.500e+01 1.500e+01 1.500e+01 1.500e+01 1.500e+01 1.500e+01 1.500e+01 1.500e+01 1.500e+01 1.500e+01 1.500e+01 1.500e+01 1.500e+01 1.500e+01 1.500e+01 1.500e+01 1.500e+01 1.500e+01 1.500e+01 1.500e+01 1.500e+01 1.500e+01 1.500e+01 1.500e+01 1.500e+01 1.500e+01 1.500e+01 1.500e+01 1.500e+01 1.500e+01 1.500e+01 1.500e+01 1.500e+01 1.500e+01 1.500e+01 1.500e+01 1.500e+01 1.500e+01 1.500e+01 1.500e+01 1.500e+01 1.500e+01 1.500e+01 1.500e+01 1.500e+01 1.500e+01 1.500e+01 1.500e+01 1.500e+01 1.500e+01 1.500e+01 1.500e+01 1.500e+01 1.500e+01 1.500e+01 1.500e+01 1.500e+01 1.500e+01 1.500e+01 1.500e+01 1.500e+01 1.500e+01 1.500e+01 1.500e+01 1.500e+01 1.500e+01 1.500e+01 1.500e+01 1.500e+01 1.500e+01 1.500e+01 1.500e+01 1.500e+01 1.500e+01 1.500e+01 1.500e+01 1.500e+01 1.500e+01 1.500e+01 1.500e+01 1.500e+01 1.500e+01 1.500e+01 1.500e+01 1.500e+01 1.500e+01 1.500e+01 1.500e+01 1.500e+01 1.500e+01 1.500e+01 1.500e+01 1.500e+01 1.500e+01 1.500e+01 1.500e+01 1.500e+01 1.500e+01 1.500e+01 1.500e+01 1.500e+01 1.500e+01 1.500e+01 1.500e+01 1.500e+01 1.500e+01 1.500e+01 1.500e+01 1.500e+01 1.500e+01 1.500e+01 1.500e+01 1.500e+01 1.500e+01 1.500e+01 1.500e+01 1.500e+01 1.500e+01 1.500e+01 1.500e+01 1.500e+01 1.500e+01 1.500e+01 1.500e+01 1.500e+01 1.500e+01 1.500e+01 1.500e+01 1.500e+01 1.500e+01 1.500e+01 1.500e+01 1.500e+01 1.500e+01 1.500e+01 1.500e+01 1.500e+01 1.500e+01 1.500e+01 1.500e+01 1.500e+01 1.500e+01 1.500e+01 1.500e+01 1.500e+01 1.500e+01 1.500e+01 1.500e+01 1.500e+01 1.500e+01 1.500e+01 1.500e+01 1.500e+01 1.500e+01 1.500e+01 1.500e+01 1.500e+01 1.500e+01 1.500e+01 1.500e+01 1.500e+01 1.500e+01 1.500e+01 1.500e+01 1.500e+01 1.500e+01 1.500e+01 1.500e+01 1.500e+01 1.500e+01 1.500e+01 1.500e+01 1.500e+01 1.500e+01 1.500e+01 1.500e+01 1.500e+01 1.500e+01 1.500e+01 1.500e+01 1.500e+01 1.500e+01 1.500e+01 1.500e+01 1.500e+01 1.500e+01 1.500e+01 1.500e+01 1.500e+01 1.500e+01 1.500e+01 1.500e+01 1.500e+01 1.500e+01 1.500e+01 1.500e+01 1.500e+01 1.500e+01 1.500e+01 1.500e+01 1.500e+01 1.500e+01 1.500e+01 1.500e+01 1.500e+01 1.500e+01 1.500e+01 1.500e+01 1.500e+01 1.500e+01 1.500e+01 1.500e+01 1.500e+01 1.500e+01 1.500e+01 1.500e+01 1.500e+01 1.500e+01 1.500e+01 1.500e+01 1.500e+01 1.500e+01 1.500e+01 1.500e+01 1.500e+01 1.500e+01 1.500e+01 1.500e+01 1.500e+01 1.500e+01 1.500e+01 1.500e+01 1.500e+01 1.500e+01 1.500e+01 1.500e+01 1.500e+01 1.500e+01 1.500e+01 1.500e+01 1.500e+01 1.500e+01 1.500e+01 1.500e+01 1.500e+01 1.500e+01 1.500e+01 1.500e+01 1.500e+01 1.500e+01 1.500e+01 1.500e+01 1.500e+01 1.500e+01 1.500e+01 1.500e+01 1.500e+01 1.500e+01 1.500e+01 1.500e+01 1.500e+01 1.500e+01 1.500e+01 1.500e+01 1.500e+