<?xml version="1.0"?>
<VTKFile type="UnstructuredGrid" version="0.1" byte_order="LittleEndian">
   <UnstructuredGrid>
      <Piece NumberOfPoints="250" NumberOfCells="23">
         <Points>
            <DataArray type="Float32" Name="Position" NumberOfComponents="3" format="ascii">
-0.145	-4.997	0.143
-0.034	-5.001	0.201
0.091	-5.004	0.182
0.180	-5.005	0.094
0.201	-5.005	-0.030
0.145	-5.003	-0.143
0.034	-4.999	-0.201
-0.091	-4.996	-0.182
-0.180	-4.995	-0.094
-0.201	-4.995	0.030
-0.125	-4.249	0.149
-0.014	-4.251	0.206
0.110	-4.252	0.187
0.199	-4.253	0.099
0.219	-4.253	-0.025
0.163	-4.252	-0.137
0.052	-4.250	-0.194
-0.072	-4.248	-0.175
-0.161	-4.247	-0.087
-0.181	-4.248	0.037
-0.121	-3.290	0.150
-0.010	-3.290	0.206
0.113	-3.291	0.187
0.202	-3.291	0.099
0.221	-3.291	-0.025
0.165	-3.291	-0.136
0.054	-3.290	-0.193
-0.070	-3.290	-0.173
-0.158	-3.290	-0.085
-0.178	-3.290	0.038
-0.120	-2.400	0.149
-0.009	-2.400	0.206
0.115	-2.401	0.186
0.203	-2.401	0.098
0.222	-2.401	-0.025
0.166	-2.401	-0.136
0.055	-2.400	-0.193
-0.068	-2.400	-0.173
-0.156	-2.400	-0.085
-0.176	-2.400	0.038
-0.117	-1.800	0.149
-0.007	-1.800	0.206
0.116	-1.801	0.187
0.205	-1.801	0.099
0.224	-1.801	-0.024
0.168	-1.801	-0.135
0.057	-1.801	-0.192
-0.066	-1.800	-0.173
-0.154	-1.800	-0.085
-0.174	-1.800	0.038
-0.115	-1.200	0.148
-0.005	-1.200	0.204
0.118	-1.200	0.185
0.206	-1.200	0.097
0.226	-1.201	-0.026
0.170	-1.201	-0.136
0.059	-1.201	-0.193
-0.064	-1.201	-0.174
-0.152	-1.200	-0.086
-0.172	-1.200	0.037
-0.116	-0.301	0.147
-0.006	-0.300	0.203
0.117	-0.300	0.183
0.205	-0.300	0.095
0.224	-0.300	-0.027
0.168	-0.300	-0.138
0.057	-0.300	-0.194
-0.066	-0.301	-0.175
-0.154	-0.301	-0.087
-0.173	-0.301	0.036
-0.120	0.560	0.147
-0.009	0.559	0.204
0.113	0.559	0.184
0.201	0.559	0.096
0.220	0.559	-0.026
0.164	0.560	-0.137
0.054	0.560	-0.193
-0.069	0.560	-0.174
-0.157	0.560	-0.086
-0.176	0.560	0.037
-0.114	1.440	0.148
-0.004	1.439	0.204
0.119	1.439	0.185
0.206	1.439	0.097
0.226	1.439	-0.025
0.170	1.439	-0.135
0.059	1.440	-0.192
-0.063	1.440	-0.172
-0.151	1.440	-0.085
-0.170	1.440	0.038
-0.114	2.315	0.149
-0.004	2.315	0.204
0.118	2.316	0.185
0.205	2.316	0.097
0.224	2.317	-0.025
0.168	2.317	-0.135
0.057	2.317	-0.191
-0.065	2.316	-0.171
-0.152	2.316	-0.084
-0.171	2.315	0.039
-0.116	2.611	0.007
-0.005	2.667	0.007
0.117	2.648	0.007
0.204	2.560	0.007
0.223	2.438	0.007
0.167	2.328	0.007
0.057	2.272	0.007
-0.065	2.291	0.007
-0.152	2.379	0.007
-0.172	2.501	0.007
0.032	-4.998	-0.034
0.046	-4.997	-0.009
0.042	-4.997	0.020
0.022	-4.998	0.041
-0.006	-5.000	0.047
-0.032	-5.002	0.034
-0.046	-5.003	0.009
-0.042	-5.003	-0.020
-0.022	-5.002	-0.041
0.006	-5.000	-0.047
0.083	-5.703	-0.025
0.097	-5.701	-0.000
0.093	-5.700	0.029
0.073	-5.701	0.049
0.045	-5.704	0.055
0.019	-5.707	0.042
0.005	-5.709	0.017
0.009	-5.710	-0.012
0.029	-5.709	-0.033
0.057	-5.706	-0.038
0.160	-6.403	0.022
0.174	-6.400	0.047
0.171	-6.400	0.076
0.151	-6.402	0.097
0.124	-6.405	0.102
0.098	-6.409	0.090
0.084	-6.411	0.065
0.087	-6.412	0.037
0.107	-6.410	0.016
0.135	-6.407	0.010
0.259	-7.101	0.023
0.273	-7.099	0.048
0.271	-7.100	0.076
0.252	-7.102	0.098
0.224	-7.106	0.104
0.198	-7.110	0.093
0.184	-7.112	0.068
0.187	-7.111	0.040
0.205	-7.109	0.018
0.233	-7.105	0.012
0.358	-7.801	0.014
0.373	-7.800	0.039
0.370	-7.800	0.067
0.351	-7.803	0.088
0.324	-7.806	0.094
0.298	-7.809	0.083
0.283	-7.811	0.059
0.286	-7.811	0.030
0.305	-7.808	0.009
0.332	-7.805	0.003
0.441	-8.504	0.018
0.455	-8.502	0.043
0.452	-8.502	0.071
0.433	-8.504	0.092
0.406	-8.507	0.098
0.380	-8.510	0.086
0.366	-8.511	0.061
0.369	-8.511	0.033
0.388	-8.509	0.012
0.416	-8.507	0.007
0.526	-9.442	0.022
0.540	-9.441	0.046
0.537	-9.442	0.074
0.518	-9.444	0.095
0.491	-9.447	0.101
0.465	-9.449	0.089
0.451	-9.450	0.065
0.454	-9.449	0.037
0.473	-9.447	0.016
0.500	-9.444	0.010
0.585	-10.144	-0.012
0.599	-10.144	0.012
0.597	-10.146	0.040
0.578	-10.149	0.061
0.551	-10.151	0.068
0.525	-10.153	0.056
0.511	-10.153	0.032
0.513	-10.152	0.004
0.532	-10.149	-0.017
0.559	-10.146	-0.023
0.650	-10.848	-0.052
0.664	-10.848	-0.027
0.661	-10.849	0.001
0.642	-10.851	0.021
0.615	-10.853	0.027
0.590	-10.855	0.016
0.576	-10.856	-0.009
0.579	-10.855	-0.036
0.597	-10.853	-0.057
0.625	-10.850	-0.063
0.725	-11.791	-0.041
0.737	-11.789	-0.016
0.733	-11.787	0.012
0.713	-11.787	0.031
0.685	-11.788	0.036
0.661	-11.791	0.023
0.648	-11.793	-0.002
0.652	-11.794	-0.029
0.672	-11.794	-0.049
0.700	-11.793	-0.053
0.751	-12.496	0.039
0.762	-12.492	0.064
0.756	-12.488	0.091
0.736	-12.486	0.110
0.708	-12.486	0.113
0.684	-12.489	0.099
0.672	-12.493	0.074
0.678	-12.497	0.047
0.699	-12.499	0.029
0.727	-12.499	0.026
0.773	-13.191	0.175
0.784	-13.186	0.201
0.778	-13.180	0.227
0.756	-13.177	0.245
0.729	-13.177	0.247
0.705	-13.180	0.233
0.694	-13.186	0.208
0.701	-13.192	0.181
0.722	-13.195	0.164
0.750	-13.195	0.161
0.794	-14.107	0.404
0.804	-14.101	0.429
0.797	-14.095	0.455
0.775	-14.091	0.472
0.748	-14.090	0.474
0.724	-14.093	0.459
0.714	-14.099	0.434
0.721	-14.105	0.408
0.742	-14.110	0.391
0.770	-14.110	0.389
0.785	-14.338	0.455
0.795	-14.332	0.480
0.788	-14.326	0.506
0.767	-14.322	0.523
0.739	-14.320	0.525
0.716	-14.323	0.510
0.705	-14.328	0.484
0.713	-14.334	0.458
0.734	-14.339	0.441
0.762	-14.340	0.440
		    </DataArray>
         </Points>
         <Cells>
            <DataArray type="Int32" Name="connectivity" NumberOfComponents="1" format="ascii">
 0 10 1 11 2 12 3 13 4 14 5 15 6 16 7 17 8 18 9 19 0 10
 10 20 11 21 12 22 13 23 14 24 15 25 16 26 17 27 18 28 19 29 10 20
 20 30 21 31 22 32 23 33 24 34 25 35 26 36 27 37 28 38 29 39 20 30
 30 40 31 41 32 42 33 43 34 44 35 45 36 46 37 47 38 48 39 49 30 40
 40 50 41 51 42 52 43 53 44 54 45 55 46 56 47 57 48 58 49 59 40 50
 50 60 51 61 52 62 53 63 54 64 55 65 56 66 57 67 58 68 59 69 50 60
 60 70 61 71 62 72 63 73 64 74 65 75 66 76 67 77 68 78 69 79 60 70
 70 80 71 81 72 82 73 83 74 84 75 85 76 86 77 87 78 88 79 89 70 80
 80 90 81 91 82 92 83 93 84 94 85 95 86 96 87 97 88 98 89 99 80 90
 90 100 91 101 92 102 93 103 94 104 95 105 96 106 97 107 98 108 99 109 90 100
 110 120 111 121 112 122 113 123 114 124 115 125 116 126 117 127 118 128 119 129 110 120
 120 130 121 131 122 132 123 133 124 134 125 135 126 136 127 137 128 138 129 139 120 130
 130 140 131 141 132 142 133 143 134 144 135 145 136 146 137 147 138 148 139 149 130 140
 140 150 141 151 142 152 143 153 144 154 145 155 146 156 147 157 148 158 149 159 140 150
 150 160 151 161 152 162 153 163 154 164 155 165 156 166 157 167 158 168 159 169 150 160
 160 170 161 171 162 172 163 173 164 174 165 175 166 176 167 177 168 178 169 179 160 170
 170 180 171 181 172 182 173 183 174 184 175 185 176 186 177 187 178 188 179 189 170 180
 180 190 181 191 182 192 183 193 184 194 185 195 186 196 187 197 188 198 189 199 180 190
 190 200 191 201 192 202 193 203 194 204 195 205 196 206 197 207 198 208 199 209 190 200
 200 210 201 211 202 212 203 213 204 214 205 215 206 216 207 217 208 218 209 219 200 210
 210 220 211 221 212 222 213 223 214 224 215 225 216 226 217 227 218 228 219 229 210 220
 220 230 221 231 222 232 223 233 224 234 225 235 226 236 227 237 228 238 229 239 220 230
 230 240 231 241 232 242 233 243 234 244 235 245 236 246 237 247 238 248 239 249 230 240

            </DataArray>
            <DataArray type="Int32" Name="offsets" NumberOfComponents="1" format="ascii">
 22 44 66 88 110 132 154 176 198 220 242 264 286 308 330 352 374 396 418 440 462 484 506
            </DataArray>
            <DataArray type="UInt8"  Name="types" NumberOfComponents="1" format="ascii">
6 6 6 6 6 6 6 6 6 6 6 6 6 6 6 6 6 6 6 6 6 6 6
            </DataArray>
         </Cells>
         <CellData>
           <DataArray type="Float32" Name="aerenchymaFormation" NumberOfComponents="1" format="ascii">
 0.000e+00 0.000e+00 0.000e+00 0.000e+00 0.000e+00 0.000e+00 0.000e+00 0.000e+00 0.000e+00 0.000e+00 2.500e-02 1.750e-02 1.000e-02 2.500e-03 0.000e+00 0.000e+00 0.000e+00 0.000e+00 0.000e+00 0.000e+00 0.000e+00 0.000e+00 0.000e+00
           </DataArray>
           <DataArray type="Float32" Name="combinedRootClassID" NumberOfComponents="1" format="ascii">
 -2.000e+00 -2.000e+00 -2.000e+00 -2.000e+00 -2.000e+00 -2.000e+00 -2.000e+00 -2.000e+00 -2.000e+00 -2.000e+00 -4.000e+00 -4.000e+00 -4.000e+00 -4.000e+00 -4.000e+00 -4.000e+00 -4.000e+00 -4.000e+00 -4.000e+00 -4.000e+00 -4.000e+00 -4.000e+00 -4.000e+00
           </DataArray>
           <DataArray type="Float32" Name="nitrate/Cmin" NumberOfComponents="1" format="ascii">
 1.000e-03 1.000e-03 1.000e-03 1.000e-03 1.000e-03 1.000e-03 1.000e-03 1.000e-03 1.000e-03 1.000e-03 1.000e-03 1.000e-03 1.000e-03 1.000e-03 1.000e-03 1.000e-03 1.000e-03 1.000e-03 1.000e-03 1.000e-03 1.000e-03 1.000e-03 1.000e-03
           </DataArray>
           <DataArray type="Float32" Name="nitrate/Imax" NumberOfComponents="1" format="ascii">
 1.900e+00 1.900e+00 1.900e+00 1.900e+00 1.900e+00 1.900e+00 1.900e+00 1.900e+00 1.900e+00 1.900e+00 1.900e+00 1.900e+00 1.900e+00 1.900e+00 1.900e+00 1.900e+00 1.900e+00 1.900e+00 1.900e+00 1.900e+00 1.900e+00 1.900e+00 1.900e+00
           </DataArray>
           <DataArray type="Float32" Name="nitrate/Km" NumberOfComponents="1" format="ascii">
 1.610e-02 1.610e-02 1.610e-02 1.610e-02 1.610e-02 1.610e-02 1.610e-02 1.610e-02 1.610e-02 1.610e-02 1.610e-02 1.610e-02 1.610e-02 1.610e-02 1.610e-02 1.610e-02 1.610e-02 1.610e-02 1.610e-02 1.610e-02 1.610e-02 1.610e-02 1.610e-02
           </DataArray>
           <DataArray type="Float32" Name="nitrate/minimalNutrientConcentration" NumberOfComponents="1" format="ascii">
 6.000e+02 6.000e+02 6.000e+02 6.000e+02 6.000e+02 6.000e+02 6.000e+02 6.000e+02 6.000e+02 6.000e+02 6.000e+02 6.000e+02 6.000e+02 6.000e+02 6.000e+02 6.000e+02 6.000e+02 6.000e+02 6.000e+02 6.000e+02 6.000e+02 6.000e+02 6.000e+02
           </DataArray>
           <DataArray type="Float32" Name="nitrate/nutrientConcentrationAtTheRootSurface" NumberOfComponents="1" format="ascii">
 1.711e+00 1.474e+00 1.156e+00 8.786e-01 7.005e-01 5.812e-01 4.217e-01 0.000e+00 0.000e+00 0.000e+00 1.711e+00 1.902e+00 2.065e+00 2.194e+00 2.325e+00 2.452e+00 2.623e+00 2.745e+00 2.888e+00 3.073e+00 3.211e+00 3.325e+00 3.418e+00
           </DataArray>
           <DataArray type="Float32" Name="nitrate/optimalNutrientConcentration" NumberOfComponents="1" format="ascii">
 1.200e+03 1.200e+03 1.200e+03 1.200e+03 1.200e+03 1.200e+03 1.200e+03 1.200e+03 1.200e+03 1.200e+03 1.200e+03 1.200e+03 1.200e+03 1.200e+03 1.200e+03 1.200e+03 1.200e+03 1.200e+03 1.200e+03 1.200e+03 1.200e+03 1.200e+03 1.200e+03
           </DataArray>
           <DataArray type="Float32" Name="nitrate/rootSegmentMinimalNutrientContent" NumberOfComponents="1" format="ascii">
 5.503e+00 6.987e+00 6.441e+00 4.326e+00 4.316e+00 6.459e+00 6.154e+00 6.281e+00 6.238e+00 1.089e+00 2.768e-01 2.734e-01 2.703e-01 2.674e-01 2.649e-01 3.501e-01 2.600e-01 2.583e-01 3.425e-01 2.554e-01 2.546e-01 3.387e-01 8.457e-02
           </DataArray>
           <DataArray type="Float32" Name="nitrate/rootSegmentNutrientUptake" NumberOfComponents="1" format="ascii">
 0.000e+00 3.904e+00 3.145e+00 2.489e+00 1.999e+00 1.528e+00 6.864e-01 5.794e-02 0.000e+00 0.000e+00 0.000e+00 1.376e+00 1.259e+00 1.143e+00 1.027e+00 1.191e+00 7.589e-01 6.444e-01 6.818e-01 3.785e-01 2.648e-01 1.765e-01 1.260e-02
           </DataArray>
           <DataArray type="Float32" Name="nitrate/rootSegmentOptimalNutrientContent" NumberOfComponents="1" format="ascii">
 1.101e+01 1.397e+01 1.288e+01 8.651e+00 8.631e+00 1.292e+01 1.231e+01 1.256e+01 1.248e+01 2.178e+00 5.535e-01 5.467e-01 5.405e-01 5.349e-01 5.298e-01 7.003e-01 5.199e-01 5.166e-01 6.850e-01 5.108e-01 5.092e-01 6.775e-01 1.691e-01
           </DataArray>
           <DataArray type="Float32" Name="parentRootClassID" NumberOfComponents="1" format="ascii">
 -3.000e+00 -3.000e+00 -3.000e+00 -3.000e+00 -3.000e+00 -3.000e+00 -3.000e+00 -3.000e+00 -3.000e+00 -3.000e+00 -3.000e+00 -3.000e+00 -3.000e+00 -3.000e+00 -3.000e+00 -3.000e+00 -3.000e+00 -3.000e+00 -3.000e+00 -3.000e+00 -3.000e+00 -3.000e+00 -3.000e+00
           </DataArray>
           <DataArray type="Float32" Name="plantID" NumberOfComponents="1" format="ascii">
 5.000e+00 5.000e+00 5.000e+00 5.000e+00 5.000e+00 5.000e+00 5.000e+00 5.000e+00 5.000e+00 5.000e+00 5.000e+00 5.000e+00 5.000e+00 5.000e+00 5.000e+00 5.000e+00 5.000e+00 5.000e+00 5.000e+00 5.000e+00 5.000e+00 5.000e+00 5.000e+00
           </DataArray>
           <DataArray type="Float32" Name="plantTypeID" NumberOfComponents="1" format="ascii">
 0.000e+00 0.000e+00 0.000e+00 0.000e+00 0.000e+00 0.000e+00 0.000e+00 0.000e+00 0.000e+00 0.000e+00 0.000e+00 0.000e+00 0.000e+00 0.000e+00 0.000e+00 0.000e+00 0.000e+00 0.000e+00 0.000e+00 0.000e+00 0.000e+00 0.000e+00 0.000e+00
           </DataArray>
           <DataArray type="Float32" Name="potassium/Cmin" NumberOfComponents="1" format="ascii">
 2.000e-03 2.000e-03 2.000e-03 2.000e-03 2.000e-03 2.000e-03 2.000e-03 2.000e-03 2.000e-03 2.000e-03 2.000e-03 2.000e-03 2.000e-03 2.000e-03 2.000e-03 2.000e-03 2.000e-03 2.000e-03 2.000e-03 2.000e-03 2.000e-03 2.000e-03 2.000e-03
           </DataArray>
           <DataArray type="Float32" Name="potassium/Imax" NumberOfComponents="1" format="ascii">
 4.670e-01 4.670e-01 4.670e-01 4.670e-01 4.670e-01 4.670e-01 4.670e-01 4.670e-01 4.670e-01 4.670e-01 4.670e-01 4.670e-01 4.670e-01 4.670e-01 4.670e-01 4.670e-01 4.670e-01 4.670e-01 4.670e-01 4.670e-01 4.670e-01 4.670e-01 4.670e-01
           </DataArray>
           <DataArray type="Float32" Name="potassium/Km" NumberOfComponents="1" format="ascii">
 3.900e-02 3.900e-02 3.900e-02 3.900e-02 3.900e-02 3.900e-02 3.900e-02 3.900e-02 3.900e-02 3.900e-02 3.900e-02 3.900e-02 3.900e-02 3.900e-02 3.900e-02 3.900e-02 3.900e-02 3.900e-02 3.900e-02 3.900e-02 3.900e-02 3.900e-02 3.900e-02
           </DataArray>
           <DataArray type="Float32" Name="potassium/minimalNutrientConcentration" NumberOfComponents="1" format="ascii">
 1.680e+02 1.680e+02 1.680e+02 1.680e+02 1.680e+02 1.680e+02 1.680e+02 1.680e+02 1.680e+02 1.680e+02 1.680e+02 1.680e+02 1.680e+02 1.680e+02 1.680e+02 1.680e+02 1.680e+02 1.680e+02 1.680e+02 1.680e+02 1.680e+02 1.680e+02 1.680e+02
           </DataArray>
           <DataArray type="Float32" Name="potassium/nutrientConcentrationAtTheRootSurface" NumberOfComponents="1" format="ascii">
 1.490e-01 1.490e-01 1.488e-01 1.487e-01 1.486e-01 1.486e-01 1.439e-01 0.000e+00 0.000e+00 0.000e+00 1.490e-01 1.488e-01 1.486e-01 1.485e-01 1.484e-01 1.487e-01 1.491e-01 1.491e-01 1.493e-01 1.495e-01 1.497e-01 1.497e-01 1.498e-01
           </DataArray>
           <DataArray type="Float32" Name="potassium/optimalNutrientConcentration" NumberOfComponents="1" format="ascii">
 2.340e+02 2.340e+02 2.340e+02 2.340e+02 2.340e+02 2.340e+02 2.340e+02 2.340e+02 2.340e+02 2.340e+02 2.340e+02 2.340e+02 2.340e+02 2.340e+02 2.340e+02 2.340e+02 2.340e+02 2.340e+02 2.340e+02 2.340e+02 2.340e+02 2.340e+02 2.340e+02
           </DataArray>
           <DataArray type="Float32" Name="potassium/rootSegmentMinimalNutrientContent" NumberOfComponents="1" format="ascii">
 1.541e+00 1.956e+00 1.804e+00 1.211e+00 1.208e+00 1.809e+00 1.723e+00 1.759e+00 1.747e+00 3.049e-01 7.749e-02 7.654e-02 7.567e-02 7.488e-02 7.417e-02 9.804e-02 7.279e-02 7.232e-02 9.591e-02 7.152e-02 7.129e-02 9.485e-02 2.368e-02
           </DataArray>
           <DataArray type="Float32" Name="potassium/rootSegmentNutrientUptake" NumberOfComponents="1" format="ascii">
 0.000e+00 2.990e-01 2.666e-01 2.424e-01 2.264e-01 2.103e-01 1.816e-01 9.520e-03 0.000e+00 0.000e+00 0.000e+00 2.694e-01 2.464e-01 2.236e-01 2.009e-01 2.055e-01 1.484e-01 1.260e-01 1.209e-01 7.397e-02 5.175e-02 3.238e-02 2.463e-03
           </DataArray>
           <DataArray type="Float32" Name="potassium/rootSegmentOptimalNutrientContent" NumberOfComponents="1" format="ascii">
 2.146e+00 2.725e+00 2.512e+00 1.687e+00 1.683e+00 2.519e+00 2.400e+00 2.450e+00 2.433e+00 4.247e-01 1.079e-01 1.066e-01 1.054e-01 1.043e-01 1.033e-01 1.365e-01 1.014e-01 1.007e-01 1.336e-01 9.961e-02 9.930e-02 1.321e-01 3.298e-02
           </DataArray>
           <DataArray type="Float32" Name="rootCircumference" NumberOfComponents="1" format="ascii">
 1.279e+00 1.273e+00 1.270e+00 1.267e+00 1.266e+00 1.265e+00 1.263e+00 1.261e+00 1.259e+00 1.257e+00 2.953e-01 2.935e-01 2.918e-01 2.903e-01 2.889e-01 2.877e-01 2.862e-01 2.853e-01 2.845e-01 2.837e-01 2.832e-01 2.829e-01 2.828e-01
           </DataArray>
           <DataArray type="Float32" Name="rootClassID" NumberOfComponents="1" format="ascii">
 -2.000e+00 -2.000e+00 -2.000e+00 -2.000e+00 -2.000e+00 -2.000e+00 -2.000e+00 -2.000e+00 -2.000e+00 -2.000e+00 -4.000e+00 -4.000e+00 -4.000e+00 -4.000e+00 -4.000e+00 -4.000e+00 -4.000e+00 -4.000e+00 -4.000e+00 -4.000e+00 -4.000e+00 -4.000e+00 -4.000e+00
           </DataArray>
           <DataArray type="Float32" Name="rootDiameter" NumberOfComponents="1" format="ascii">
 4.070e-01 4.054e-01 4.042e-01 4.034e-01 4.030e-01 4.025e-01 4.019e-01 4.014e-01 4.009e-01 4.001e-01 9.400e-02 9.342e-02 9.289e-02 9.240e-02 9.196e-02 9.156e-02 9.110e-02 9.081e-02 9.056e-02 9.030e-02 9.016e-02 9.006e-02 9.000e-02
           </DataArray>
           <DataArray type="Float32" Name="rootLength2Base" NumberOfComponents="1" format="ascii">
 0.000e+00 7.500e-01 1.710e+00 2.600e+00 3.200e+00 3.800e+00 4.700e+00 5.560e+00 6.440e+00 7.316e+00 0.000e+00 7.071e-01 1.414e+00 2.121e+00 2.828e+00 3.535e+00 4.478e+00 5.185e+00 5.893e+00 6.835e+00 7.542e+00 8.250e+00 9.192e+00
           </DataArray>
           <DataArray type="Float32" Name="rootPotentialSecondaryGrowth" NumberOfComponents="1" format="ascii">
 4.070e-01 4.054e-01 4.042e-01 4.034e-01 4.030e-01 4.025e-01 4.019e-01 4.014e-01 4.009e-01 4.001e-01 9.400e-02 9.342e-02 9.289e-02 9.240e-02 9.196e-02 9.156e-02 9.110e-02 9.081e-02 9.056e-02 9.030e-02 9.016e-02 9.006e-02 9.000e-02
           </DataArray>
           <DataArray type="Float32" Name="rootSegmentAge" NumberOfComponents="1" format="ascii">
 4.000e+00 3.500e+00 3.100e+00 2.800e+00 2.600e+00 2.400e+00 2.100e+00 1.800e+00 1.400e+00 5.000e-01 4.000e+00 3.700e+00 3.400e+00 3.100e+00 2.800e+00 2.500e+00 2.100e+00 1.800e+00 1.500e+00 1.100e+00 8.000e-01 5.000e-01 1.000e-01
           </DataArray>
           <DataArray type="Float32" Name="rootSegmentCarbonCostOfExudates" NumberOfComponents="1" format="ascii">
 0.000e+00 0.000e+00 0.000e+00 0.000e+00 0.000e+00 0.000e+00 0.000e+00 0.000e+00 0.000e+00 0.000e+00 4.469e-05 4.143e-05 3.814e-05 3.455e-05 3.106e-05 3.589e-05 2.305e-05 1.987e-05 2.122e-05 1.193e-05 8.390e-06 5.280e-06 2.239e-07
           </DataArray>
           <DataArray type="Float32" Name="rootSegmentDryWeight" NumberOfComponents="1" format="ascii">
 9.172e-03 1.165e-02 1.074e-02 7.210e-03 7.193e-03 1.077e-02 1.026e-02 1.047e-02 1.040e-02 1.815e-03 4.613e-04 4.556e-04 4.504e-04 4.457e-04 4.415e-04 5.835e-04 4.333e-04 4.305e-04 5.709e-04 4.257e-04 4.244e-04 5.646e-04 1.410e-04
           </DataArray>
           <DataArray type="Float32" Name="rootSegmentLength" NumberOfComponents="1" format="ascii">
 7.500e-01 9.600e-01 8.900e-01 6.000e-01 6.000e-01 9.000e-01 8.600e-01 8.800e-01 8.764e-01 1.536e-01 7.071e-01 7.071e-01 7.071e-01 7.071e-01 7.071e-01 9.428e-01 7.071e-01 7.071e-01 9.428e-01 7.071e-01 7.071e-01 9.428e-01 2.357e-01
           </DataArray>
           <DataArray type="Float32" Name="rootSegmentLengthDuration" NumberOfComponents="1" format="ascii">
 2.795e+00 3.157e+00 2.629e+00 1.620e+00 1.500e+00 2.030e+00 1.685e+00 1.419e+00 9.324e-01 4.388e-02 2.726e+00 2.514e+00 2.302e+00 2.090e+00 1.878e+00 2.168e+00 1.383e+00 1.171e+00 1.226e+00 6.757e-01 4.635e-01 2.828e-01 2.357e-02
           </DataArray>
           <DataArray type="Float32" Name="rootSegmentRespiration" NumberOfComponents="1" format="ascii">
 3.669e-04 4.658e-04 4.294e-04 2.884e-04 2.877e-04 4.306e-04 4.103e-04 4.711e-04 5.718e-04 1.407e-04 1.845e-05 1.822e-05 1.802e-05 1.783e-05 1.766e-05 2.334e-05 1.733e-05 1.937e-05 2.997e-05 2.661e-05 2.970e-05 4.375e-05 1.233e-05
           </DataArray>
           <DataArray type="Float32" Name="rootSegmentSecondaryPotentialCarbonSinkForGrowth" NumberOfComponents="1" format="ascii">
 1.239e-04 1.225e-04 9.063e-05 5.111e-05 4.379e-05 5.323e-05 3.820e-05 2.641e-05 1.039e-05 1.618e-07 1.603e-05 1.359e-05 1.136e-05 9.334e-06 7.515e-06 7.543e-06 4.053e-06 2.900e-06 2.409e-06 9.637e-07 4.550e-07 1.457e-07 1.175e-09
           </DataArray>
           <DataArray type="Float32" Name="rootSegmentSurfaceArea" NumberOfComponents="1" format="ascii">
 9.590e-01 1.223e+00 1.130e+00 7.604e-01 7.596e-01 1.138e+00 1.086e+00 1.110e+00 1.104e+00 1.930e-01 2.088e-01 2.075e-01 2.063e-01 2.053e-01 2.043e-01 2.712e-01 2.024e-01 2.017e-01 2.682e-01 2.006e-01 2.003e-01 2.668e-01 6.664e-02
           </DataArray>
           <DataArray type="Float32" Name="rootSegmentVolume" NumberOfComponents="1" format="ascii">
 9.758e-02 1.239e-01 1.142e-01 7.670e-02 7.652e-02 1.145e-01 1.091e-01 1.114e-01 1.106e-01 1.931e-02 4.907e-03 4.847e-03 4.792e-03 4.742e-03 4.696e-03 6.208e-03 4.609e-03 4.580e-03 6.073e-03 4.529e-03 4.514e-03 6.006e-03 1.500e-03
           </DataArray>
           <DataArray type="Float32" Name="rootSegmentWaterUptake" NumberOfComponents="1" format="ascii">
 2.837e-02 3.631e-02 3.366e-02 2.269e-02 2.269e-02 3.404e-02 3.251e-02 0.000e+00 0.000e+00 0.000e+00 2.675e-02 2.675e-02 2.675e-02 2.675e-02 2.675e-02 3.566e-02 2.673e-02 2.649e-02 3.348e-02 2.189e-02 1.733e-02 1.231e-02 5.638e-04
           </DataArray>
           <DataArray type="Float32" Name="spatialRootDensity" NumberOfComponents="1" format="ascii">
 3.376e-01 1.688e-01 0.000e+00 0.000e+00 0.000e+00 0.000e+00 0.000e+00 0.000e+00 0.000e+00 0.000e+00 4.082e-01 1.790e-01 0.000e+00 0.000e+00 0.000e+00 0.000e+00 0.000e+00 0.000e+00 0.000e+00 0.000e+00 0.000e+00 0.000e+00 0.000e+00
           </DataArray>
           <DataArray type="Float32" Name="volumetricWaterContentAtTheRootSurface" NumberOfComponents="1" format="ascii">
 3.002e-01 3.004e-01 3.007e-01 3.010e-01 3.012e-01 3.013e-01 3.016e-01 0.000e+00 0.000e+00 0.000e+00 3.002e-01 3.000e-01 2.998e-01 2.996e-01 2.993e-01 2.991e-01 2.988e-01 2.986e-01 2.984e-01 2.981e-01 2.978e-01 2.976e-01 2.974e-01
           </DataArray>
         </CellData>
      </Piece>
   </UnstructuredGrid>
</VTKFile>
