<?xml version="1.0"?>
<VTKFile type="UnstructuredGrid" version="0.1" byte_order="LittleEndian">
   <UnstructuredGrid>
      <Piece NumberOfPoints="45700" NumberOfCells="3283">
         <Points>
            <DataArray type="Float32" Name="Position" NumberOfComponents="3" format="ascii">
0.122	-5.023	0.058
0.129	-5.020	0.064
0.136	-5.023	0.069
0.139	-5.031	0.073
0.139	-5.040	0.074
0.134	-5.047	0.071
0.127	-5.050	0.065
0.120	-5.047	0.059
0.117	-5.039	0.055
0.117	-5.030	0.055
0.683	-5.098	-0.613
0.690	-5.095	-0.607
0.696	-5.098	-0.601
0.700	-5.105	-0.597
0.699	-5.115	-0.596
0.695	-5.122	-0.599
0.688	-5.125	-0.605
0.682	-5.122	-0.611
0.678	-5.114	-0.616
0.679	-5.105	-0.616
1.291	-5.183	-1.215
1.296	-5.180	-1.208
1.301	-5.183	-1.201
1.303	-5.190	-1.196
1.303	-5.200	-1.195
1.299	-5.207	-1.199
1.294	-5.210	-1.206
1.289	-5.207	-1.213
1.286	-5.200	-1.218
1.287	-5.190	-1.219
2.080	-5.275	-1.611
2.083	-5.272	-1.604
2.087	-5.275	-1.595
2.089	-5.282	-1.590
2.089	-5.291	-1.590
2.086	-5.299	-1.594
2.082	-5.302	-1.602
2.079	-5.299	-1.610
2.077	-5.292	-1.615
2.077	-5.283	-1.616
2.133	-5.276	-1.634
2.137	-5.273	-1.626
2.140	-5.276	-1.618
2.142	-5.283	-1.613
2.142	-5.292	-1.612
2.140	-5.300	-1.617
2.137	-5.303	-1.625
2.133	-5.301	-1.633
2.131	-5.293	-1.639
2.131	-5.284	-1.639
0.256	-5.092	0.118
0.255	-5.085	0.123
0.251	-5.081	0.130
0.246	-5.083	0.138
0.242	-5.091	0.142
0.240	-5.100	0.142
0.242	-5.107	0.137
0.246	-5.111	0.129
0.251	-5.108	0.122
0.255	-5.101	0.118
0.955	-5.229	0.558
0.954	-5.221	0.562
0.950	-5.217	0.569
0.944	-5.218	0.577
0.939	-5.225	0.581
0.936	-5.233	0.581
0.937	-5.242	0.576
0.941	-5.246	0.569
0.947	-5.244	0.562
0.952	-5.238	0.558
1.541	-5.502	1.090
1.540	-5.494	1.094
1.536	-5.488	1.100
1.529	-5.488	1.107
1.523	-5.494	1.111
1.519	-5.502	1.111
1.520	-5.511	1.108
1.524	-5.516	1.101
1.531	-5.516	1.095
1.537	-5.511	1.091
2.103	-5.666	1.694
2.102	-5.657	1.697
2.097	-5.652	1.703
2.091	-5.653	1.710
2.085	-5.658	1.714
2.082	-5.667	1.715
2.083	-5.676	1.712
2.088	-5.681	1.706
2.094	-5.681	1.699
2.100	-5.675	1.695
2.773	-5.754	2.262
2.771	-5.746	2.265
2.766	-5.741	2.271
2.759	-5.742	2.278
2.755	-5.748	2.283
2.753	-5.757	2.285
2.755	-5.765	2.281
2.760	-5.770	2.275
2.766	-5.769	2.268
2.771	-5.763	2.263
3.078	-5.765	2.536
3.076	-5.757	2.538
3.071	-5.752	2.544
3.065	-5.752	2.551
3.060	-5.758	2.557
3.058	-5.767	2.558
3.061	-5.776	2.555
3.066	-5.781	2.549
3.072	-5.780	2.542
3.077	-5.774	2.537
1.194	-5.928	0.601
1.198	-5.931	0.608
1.197	-5.934	0.617
1.191	-5.935	0.624
1.183	-5.934	0.626
1.174	-5.931	0.624
1.170	-5.927	0.616
1.171	-5.924	0.608
1.177	-5.923	0.601
1.185	-5.925	0.598
0.985	-6.732	0.306
0.990	-6.735	0.313
0.990	-6.738	0.321
0.985	-6.740	0.328
0.976	-6.740	0.332
0.967	-6.738	0.329
0.962	-6.734	0.322
0.962	-6.731	0.314
0.967	-6.729	0.306
0.976	-6.730	0.303
0.921	-7.518	0.010
0.927	-7.520	0.017
0.928	-7.522	0.026
0.922	-7.525	0.034
0.914	-7.526	0.037
0.905	-7.525	0.034
0.899	-7.523	0.027
0.899	-7.520	0.019
0.904	-7.518	0.011
0.912	-7.517	0.008
0.993	-8.327	-0.188
0.998	-8.328	-0.180
0.997	-8.329	-0.171
0.991	-8.330	-0.164
0.982	-8.331	-0.162
0.974	-8.331	-0.166
0.969	-8.330	-0.173
0.970	-8.329	-0.183
0.976	-8.328	-0.190
0.985	-8.327	-0.192
0.989	-9.203	-0.178
0.992	-9.202	-0.170
0.990	-9.201	-0.161
0.983	-9.200	-0.155
0.974	-9.199	-0.154
0.966	-9.199	-0.159
0.963	-9.200	-0.167
0.965	-9.201	-0.176
0.972	-9.202	-0.182
0.981	-9.203	-0.183
0.947	-9.405	-0.141
0.947	-9.401	-0.133
0.947	-9.403	-0.124
0.947	-9.409	-0.117
0.947	-9.418	-0.116
0.947	-9.427	-0.120
0.947	-9.431	-0.128
0.947	-9.429	-0.137
0.947	-9.423	-0.144
0.947	-9.414	-0.145
4.420	-18.697	2.728
4.423	-18.688	2.730
4.421	-18.680	2.732
4.414	-18.674	2.733
4.405	-18.673	2.733
4.397	-18.678	2.732
4.393	-18.686	2.729
4.395	-18.695	2.727
4.403	-18.701	2.726
4.412	-18.701	2.726
4.386	-18.916	3.554
4.390	-18.908	3.557
4.387	-18.899	3.560
4.380	-18.893	3.561
4.371	-18.892	3.560
4.363	-18.896	3.558
4.360	-18.904	3.555
4.362	-18.913	3.552
4.369	-18.919	3.551
4.378	-18.920	3.552
4.349	-18.984	3.740
4.352	-18.976	3.744
4.350	-18.968	3.746
4.343	-18.962	3.747
4.334	-18.960	3.746
4.326	-18.964	3.743
4.323	-18.972	3.739
4.325	-18.981	3.737
4.332	-18.987	3.736
4.341	-18.988	3.737
4.412	-18.848	2.757
4.411	-18.840	2.762
4.410	-18.831	2.762
4.408	-18.824	2.756
4.408	-18.821	2.747
4.407	-18.825	2.738
4.408	-18.832	2.733
4.410	-18.841	2.734
4.411	-18.849	2.739
4.412	-18.851	2.748
3.635	-18.943	2.784
3.639	-18.943	2.792
3.638	-18.943	2.801
3.631	-18.943	2.808
3.622	-18.943	2.809
3.614	-18.943	2.805
3.610	-18.943	2.797
3.611	-18.943	2.788
3.618	-18.943	2.781
3.627	-18.943	2.780
4.413	-18.975	2.754
4.414	-18.971	2.762
4.415	-18.972	2.771
4.414	-18.978	2.778
4.412	-18.987	2.780
4.410	-18.995	2.777
4.408	-18.999	2.769
4.408	-18.998	2.760
4.408	-18.992	2.753
4.410	-18.983	2.750
5.244	-19.170	2.696
5.246	-19.165	2.703
5.246	-19.166	2.713
5.245	-19.171	2.720
5.242	-19.180	2.722
5.239	-19.188	2.719
5.237	-19.193	2.711
5.237	-19.192	2.702
5.239	-19.187	2.695
5.241	-19.178	2.692
5.302	-19.193	2.694
5.304	-19.188	2.702
5.304	-19.188	2.711
5.302	-19.194	2.719
5.298	-19.202	2.721
5.295	-19.210	2.718
5.293	-19.215	2.710
5.293	-19.215	2.701
5.295	-19.209	2.694
5.298	-19.201	2.691
4.405	-19.123	2.778
4.413	-19.120	2.776
4.422	-19.122	2.774
4.429	-19.129	2.774
4.430	-19.137	2.777
4.426	-19.145	2.780
4.418	-19.149	2.782
4.409	-19.147	2.784
4.402	-19.140	2.783
4.401	-19.131	2.781
4.222	-19.341	1.972
4.230	-19.338	1.969
4.239	-19.340	1.968
4.245	-19.346	1.968
4.246	-19.355	1.970
4.242	-19.363	1.973
4.234	-19.366	1.976
4.225	-19.365	1.977
4.219	-19.358	1.977
4.217	-19.349	1.975
4.433	-19.292	2.788
4.435	-19.283	2.788
4.433	-19.275	2.789
4.425	-19.269	2.791
4.416	-19.270	2.794
4.409	-19.275	2.795
4.406	-19.284	2.795
4.409	-19.293	2.794
4.417	-19.298	2.791
4.426	-19.298	2.789
4.632	-19.355	3.614
4.635	-19.346	3.614
4.632	-19.338	3.615
4.625	-19.332	3.617
4.616	-19.332	3.618
4.608	-19.337	3.619
4.605	-19.346	3.619
4.608	-19.355	3.618
4.615	-19.360	3.616
4.624	-19.360	3.614
4.638	-19.361	3.678
4.642	-19.353	3.678
4.639	-19.344	3.679
4.632	-19.338	3.681
4.623	-19.338	3.682
4.615	-19.343	3.682
4.612	-19.351	3.682
4.614	-19.360	3.681
4.621	-19.366	3.679
4.631	-19.366	3.678
4.425	-19.422	2.793
4.429	-19.419	2.801
4.432	-19.421	2.810
4.432	-19.428	2.816
4.431	-19.437	2.817
4.427	-19.444	2.813
4.424	-19.448	2.806
4.421	-19.446	2.797
4.420	-19.439	2.791
4.422	-19.430	2.789
5.223	-19.621	2.482
5.227	-19.618	2.490
5.229	-19.620	2.498
5.230	-19.627	2.504
5.228	-19.636	2.506
5.225	-19.643	2.502
5.221	-19.647	2.494
5.218	-19.645	2.486
5.218	-19.638	2.479
5.219	-19.629	2.478
4.440	-19.595	2.817
4.443	-19.588	2.820
4.443	-19.578	2.821
4.439	-19.571	2.818
4.432	-19.568	2.812
4.425	-19.571	2.806
4.422	-19.578	2.802
4.422	-19.587	2.802
4.426	-19.595	2.805
4.433	-19.598	2.811
3.974	-19.638	3.351
3.978	-19.630	3.355
3.978	-19.621	3.355
3.973	-19.614	3.352
3.967	-19.611	3.347
3.960	-19.613	3.341
3.956	-19.621	3.337
3.957	-19.630	3.336
3.961	-19.638	3.339
3.968	-19.641	3.345
4.428	-19.722	2.820
4.435	-19.719	2.815
4.443	-19.720	2.812
4.450	-19.727	2.811
4.452	-19.735	2.814
4.450	-19.743	2.819
4.443	-19.746	2.824
4.434	-19.744	2.827
4.428	-19.738	2.828
4.425	-19.730	2.825
4.103	-20.023	2.174
4.110	-20.019	2.169
4.118	-20.021	2.165
4.125	-20.027	2.165
4.128	-20.035	2.167
4.125	-20.043	2.172
4.118	-20.046	2.177
4.110	-20.045	2.181
4.103	-20.038	2.181
4.100	-20.030	2.179
4.454	-19.894	2.829
4.456	-19.887	2.835
4.454	-19.878	2.838
4.449	-19.871	2.836
4.441	-19.868	2.831
4.435	-19.871	2.824
4.433	-19.877	2.819
4.435	-19.886	2.816
4.441	-19.893	2.817
4.448	-19.896	2.822
3.927	-20.202	3.412
3.930	-20.195	3.417
3.928	-20.186	3.419
3.922	-20.179	3.418
3.914	-20.176	3.414
3.908	-20.179	3.408
3.905	-20.186	3.403
3.907	-20.195	3.400
3.913	-20.202	3.401
3.920	-20.205	3.406
3.893	-20.224	3.470
3.896	-20.217	3.475
3.894	-20.208	3.477
3.888	-20.201	3.476
3.880	-20.199	3.472
3.873	-20.202	3.467
3.870	-20.209	3.462
3.872	-20.218	3.460
3.878	-20.225	3.461
3.886	-20.227	3.465
4.442	-20.036	2.845
4.441	-20.027	2.844
4.443	-20.020	2.838
4.448	-20.017	2.831
4.454	-20.020	2.824
4.458	-20.028	2.821
4.460	-20.037	2.823
4.458	-20.044	2.829
4.453	-20.046	2.836
4.447	-20.043	2.842
3.821	-20.240	2.360
3.819	-20.231	2.358
3.821	-20.224	2.352
3.826	-20.222	2.345
3.832	-20.225	2.339
3.837	-20.232	2.336
3.838	-20.241	2.337
3.836	-20.248	2.343
3.831	-20.251	2.351
3.825	-20.248	2.357
1.271	-6.028	0.648
1.279	-6.026	0.653
1.285	-6.030	0.659
1.287	-6.037	0.664
1.284	-6.046	0.667
1.278	-6.052	0.665
1.270	-6.054	0.660
1.264	-6.051	0.654
1.262	-6.044	0.649
1.265	-6.035	0.647
1.737	-6.347	0.010
1.745	-6.346	0.015
1.750	-6.349	0.022
1.751	-6.356	0.028
1.747	-6.364	0.031
1.740	-6.370	0.030
1.732	-6.371	0.025
1.727	-6.368	0.018
1.726	-6.361	0.012
1.730	-6.353	0.009
2.207	-6.914	-0.488
2.214	-6.913	-0.483
2.218	-6.916	-0.475
2.217	-6.922	-0.468
2.212	-6.929	-0.464
2.204	-6.934	-0.466
2.197	-6.935	-0.471
2.193	-6.932	-0.479
2.194	-6.925	-0.486
2.199	-6.919	-0.490
2.448	-7.266	-0.725
2.455	-7.265	-0.719
2.459	-7.268	-0.711
2.458	-7.273	-0.704
2.452	-7.280	-0.700
2.444	-7.284	-0.702
2.437	-7.285	-0.707
2.433	-7.282	-0.715
2.434	-7.276	-0.723
2.440	-7.270	-0.726
4.465	-20.193	2.842
4.466	-20.187	2.849
4.463	-20.179	2.853
4.457	-20.172	2.851
4.451	-20.169	2.846
4.446	-20.170	2.838
4.445	-20.176	2.831
4.448	-20.184	2.827
4.454	-20.191	2.828
4.460	-20.195	2.834
3.956	-20.510	3.194
3.964	-20.506	3.194
3.973	-20.508	3.194
3.980	-20.514	3.194
3.981	-20.523	3.194
3.977	-20.532	3.194
3.969	-20.536	3.194
3.960	-20.534	3.194
3.953	-20.528	3.194
3.952	-20.519	3.194
4.459	-20.319	2.843
4.466	-20.317	2.849
4.471	-20.320	2.856
4.473	-20.327	2.861
4.471	-20.336	2.863
4.466	-20.343	2.860
4.459	-20.345	2.854
4.454	-20.342	2.847
4.452	-20.335	2.842
4.454	-20.326	2.840
4.910	-20.491	2.408
4.916	-20.488	2.414
4.922	-20.491	2.421
4.924	-20.499	2.426
4.922	-20.508	2.428
4.917	-20.515	2.425
4.910	-20.517	2.419
4.905	-20.514	2.412
4.903	-20.507	2.407
4.905	-20.498	2.405
4.458	-20.471	2.867
[...]
         <CellData>
           <DataArray type="Float32" Name="aerenchymaFormation" NumberOfComponents="1" format="ascii">
 5.333e-02 1.750e-02 0.000e+00 0.000e+00 5.295e-02 3.000e-02 2.500e-03 0.000e+00 0.000e+00 4.894e-02 2.000e-02 0.000e+00 0.000e+00 0.000e+00 0.000e+00 0.000e+00 0.000e+00 0.000e+00 0.000e+00 0.000e+00 0.000e+00 0.000e+00 0.000e+00 0.000e+00 0.000e+00 0.000e+00 0.000e+00 0.000e+00 4.800e-02 2.500e-03 0.000e+00 0.000e+00 0.000e+00 0.000e+00 0.000e+00 0.000e+00 0.000e+00 0.000e+00 0.000e+00 0.000e+00 0.000e+00 4.707e-02 1.750e-02 0.000e+00 0.000e+00 0.000e+00 0.000e+00 0.000e+00 0.000e+00 0.000e+00 0.000e+00 0.000e+00 0.000e+00 0.000e+00 0.000e+00 4.613e-02 1.000e-02 0.000e+00 0.000e+00 0.000e+00 0.000e+00 0.000e+00 0.000e+00 0.000e+00 0.000e+00 0.000e+00 0.000e+00 0.000e+00 0.000e+00 4.519e-02 1.500e-02 0.000e+00 0.000e+00 0.000e+00 0.000e+00 0.000e+00 4.425e-02 2.500e-03 0.000e+00 4.332e-02 7.500e-03 0.000e+00 0.000e+00 4.238e-02 0.000e+00 0.000e+00 4.144e-02 7.500e-03 0.000e+00 0.000e+00 4.050e-02 2.500e-03 0.000e+00 5.258e-02 2.750e-02 0.000e+00 0.000e+00 0.000e+00 3.957e-02 1.000e-02 0.000e+00 0.000e+00 3.863e-02 0.000e+00 0.000e+00 3.769e-02 2.500e-03 0.000e+00 0.000e+00 3.675e-02 7.500e-03 0.000e+00 0.000e+00 3.582e-02 2.500e-03 0.000e+00 0.000e+00 3.488e-02 0.000e+00 0.000e+00 3.394e-02 0.000e+00 0.000e+00 3.300e-02 0.000e+00 0.000e+00 3.207e-02 0.000e+00 0.000e+00 3.113e-02 0.000e+00 0.000e+00 0.000e+00 5.220e-02 1.000e-02 0.000e+00 3.019e-02 0.000e+00 0.000e+00 2.925e-02 0.000e+00 0.000e+00 0.000e+00 2.832e-02 0.000e+00 0.000e+00 2.738e-02 0.000e+00 0.000e+00 0.000e+00 2.644e-02 0.000e+00 0.000e+00 0.000e+00 2.550e-02 0.000e+00 0.000e+00 2.457e-02 0.000e+00 0.000e+00 2.363e-02 0.000e+00 0.000e+00 0.000e+00 2.269e-02 0.000e+00 0.000e+00 2.175e-02 0.000e+00 0.000e+00 5.183e-02 1.750e-02 0.000e+00 0.000e+00 2.082e-02 0.000e+00 0.000e+00 1.988e-02 0.000e+00 0.000e+00 0.000e+00 1.894e-02 0.000e+00 0.000e+00 1.800e-02 0.000e+00 0.000e+00 1.707e-02 0.000e+00 0.000e+00 1.613e-02 0.000e+00 0.000e+00 1.519e-02 0.000e+00 0.000e+00 1.425e-02 0.000e+00 0.000e+00 1.332e-02 0.000e+00 0.000e+00 1.238e-02 0.000e+00 0.000e+00 5.145e-02 1.000e-02 0.000e+00 1.144e-02 0.000e+00 0.000e+00 1.050e-02 0.000e+00 0.000e+00 9.566e-03 0.000e+00 8.629e-03 0.000e+00 0.000e+00 7.691e-03 0.000e+00 0.000e+00 6.754e-03 0.000e+00 0.000e+00 5.816e-03 0.000e+00 0.000e+00 4.879e-03 0.000e+00 0.000e+00 3.941e-03 0.000e+00 0.000e+00 3.004e-03 0.000e+00 0.000e+00 5.108e-02 1.500e-02 0.000e+00 0.000e+00 2.066e-03 0.000e+00 0.000e+00 1.129e-03 0.000e+00 0.000e+00 1.910e-04 0.000e+00 0.000e+00 0.000e+00 0.000e+00 0.000e+00 0.000e+00 0.000e+00 0.000e+00 0.000e+00 0.000e+00 0.000e+00 0.000e+00 0.000e+00 0.000e+00 0.000e+00 0.000e+00 0.000e+00 0.000e+00 0.000e+00 5.070e-02 1.750e-02 0.000e+00 0.000e+00 0.000e+00 0.000e+00 0.000e+00 0.000e+00 0.000e+00 0.000e+00 0.000e+00 0.000e+00 0.000e+00 0.000e+00 0.000e+00 0.000e+00 0.000e+00 0.000e+00 0.000e+00 0.000e+00 0.000e+00 0.000e+00 0.000e+00 0.000e+00 5.033e-02 1.250e-02 0.000e+00 0.000e+00 0.000e+00 0.000e+00 0.000e+00 0.000e+00 0.000e+00 0.000e+00 0.000e+00 0.000e+00 0.000e+00 0.000e+00 0.000e+00 0.000e+00 0.000e+00 0.000e+00 0.000e+00 0.000e+00 0.000e+00 0.000e+00 0.000e+00 0.000e+00 4.988e-02 1.750e-02 0.000e+00 0.000e+00 0.000e+00 0.000e+00 0.000e+00 0.000e+00 0.000e+00 0.000e+00 0.000e+00 0.000e+00 0.000e+00 0.000e+00 0.000e+00 0.000e+00 0.000e+00 0.000e+00 0.000e+00 0.000e+00 0.000e+00 8.833e-02 7.800e-02 7.300e-02 7.000e-02 6.700e-02 6.500e-02 6.300e-02 6.100e-02 5.900e-02 5.700e-02 5.500e-02 5.300e-02 5.100e-02 4.750e-02 4.250e-02 3.750e-02 3.250e-02 2.750e-02 2.250e-02 1.750e-02 1.250e-02 7.500e-03 2.500e-03 0.000e+00 0.000e+00 0.000e+00 0.000e+00 0.000e+00 0.000e+00 0.000e+00 0.000e+00 0.000e+00 0.000e+00 0.000e+00 0.000e+00 0.000e+00 0.000e+00 0.000e+00 5.333e-02 2.250e-02 0.000e+00 0.000e+00 5.295e-02 2.750e-02 0.000e+00 0.000e+00 0.000e+00 4.894e-02 1.750e-02 0.000e+00 0.000e+00 0.000e+00 0.000e+00 0.000e+00 0.000e+00 0.000e+00 0.000e+00 0.000e+00 0.000e+00 0.000e+00 0.000e+00 0.000e+00 0.000e+00 0.000e+00 4.800e-02 1.000e-02 0.000e+00 0.000e+00 0.000e+00 0.000e+00 0.000e+00 0.000e+00 0.000e+00 0.000e+00 0.000e+00 0.000e+00 0.000e+00 0.000e+00 4.707e-02 1.500e-02 0.000e+00 0.000e+00 0.000e+00 0.000e+00 0.000e+00 0.000e+00 0.000e+00 0.000e+00 0.000e+00 0.000e+00 0.000e+00 0.000e+00 4.613e-02 1.500e-02 0.000e+00 0.000e+00 0.000e+00 0.000e+00 0.000e+00 0.000e+00 0.000e+00 0.000e+00 0.000e+00 0.000e+00 0.000e+00 0.000e+00 4.519e-02 7.500e-03 0.000e+00 0.000e+00 0.000e+00 0.000e+00 0.000e+00 4.425e-02 1.500e-02 0.000e+00 0.000e+00 0.000e+00 4.332e-02 1.000e-02 0.000e+00 0.000e+00 4.238e-02 1.250e-02 0.000e+00 0.000e+00 4.144e-02 5.000e-03 0.000e+00 0.000e+00 4.050e-02 0.000e+00 0.000e+00 5.258e-02 2.000e-02 0.000e+00 0.000e+00 3.957e-02 2.500e-03 0.000e+00 3.863e-02 1.000e-02 0.000e+00 0.000e+00 3.769e-02 2.500e-03 0.000e+00 0.000e+00 3.675e-02 0.000e+00 0.000e+00 3.582e-02 0.000e+00 0.000e+00 0.000e+00 3.488e-02 0.000e+00 0.000e+00 3.394e-02 2.500e-03 0.000e+00 0.000e+00 3.300e-02 2.500e-03 0.000e+00 0.000e+00 3.207e-02 0.000e+00 0.000e+00 0.000e+00 3.113e-02 0.000e+00 0.000e+00 5.220e-02 2.500e-02 0.000e+00 0.000e+00 0.000e+00 3.019e-02 0.000e+00 0.000e+00 0.000e+00 2.925e-02 0.000e+00 0.000e+00 2.832e-02 0.000e+00 0.000e+00 2.738e-02 0.000e+00 0.000e+00 2.644e-02 0.000e+00 0.000e+00 2.550e-02 0.000e+00 0.000e+00 0.000e+00 2.457e-02 0.000e+00 0.000e+00 0.000e+00 2.363e-02 0.000e+00 0.000e+00 0.000e+00 2.269e-02 0.000e+00 0.000e+00 2.175e-02 0.000e+00 0.000e+00 5.183e-02 2.000e-02 0.000e+00 0.000e+00 2.082e-02 0.000e+00 0.000e+00 1.988e-02 0.000e+00 0.000e+00 1.894e-02 0.000e+00 0.000e+00 0.000e+00 1.800e-02 0.000e+00 0.000e+00 1.707e-02 0.000e+00 0.000e+00 1.613e-02 0.000e+00 0.000e+00 1.519e-02 0.000e+00 0.000e+00 1.425e-02 0.000e+00 0.000e+00 1.332e-02 0.000e+00 0.000e+00 1.238e-02 0.000e+00 0.000e+00 5.145e-02 2.000e-02 0.000e+00 0.000e+00 1.144e-02 0.000e+00 0.000e+00 1.050e-02 0.000e+00 0.000e+00 9.566e-03 0.000e+00 0.000e+00 8.629e-03 0.000e+00 0.000e+00 7.691e-03 0.000e+00 0.000e+00 6.754e-03 0.000e+00 0.000e+00 5.816e-03 0.000e+00 4.879e-03 0.000e+00 0.000e+00 3.941e-03 0.000e+00 0.000e+00 3.004e-03 0.000e+00 5.108e-02 1.750e-02 0.000e+00 0.000e+00 2.066e-03 0.000e+00 0.000e+00 1.129e-03 0.000e+00 1.910e-04 0.000e+00 0.000e+00 0.000e+00 0.000e+00 0.000e+00 0.000e+00 0.000e+00 0.000e+00 0.000e+00 0.000e+00 0.000e+00 0.000e+00 0.000e+00 0.000e+00 0.000e+00 0.000e+00 0.000e+00 0.000e+00 0.000e+00 5.070e-02 2.250e-02 0.000e+00 0.000e+00 0.000e+00 0.000e+00 0.000e+00 0.000e+00 0.000e+00 0.000e+00 0.000e+00 0.000e+00 0.000e+00 0.000e+00 0.000e+00 0.000e+00 0.000e+00 0.000e+00 0.000e+00 0.000e+00 0.000e+00 0.000e+00 0.000e+00 0.000e+00 0.000e+00 0.000e+00 0.000e+00 0.000e+00 5.033e-02 1.500e-02 0.000e+00 0.000e+00 0.000e+00 0.000e+00 0.000e+00 0.000e+00 0.000e+00 0.000e+00 0.000e+00 0.000e+00 0.000e+00 0.000e+00 0.000e+00 0.000e+00 0.000e+00 0.000e+00 0.000e+00 0.000e+00 0.000e+00 0.000e+00 0.000e+00 0.000e+00 4.988e-02 2.500e-03 0.000e+00 0.000e+00 0.000e+00 0.000e+00 0.000e+00 0.000e+00 0.000e+00 0.000e+00 0.000e+00 0.000e+00 0.000e+00 0.000e+00 0.000e+00 0.000e+00 0.000e+00 0.000e+00 0.000e+00 0.000e+00 0.000e+00 0.000e+00 0.000e+00 8.833e-02 7.800e-02 7.300e-02 7.000e-02 6.700e-02 6.500e-02 6.300e-02 6.100e-02 5.900e-02 5.700e-02 5.500e-02 5.300e-02 5.100e-02 4.750e-02 4.250e-02 3.750e-02 3.250e-02 2.750e-02 2.250e-02 1.750e-02 1.250e-02 7.500e-03 2.500e-03 0.000e+00 0.000e+00 0.000e+00 0.000e+00 0.000e+00 0.000e+00 0.000e+00 0.000e+00 0.000e+00 0.000e+00 0.000e+00 0.000e+00 0.000e+00 0.000e+00 0.000e+00 5.333e-02 2.000e-02 0.000e+00 0.000e+00 5.295e-02 3.000e-02 2.500e-03 0.000e+00 0.000e+00 4.894e-02 1.500e-02 0.000e+00 0.000e+00 0.000e+00 0.000e+00 0.000e+00 0.000e+00 0.000e+00 0.000e+00 0.000e+00 0.000e+00 0.000e+00 0.000e+00 0.000e+00 0.000e+00 0.000e+00 4.800e-02 0.000e+00 0.000e+00 0.000e+00 0.000e+00 0.000e+00 0.000e+00 0.000e+00 0.000e+00 0.000e+00 0.000e+00 0.000e+00 0.000e+00 4.707e-02 1.250e-02 0.000e+00 0.000e+00 0.000e+00 0.000e+00 0.000e+00 0.000e+00 0.000e+00 0.000e+00 0.000e+00 0.000e+00 0.000e+00 0.000e+00 4.613e-02 1.500e-02 0.000e+00 0.000e+00 0.000e+00 0.000e+00 0.000e+00 0.000e+00 0.000e+00 0.000e+00 0.000e+00 0.000e+00 0.000e+00 0.000e+00 4.519e-02 5.000e-03 0.000e+00 0.000e+00 0.000e+00 0.000e+00 4.425e-02 1.000e-02 0.000e+00 0.000e+00 4.332e-02 5.000e-03 0.000e+00 4.238e-02 5.000e-03 0.000e+00 0.000e+00 4.144e-02 7.500e-03 0.000e+00 0.000e+00 4.050e-02 5.000e-03 0.000e+00 0.000e+00 5.258e-02 2.250e-02 0.000e+00 0.000e+00 3.957e-02 7.500e-03 0.000e+00 0.000e+00 3.863e-02 1.000e-02 0.000e+00 0.000e+00 3.769e-02 7.500e-03 0.000e+00 0.000e+00 3.675e-02 2.500e-03 0.000e+00 0.000e+00 3.582e-02 2.500e-03 0.000e+00 0.000e+00 3.488e-02 0.000e+00 0.000e+00 3.394e-02 0.000e+00 0.000e+00 0.000e+00 3.300e-02 0.000e+00 0.000e+00 3.207e-02 0.000e+00 0.000e+00 0.000e+00 3.113e-02 0.000e+00 0.000e+00 0.000e+00 5.220e-02 2.500e-02 0.000e+00 0.000e+00 3.019e-02 0.000e+00 0.000e+00 0.000e+00 2.925e-02 0.000e+00 0.000e+00 0.000e+00 2.832e-02 0.000e+00 0.000e+00 2.738e-02 0.000e+00 0.000e+00 0.000e+00 2.644e-02 0.000e+00 0.000e+00 0.000e+00 2.550e-02 0.000e+00 0.000e+00 2.457e-02 0.000e+00 0.000e+00 2.363e-02 0.000e+00 0.000e+00 2.269e-02 0.000e+00 0.000e+00 2.175e-02 0.000e+00 0.000e+00 5.183e-02 2.250e-02 0.000e+00 0.000e+00 2.082e-02 0.000e+00 0.000e+00 1.988e-02 0.000e+00 0.000e+00 1.894e-02 0.000e+00 0.000e+00 1.800e-02 0.000e+00 0.000e+00 1.707e-02 0.000e+00 0.000e+00 1.613e-02 0.000e+00 0.000e+00 1.519e-02 0.000e+00 0.000e+00 1.425e-02 0.000e+00 0.000e+00 1.332e-02 0.000e+00 0.000e+00 1.238e-02 0.000e+00 0.000e+00 5.145e-02 2.000e-02 0.000e+00 0.000e+00 1.144e-02 0.000e+00 0.000e+00 1.050e-02 0.000e+00 0.000e+00 9.566e-03 0.000e+00 0.000e+00 8.629e-03 0.000e+00 0.000e+00 7.691e-03 0.000e+00 6.754e-03 0.000e+00 0.000e+00 5.816e-03 0.000e+00 0.000e+00 4.879e-03 0.000e+00 0.000e+00 3.941e-03 0.000e+00 0.000e+00 3.004e-03 0.000e+00 5.108e-02 1.500e-02 0.000e+00 0.000e+00 2.066e-03 0.000e+00 0.000e+00 1.129e-03 0.000e+00 0.000e+00 1.910e-04 0.000e+00 0.000e+00 0.000e+00 0.000e+00 0.000e+00 0.000e+00 0.000e+00 0.000e+00 0.000e+00 0.000e+00 0.000e+00 0.000e+00 0.000e+00 0.000e+00 0.000e+00 0.000e+00 0.000e+00 5.070e-02 2.000e-02 0.000e+00 0.000e+00 0.000e+00 0.000e+00 0.000e+00 0.000e+00 0.000e+00 0.000e+00 0.000e+00 0.000e+00 0.000e+00 0.000e+00 0.000e+00 0.000e+00 0.000e+00 0.000e+00 0.000e+00 0.000e+00 0.000e+00 0.000e+00 0.000e+00 0.000e+00 0.000e+00 0.000e+00 5.033e-02 1.750e-02 0.000e+00 0.000e+00 0.000e+00 0.000e+00 0.000e+00 0.000e+00 0.000e+00 0.000e+00 0.000e+00 0.000e+00 0.000e+00 0.000e+00 0.000e+00 0.000e+00 0.000e+00 0.000e+00 0.000e+00 0.000e+00 0.000e+00 0.000e+00 0.000e+00 0.000e+00 4.988e-02 1.750e-02 0.000e+00 0.000e+00 0.000e+00 0.000e+00 0.000e+00 0.000e+00 0.000e+00 0.000e+00 0.000e+00 0.000e+00 0.000e+00 0.000e+00 0.000e+00 0.000e+00 0.000e+00 0.000e+00 0.000e+00 0.000e+00 0.000e+00 0.000e+00 0.000e+00 8.833e-02 7.800e-02 7.300e-02 7.000e-02 6.700e-02 6.500e-02 6.300e-02 6.100e-02 5.900e-02 5.700e-02 5.500e-02 5.300e-02 5.100e-02 4.750e-02 4.250e-02 3.750e-02 3.250e-02 2.750e-02 2.250e-02 1.750e-02 1.250e-02 7.500e-03 2.500e-03 0.000e+00 0.000e+00 0.000e+00 0.000e+00 0.000e+00 0.000e+00 0.000e+00 0.000e+00 0.000e+00 0.000e+00 0.000e+00 0.000e+00 0.000e+00 0.000e+00 0.000e+00 5.333e-02 2.500e-02 0.000e+00 0.000e+00 5.295e-02 2.000e-02 0.000e+00 0.000e+00 4.894e-02 1.500e-02 0.000e+00 0.000e+00 0.000e+00 0.000e+00 0.000e+00 0.000e+00 0.000e+00 0.000e+00 0.000e+00 0.000e+00 0.000e+00 0.000e+00 0.000e+00 4.800e-02 1.000e-02 0.000e+00 0.000e+00 0.000e+00 0.000e+00 0.000e+00 0.000e+00 0.000e+00 0.000e+00 0.000e+00 0.000e+00 0.000e+00 0.000e+00 4.707e-02 1.500e-02 0.000e+00 0.000e+00 0.000e+00 0.000e+00 0.000e+00 0.000e+00 0.000e+00 0.000e+00 0.000e+00 0.000e+00 0.000e+00 0.000e+00 4.613e-02 7.500e-03 0.000e+00 0.000e+00 0.000e+00 0.000e+00 0.000e+00 0.000e+00 0.000e+00 0.000e+00 0.000e+00 0.000e+00 0.000e+00 0.000e+00 4.519e-02 1.500e-02 0.000e+00 0.000e+00 0.000e+00 0.000e+00 0.000e+00 4.425e-02 1.500e-02 0.000e+00 0.000e+00 0.000e+00 4.332e-02 7.500e-03 0.000e+00 0.000e+00 4.238e-02 0.000e+00 0.000e+00 4.144e-02 1.000e-02 0.000e+00 0.000e+00 4.050e-02 5.000e-03 0.000e+00 0.000e+00 5.258e-02 2.250e-02 0.000e+00 0.000e+00 3.957e-02 5.000e-03 0.000e+00 0.000e+00 3.863e-02 5.000e-03 0.000e+00 0.000e+00 3.769e-02 0.000e+00 0.000e+00 3.675e-02 0.000e+00 0.000e+00 0.000e+00 3.582e-02 0.000e+00 0.000e+00 3.488e-02 5.000e-03 0.000e+00 0.000e+00 3.394e-02 0.000e+00 0.000e+00 0.000e+00 3.300e-02 2.500e-03 0.000e+00 0.000e+00 3.207e-02 0.000e+00 0.000e+00 3.113e-02 0.000e+00 0.000e+00 0.000e+00 5.220e-02 1.750e-02 0.000e+00 0.000e+00 3.019e-02 2.500e-03 0.000e+00 0.000e+00 2.925e-02 0.000e+00 0.000e+00 2.832e-02 0.000e+00 0.000e+00 2.738e-02 0.000e+00 0.000e+00 2.644e-02 0.000e+00 0.000e+00 0.000e+00 2.550e-02 0.000e+00 0.000e+00 2.457e-02 0.000e+00 0.000e+00 2.363e-02 0.000e+00 0.000e+00 0.000e+00 2.269e-02 0.000e+00 0.000e+00 0.000e+00 2.175e-02 0.000e+00 0.000e+00 0.000e+00 5.183e-02 1.750e-02 0.000e+00 0.000e+00 2.082e-02 0.000e+00 0.000e+00 1.988e-02 0.000e+00 0.000e+00 1.894e-02 0.000e+00 0.000e+00 1.800e-02 0.000e+00 0.000e+00 1.707e-02 0.000e+00 0.000e+00 1.613e-02 0.000e+00 0.000e+00 1.519e-02 0.000e+00 0.000e+00 1.425e-02 0.000e+00 0.000e+00 1.332e-02 0.000e+00 0.000e+00 1.238e-02 0.000e+00 0.000e+00 5.145e-02 1.000e-02 0.000e+00 1.144e-02 0.000e+00 0.000e+00 1.050e-02 0.000e+00 0.000e+00 9.566e-03 0.000e+00 0.000e+00 8.629e-03 0.000e+00 0.000e+00 7.691e-03 0.000e+00 0.000e+00 6.754e-03 0.000e+00 0.000e+00 5.816e-03 0.000e+00 0.000e+00 4.879e-03 0.000e+00 0.000e+00 3.941e-03 0.000e+00 0.000e+00 3.004e-03 0.000e+00 0.000e+00 5.108e-02 1.500e-02 0.000e+00 0.000e+00 2.066e-03 0.000e+00 0.000e+00 1.129e-03 0.000e+00 0.000e+00 1.910e-04 0.000e+00 0.000e+00 0.000e+00 0.000e+00 0.000e+00 0.000e+00 0.000e+00 0.000e+00 0.000e+00 0.000e+00 0.000e+00 0.000e+00 0.000e+00 0.000e+00 0.000e+00 0.000e+00 0.000e+00 0.000e+00 0.000e+00 0.000e+00 0.000e+00 0.000e+00 5.070e-02 2.000e-02 0.000e+00 0.000e+00 0.000e+00 0.000e+00 0.000e+00 0.000e+00 0.000e+00 0.000e+00 0.000e+00 0.000e+00 0.000e+00 0.000e+00 0.000e+00 0.000e+00 0.000e+00 0.000e+00 0.000e+00 0.000e+00 0.000e+00 0.000e+00 0.000e+00 0.000e+00 0.000e+00 5.033e-02 7.500e-03 0.000e+00 0.000e+00 0.000e+00 0.000e+00 0.000e+00 0.000e+00 0.000e+00 0.000e+00 0.000e+00 0.000e+00 0.000e+00 0.000e+00 0.000e+00 0.000e+00 0.000e+00 0.000e+00 0.000e+00 0.000e+00 0.000e+00 0.000e+00 0.000e+00 0.000e+00 4.988e-02 2.500e-03 0.000e+00 0.000e+00 0.000e+00 0.000e+00 0.000e+00 0.000e+00 0.000e+00 0.000e+00 0.000e+00 0.000e+00 0.000e+00 0.000e+00 0.000e+00 0.000e+00 0.000e+00 0.000e+00 0.000e+00 0.000e+00 0.000e+00 0.000e+00 8.833e-02 7.800e-02 7.300e-02 7.000e-02 6.700e-02 6.500e-02 6.300e-02 6.100e-02 5.900e-02 5.700e-02 5.500e-02 5.300e-02 5.100e-02 4.750e-02 4.250e-02 3.750e-02 3.250e-02 2.750e-02 2.250e-02 1.750e-02 1.250e-02 7.500e-03 2.500e-03 0.000e+00 0.000e+00 0.000e+00 0.000e+00 0.000e+00 0.000e+00 0.000e+00 0.000e+00 0.000e+00 0.000e+00 0.000e+00 0.000e+00 0.000e+00 0.000e+00 0.000e+00 0.000e+00 0.000e+00 0.000e+00 0.000e+00 0.000e+00 0.000e+00 0.000e+00 0.000e+00 0.000e+00 0.000e+00 0.000e+00 0.000e+00 0.000e+00 0.000e+00 0.000e+00 0.000e+00 0.000e+00 0.000e+00 0.000e+00 0.000e+00 0.000e+00 0.000e+00 0.000e+00 0.000e+00 0.000e+00 0.000e+00 0.000e+00 0.000e+00 0.000e+00 0.000e+00 0.000e+00 0.000e+00 0.000e+00 0.000e+00 0.000e+00 0.000e+00 0.000e+00 0.000e+00 0.000e+00 0.000e+00 0.000e+00 0.000e+00 0.000e+00 0.000e+00 0.000e+00 0.000e+00 0.000e+00 0.000e+00 0.000e+00 0.000e+00 0.000e+00 0.000e+00 0.000e+00 0.000e+00 0.000e+00 0.000e+00 0.000e+00 0.000e+00 0.000e+00 0.000e+00 0.000e+00 0.000e+00 0.000e+00 0.000e+00 0.000e+00 0.000e+00 0.000e+00 0.000e+00 0.000e+00 0.000e+00 0.000e+00 0.000e+00 0.000e+00 0.000e+00 0.000e+00 0.000e+00 0.000e+00 0.000e+00 0.000e+00 0.000e+00 0.000e+00 0.000e+00 0.000e+00 0.000e+00 0.000e+00 0.000e+00 0.000e+00 0.000e+00 0.000e+00 0.000e+00 0.000e+00 0.000e+00 0.000e+00 0.000e+00 0.000e+00 0.000e+00 0.000e+00 0.000e+00 0.000e+00 0.000e+00 0.000e+00 0.000e+00 0.000e+00 0.000e+00 0.000e+00 0.000e+00 0.000e+00 0.000e+00 0.000e+00 0.000e+00 0.000e+00 0.000e+00 6.750e-02 5.700e-02 5.200e-02 4.750e-02 4.000e-02 3.500e-02 3.000e-02 2.500e-02 2.000e-02 1.500e-02 1.000e-02 5.000e-03 0.000e+00 0.000e+00 0.000e+00 0.000e+00 0.000e+00 0.000e+00 0.000e+00 0.000e+00 0.000e+00 0.000e+00 0.000e+00 0.000e+00 0.000e+00 0.000e+00 0.000e+00 0.000e+00 0.000e+00 0.000e+00 0.000e+00 0.000e+00 0.000e+00 0.000e+00 0.000e+00 0.000e+00 0.000e+00 0.000e+00 0.000e+00 0.000e+00 0.000e+00 0.000e+00 0.000e+00 0.000e+00 0.000e+00 0.000e+00 0.000e+00 0.000e+00 0.000e+00 0.000e+00 0.000e+00 0.000e+00 0.000e+00 0.000e+00 0.000e+00 0.000e+00 0.000e+00 0.000e+00 0.000e+00 0.000e+00 0.000e+00 0.000e+00 0.000e+00 0.000e+00 0.000e+00 0.000e+00 0.000e+00 0.000e+00 0.000e+00 0.000e+00 0.000e+00 0.000e+00 0.000e+00 0.000e+00 0.000e+00 0.000e+00 0.000e+00 0.000e+00 0.000e+00 0.000e+00 0.000e+00 0.000e+00 0.000e+00 0.000e+00 0.000e+00 0.000e+00 0.000e+00 0.000e+00 0.000e+00 0.000e+00 0.000e+00 0.000e+00 0.000e+00 0.000e+00 0.000e+00 0.000e+00 0.000e+00 0.000e+00 0.000e+00 0.000e+00 0.000e+00 0.000e+00 0.000e+00 0.000e+00 0.000e+00 0.000e+00 0.000e+00 0.000e+00 0.000e+00 0.000e+00 0.000e+00 0.000e+00 0.000e+00 0.000e+00 0.000e+00 0.000e+00 0.000e+00 0.000e+00 0.000e+00 0.000e+00 0.000e+00 0.000e+00 0.000e+00 0.000e+00 0.000e+00 0.000e+00 0.000e+00 0.000e+00 0.000e+00 0.000e+00 0.000e+00 0.000e+00 0.000e+00 0.000e+00 0.000e+00 0.000e+00 6.750e-02 5.700e-02 5.200e-02 4.750e-02 4.000e-02 3.500e-02 3.000e-02 2.500e-02 2.000e-02 1.500e-02 1.000e-02 5.000e-03 0.000e+00 0.000e+00 0.000e+00 0.000e+00 0.000e+00 0.000e+00 0.000e+00 0.000e+00 0.000e+00 0.000e+00 0.000e+00 0.000e+00 0.000e+00 0.000e+00 0.000e+00 0.000e+00 0.000e+00 0.000e+00 0.000e+00 0.000e+00 0.000e+00 0.000e+00 0.000e+00 0.000e+00 0.000e+00 0.000e+00 0.000e+00 0.000e+00 0.000e+00 0.000e+00 0.000e+00 0.000e+00 0.000e+00 0.000e+00 0.000e+00 0.000e+00 0.000e+00 0.000e+00 0.000e+00 0.000e+00 0.000e+00 0.000e+00 0.000e+00 0.000e+00 0.000e+00 0.000e+00 0.000e+00 0.000e+00 0.000e+00 0.000e+00 0.000e+00 0.000e+00 0.000e+00 0.000e+00 0.000e+00 0.000e+00 0.000e+00 0.000e+00 0.000e+00 0.000e+00 0.000e+00 0.000e+00 0.000e+00 0.000e+00 0.000e+00 0.000e+00 0.000e+00 0.000e+00 0.000e+00 0.000e+00 0.000e+00 0.000e+00 0.000e+00 0.000e+00 0.000e+00 0.000e+00 0.000e+00 0.000e+00 0.000e+00 0.000e+00 0.000e+00 0.000e+00 0.000e+00 0.000e+00 0.000e+00 0.000e+00 0.000e+00 0.000e+00 0.000e+00 0.000e+00 0.000e+00 0.000e+00 0.000e+00 0.000e+00 0.000e+00 0.000e+00 0.000e+00 0.000e+00 0.000e+00 0.000e+00 0.000e+00 0.000e+00 0.000e+00 0.000e+00 0.000e+00 0.000e+00 0.000e+00 0.000e+00 0.000e+00 0.000e+00 0.000e+00 0.000e+00 0.000e+00 0.000e+00 0.000e+00 0.000e+00 0.000e+00 0.000e+00 0.000e+00 0.000e+00 0.000e+00 0.000e+00 0.000e+00 0.000e+00 0.000e+00 6.750e-02 5.700e-02 5.200e-02 4.750e-02 4.000e-02 3.500e-02 3.000e-02 2.500e-02 2.000e-02 1.500e-02 1.000e-02 5.000e-03 0.000e+00 0.000e+00 0.000e+00 0.000e+00 0.000e+00 0.000e+00 0.000e+00 0.000e+00 0.000e+00 0.000e+00 0.000e+00 0.000e+00 0.000e+00 0.000e+00 0.000e+00 0.000e+00 0.000e+00 0.000e+00 0.000e+00 0.000e+00 0.000e+00 0.000e+00 0.000e+00 0.000e+00 0.000e+00 0.000e+00 0.000e+00 0.000e+00 0.000e+00 0.000e+00 0.000e+00 0.000e+00 0.000e+00 0.000e+00 0.000e+00 0.000e+00 0.000e+00 0.000e+00 0.000e+00 0.000e+00 0.000e+00 0.000e+00 0.000e+00 0.000e+00 0.000e+00 0.000e+00 0.000e+00 0.000e+00 0.000e+00 0.000e+00 0.000e+00 0.000e+00 0.000e+00 0.000e+00 0.000e+00 0.000e+00 0.000e+00 0.000e+00 0.000e+00 0.000e+00 0.000e+00 0.000e+00 0.000e+00 0.000e+00 0.000e+00 0.000e+00 0.000e+00 0.000e+00 0.000e+00 0.000e+00 0.000e+00 0.000e+00 0.000e+00 0.000e+00 0.000e+00 0.000e