<?xml version="1.0"?>
<VTKFile type="UnstructuredGrid" version="0.1" byte_order="LittleEndian">
   <UnstructuredGrid>
      <Piece NumberOfPoints="1460" NumberOfCells="97">
         <Points>
            <DataArray type="Float32" Name="Position" NumberOfComponents="3" format="ascii">
0.020	-4.982	-0.027
0.021	-4.966	-0.013
0.015	-4.960	0.006
0.004	-4.965	0.023
-0.009	-4.980	0.031
-0.018	-4.998	0.027
-0.020	-5.014	0.013
-0.014	-5.020	-0.006
-0.002	-5.015	-0.023
0.010	-5.001	-0.031
0.639	-5.352	0.298
0.643	-5.338	0.313
0.638	-5.332	0.332
0.626	-5.336	0.349
0.611	-5.350	0.356
0.600	-5.367	0.352
0.597	-5.381	0.337
0.602	-5.387	0.317
0.614	-5.383	0.301
0.628	-5.370	0.293
1.224	-5.945	0.595
1.230	-5.933	0.611
1.226	-5.928	0.631
1.214	-5.932	0.648
1.197	-5.943	0.654
1.183	-5.957	0.648
1.177	-5.970	0.632
1.181	-5.975	0.612
1.193	-5.971	0.596
1.210	-5.960	0.590
1.616	-6.475	0.786
1.624	-6.464	0.802
1.620	-6.459	0.822
1.607	-6.463	0.839
1.590	-6.473	0.845
1.575	-6.487	0.839
1.568	-6.498	0.822
1.572	-6.502	0.802
1.584	-6.499	0.786
1.601	-6.488	0.780
-0.005	-4.964	-0.021
0.014	-4.962	-0.012
0.028	-4.970	0.001
0.032	-4.987	0.014
0.023	-5.004	0.021
0.006	-5.016	0.021
-0.013	-5.018	0.013
-0.027	-5.010	-0.000
-0.031	-4.993	-0.013
-0.022	-4.976	-0.021
0.299	-5.375	-0.620
0.318	-5.374	-0.610
0.329	-5.383	-0.595
0.330	-5.398	-0.580
0.318	-5.413	-0.572
0.299	-5.423	-0.572
0.281	-5.423	-0.581
0.269	-5.414	-0.596
0.269	-5.400	-0.611
0.280	-5.384	-0.620
0.575	-6.062	-1.111
0.593	-6.064	-1.100
0.601	-6.072	-1.083
0.597	-6.085	-1.066
0.581	-6.096	-1.056
0.561	-6.101	-1.058
0.544	-6.099	-1.069
0.535	-6.090	-1.086
0.540	-6.078	-1.103
0.555	-6.067	-1.112
0.714	-6.640	-1.458
0.731	-6.642	-1.446
0.739	-6.651	-1.428
0.733	-6.663	-1.411
0.717	-6.672	-1.402
0.697	-6.676	-1.403
0.679	-6.673	-1.415
0.672	-6.665	-1.433
0.677	-6.653	-1.449
0.694	-6.644	-1.459
-0.009	-5.008	0.028
-0.018	-4.989	0.029
-0.020	-4.971	0.019
-0.014	-4.960	0.002
-0.003	-4.960	-0.016
0.010	-4.972	-0.027
0.019	-4.991	-0.028
0.021	-5.009	-0.018
0.016	-5.020	-0.001
0.004	-5.020	0.016
-0.629	-5.287	-0.370
-0.640	-5.269	-0.372
-0.643	-5.253	-0.385
-0.638	-5.245	-0.403
-0.626	-5.247	-0.421
-0.612	-5.260	-0.430
-0.601	-5.278	-0.427
-0.598	-5.294	-0.414
-0.603	-5.302	-0.396
-0.615	-5.300	-0.379
-1.221	-5.850	-0.690
-1.236	-5.836	-0.689
-1.246	-5.821	-0.699
-1.247	-5.811	-0.718
-1.239	-5.809	-0.737
-1.224	-5.817	-0.749
-1.209	-5.831	-0.751
-1.198	-5.846	-0.740
-1.197	-5.857	-0.722
-1.206	-5.858	-0.703
-1.618	-6.347	-0.946
-1.624	-6.351	-0.926
-1.638	-6.346	-0.911
-1.654	-6.334	-0.907
-1.667	-6.319	-0.915
-1.671	-6.308	-0.932
-1.666	-6.304	-0.952
-1.652	-6.309	-0.967
-1.635	-6.322	-0.971
-1.622	-6.336	-0.963
0.024	-5.015	0.001
0.032	-4.998	0.012
0.027	-4.978	0.018
0.013	-4.963	0.017
-0.006	-4.958	0.010
-0.023	-4.966	-0.001
-0.031	-4.982	-0.011
-0.026	-5.002	-0.017
-0.012	-5.017	-0.016
0.008	-5.022	-0.009
-0.290	-5.288	0.670
-0.283	-5.272	0.682
-0.289	-5.254	0.690
-0.305	-5.240	0.692
-0.324	-5.236	0.686
-0.341	-5.243	0.675
-0.347	-5.259	0.663
-0.342	-5.277	0.654
-0.326	-5.291	0.653
-0.306	-5.295	0.659
-0.543	-5.806	1.329
-0.538	-5.792	1.344
-0.544	-5.776	1.356
-0.561	-5.764	1.361
-0.581	-5.761	1.356
-0.597	-5.767	1.344
-0.603	-5.781	1.329
-0.596	-5.797	1.317
-0.580	-5.809	1.312
-0.559	-5.812	1.317
-0.772	-6.277	1.806
-0.753	-6.277	1.815
-0.732	-6.277	1.812
-0.718	-6.277	1.797
-0.714	-6.277	1.776
-0.724	-6.277	1.758
-0.742	-6.277	1.748
-0.763	-6.277	1.751
-0.778	-6.277	1.766
-0.781	-6.277	1.787
-0.150	-4.997	0.147
-0.035	-5.001	0.207
0.094	-5.004	0.188
0.186	-5.005	0.097
0.208	-5.005	-0.031
0.150	-5.003	-0.147
0.035	-4.999	-0.207
-0.094	-4.996	-0.188
-0.186	-4.995	-0.097
-0.208	-4.995	0.031
-0.129	-4.249	0.152
-0.015	-4.251	0.211
0.113	-4.253	0.192
0.204	-4.253	0.101
0.225	-4.253	-0.026
0.167	-4.252	-0.140
0.053	-4.250	-0.199
-0.074	-4.248	-0.180
-0.166	-4.247	-0.089
-0.187	-4.248	0.038
-0.124	-3.290	0.153
-0.011	-3.290	0.211
0.115	-3.291	0.191
0.206	-3.291	0.101
0.226	-3.291	-0.025
0.168	-3.291	-0.139
0.054	-3.290	-0.197
-0.072	-3.290	-0.177
-0.162	-3.290	-0.087
-0.182	-3.290	0.039
-0.122	-2.400	0.152
-0.009	-2.400	0.209
0.116	-2.401	0.190
0.206	-2.401	0.100
0.226	-2.401	-0.025
0.169	-2.401	-0.139
0.056	-2.400	-0.196
-0.070	-2.400	-0.177
-0.160	-2.400	-0.087
-0.180	-2.400	0.038
-0.120	-1.800	0.152
-0.007	-1.800	0.209
0.118	-1.801	0.190
0.208	-1.801	0.100
0.228	-1.801	-0.025
0.171	-1.801	-0.138
0.058	-1.801	-0.195
-0.067	-1.800	-0.176
-0.157	-1.800	-0.086
-0.177	-1.800	0.039
-0.118	-1.200	0.150
-0.005	-1.200	0.207
0.120	-1.200	0.188
0.209	-1.200	0.099
0.229	-1.201	-0.026
0.172	-1.201	-0.139
0.059	-1.201	-0.196
-0.065	-1.201	-0.177
-0.155	-1.200	-0.087
-0.175	-1.200	0.037
-0.118	-0.301	0.148
-0.006	-0.300	0.205
0.118	-0.300	0.186
0.207	-0.300	0.096
0.227	-0.300	-0.028
0.170	-0.300	-0.140
0.057	-0.300	-0.197
-0.067	-0.301	-0.177
-0.156	-0.301	-0.088
-0.175	-0.301	0.036
-0.121	0.560	0.149
-0.010	0.559	0.206
0.114	0.559	0.186
0.203	0.559	0.098
0.223	0.559	-0.026
0.166	0.560	-0.138
0.054	0.560	-0.195
-0.070	0.560	-0.176
-0.159	0.560	-0.087
-0.178	0.560	0.037
-0.115	1.440	0.149
-0.004	1.439	0.206
0.120	1.439	0.187
0.208	1.439	0.098
0.228	1.439	-0.025
0.171	1.439	-0.137
0.060	1.440	-0.194
-0.064	1.440	-0.174
-0.152	1.440	-0.086
-0.172	1.440	0.038
-0.115	2.315	0.149
-0.004	2.315	0.206
0.118	2.316	0.186
0.206	2.316	0.098
0.225	2.316	-0.025
0.169	2.317	-0.136
0.058	2.317	-0.192
-0.065	2.316	-0.172
-0.153	2.316	-0.084
-0.172	2.315	0.039
-0.115	2.568	0.150
-0.005	2.568	0.206
0.117	2.569	0.186
0.204	2.569	0.098
0.223	2.570	-0.024
0.167	2.571	-0.134
0.056	2.571	-0.190
-0.066	2.570	-0.170
-0.153	2.569	-0.082
-0.171	2.569	0.040
0.015	-5.110	0.002
0.014	-5.108	0.011
0.009	-5.102	0.016
0.002	-5.096	0.017
-0.004	-5.091	0.012
-0.007	-5.090	0.003
-0.006	-5.092	-0.006
-0.001	-5.097	-0.012
0.006	-5.104	-0.012
0.012	-5.109	-0.007
-0.536	-5.699	0.091
-0.537	-5.699	0.100
-0.542	-5.695	0.107
-0.549	-5.690	0.109
-0.556	-5.685	0.105
-0.559	-5.682	0.097
-0.558	-5.682	0.088
-0.553	-5.685	0.081
-0.546	-5.691	0.079
-0.539	-5.696	0.083
-0.746	-6.064	0.014
-0.746	-6.066	0.023
-0.750	-6.065	0.031
-0.758	-6.062	0.035
-0.765	-6.057	0.034
-0.771	-6.053	0.027
-0.771	-6.051	0.018
-0.766	-6.051	0.010
-0.759	-6.055	0.006
-0.751	-6.060	0.007
0.018	-5.210	0.005
0.022	-5.203	0.008
0.020	-5.194	0.010
0.014	-5.187	0.010
0.005	-5.185	0.008
-0.003	-5.189	0.005
-0.007	-5.197	0.002
-0.005	-5.206	-0.000
0.001	-5.213	-0.000
0.010	-5.214	0.002
-0.199	-5.414	0.794
-0.195	-5.407	0.798
-0.197	-5.398	0.800
-0.204	-5.391	0.800
-0.212	-5.389	0.798
-0.220	-5.393	0.794
-0.224	-5.401	0.790
-0.222	-5.409	0.788
-0.215	-5.416	0.788
-0.206	-5.418	0.790
-0.363	-5.595	1.192
-0.360	-5.587	1.197
-0.362	-5.579	1.200
-0.368	-5.572	1.200
-0.377	-5.570	1.197
-0.384	-5.574	1.193
-0.388	-5.581	1.188
-0.386	-5.590	1.185
-0.379	-5.596	1.185
-0.370	-5.598	1.188
0.078	-6.086	0.034
0.085	-6.081	0.033
0.095	-6.081	0.032
0.102	-6.087	0.031
0.104	-6.096	0.030
0.100	-6.105	0.030
0.092	-6.110	0.031
0.083	-6.109	0.032
0.076	-6.103	0.033
0.074	-6.094	0.034
-0.018	-6.052	-0.809
-0.010	-6.048	-0.808
-0.001	-6.049	-0.808
0.006	-6.055	-0.809
0.008	-6.064	-0.810
0.004	-6.072	-0.810
-0.004	-6.077	-0.811
-0.014	-6.076	-0.811
-0.020	-6.070	-0.810
-0.022	-6.060	-0.809
-0.009	-6.041	-0.881
-0.001	-6.037	-0.879
0.008	-6.039	-0.879
0.015	-6.045	-0.879
0.017	-6.054	-0.880
0.013	-6.063	-0.881
0.004	-6.067	-0.883
-0.005	-6.065	-0.884
-0.011	-6.059	-0.884
-0.013	-6.050	-0.883
0.096	-6.183	0.030
0.103	-6.180	0.036
0.108	-6.183	0.043
0.110	-6.190	0.049
0.107	-6.199	0.051
0.102	-6.206	0.048
0.096	-6.209	0.042
0.091	-6.206	0.035
0.089	-6.199	0.029
0.091	-6.190	0.027
0.710	-6.444	-0.499
0.717	-6.442	-0.494
0.722	-6.445	-0.486
0.722	-6.452	-0.480
0.718	-6.460	-0.477
0.711	-6.466	-0.479
0.704	-6.468	-0.484
0.699	-6.465	-0.492
0.699	-6.458	-0.498
0.703	-6.450	-0.501
0.746	-6.498	-0.544
0.754	-6.498	-0.538
0.758	-6.501	-0.531
0.757	-6.507	-0.524
0.752	-6.514	-0.520
0.744	-6.518	-0.521
0.736	-6.519	-0.527
0.732	-6.515	-0.534
0.733	-6.509	-0.541
0.738	-6.503	-0.545
0.106	-6.298	0.059
0.104	-6.289	0.058
0.105	-6.281	0.052
0.110	-6.279	0.045
0.116	-6.281	0.038
0.121	-6.289	0.035
0.123	-6.298	0.036
0.121	-6.305	0.042
0.116	-6.308	0.049
0.110	-6.305	0.056
-0.584	-6.524	-0.458
-0.586	-6.515	-0.459
-0.584	-6.508	-0.465
-0.580	-6.505	-0.472
-0.574	-6.508	-0.479
-0.569	-6.515	-0.482
-0.567	-6.524	-0.481
-0.569	-6.532	-0.475
-0.573	-6.534	-0.468
-0.579	-6.532	-0.461
0.139	-6.396	0.047
0.139	-6.386	0.048
0.134	-6.379	0.052
0.127	-6.377	0.057
0.120	-6.380	0.061
0.115	-6.388	0.063
0.115	-6.397	0.062
0.120	-6.404	0.059
0.127	-6.407	0.053
0.135	-6.403	0.049
0.605	-6.474	0.758
0.605	-6.465	0.759
0.601	-6.458	0.763
0.593	-6.456	0.768
0.586	-6.459	0.773
0.581	-6.467	0.775
0.581	-6.476	0.774
0.586	-6.483	0.770
0.593	-6.486	0.765
0.601	-6.482	0.760
0.153	-6.494	0.052
0.155	-6.486	0.056
0.151	-6.480	0.062
0.144	-6.478	0.068
0.136	-6.481	0.070
0.129	-6.488	0.069
0.127	-6.495	0.064
0.131	-6.501	0.058
0.138	-6.503	0.053
0.147	-6.500	0.050
0.489	-6.951	0.678
0.494	-6.951	0.687
0.492	-6.951	0.696
0.486	-6.951	0.702
0.476	-6.951	0.704
0.468	-6.951	0.700
0.464	-6.951	0.691
0.465	-6.951	0.682
0.472	-6.951	0.676
0.481	-6.951	0.674
0.167	-6.598	0.062
0.170	-6.590	0.064
0.168	-6.582	0.067
0.160	-6.576	0.069
0.151	-6.576	0.069
0.143	-6.581	0.068
0.140	-6.589	0.065
0.143	-6.598	0.062
0.150	-6.603	0.060
0.159	-6.603	0.060
0.183	-6.841	0.805
0.187	-6.833	0.807
0.184	-6.824	0.810
0.177	-6.818	0.812
0.168	-6.818	0.812
0.160	-6.823	0.810
0.157	-6.831	0.808
0.159	-6.840	0.805
0.166	-6.845	0.803
0.176	-6.846	0.803
0.179	-6.893	0.981
0.183	-6.885	0.983
0.180	-6.876	0.986
0.173	-6.871	0.987
0.164	-6.870	0.987
0.156	-6.875	0.986
0.153	-6.883	0.983
0.155	-6.892	0.981
0.162	-6.897	0.979
0.171	-6.898	0.979
0.161	-6.677	0.063
0.169	-6.674	0.067
0.177	-6.676	0.070
0.182	-6.684	0.073
0.183	-6.693	0.073
0.178	-6.701	0.071
0.170	-6.704	0.067
0.162	-6.701	0.063
0.157	-6.693	0.061
0.157	-6.684	0.061
0.416	-6.679	-0.486
0.424	-6.676	-0.482
[...]
         <CellData>
           <DataArray type="Float32" Name="aerenchymaFormation" NumberOfComponents="1" format="ascii">
 0.000e+00 0.000e+00 0.000e+00 0.000e+00 0.000e+00 0.000e+00 0.000e+00 0.000e+00 0.000e+00 0.000e+00 0.000e+00 0.000e+00 0.000e+00 0.000e+00 0.000e+00 0.000e+00 0.000e+00 0.000e+00 0.000e+00 0.000e+00 0.000e+00 0.000e+00 0.000e+00 0.000e+00 0.000e+00 0.000e+00 0.000e+00 0.000e+00 0.000e+00 0.000e+00 0.000e+00 0.000e+00 0.000e+00 0.000e+00 0.000e+00 0.000e+00 0.000e+00 0.000e+00 0.000e+00 0.000e+00 0.000e+00 0.000e+00 0.000e+00 0.000e+00 0.000e+00 0.000e+00 0.000e+00 0.000e+00 0.000e+00 0.000e+00 0.000e+00 0.000e+00 0.000e+00 0.000e+00 0.000e+00 0.000e+00 0.000e+00 0.000e+00 0.000e+00 0.000e+00 0.000e+00 0.000e+00 0.000e+00 0.000e+00 0.000e+00 0.000e+00 0.000e+00 0.000e+00 0.000e+00 0.000e+00 0.000e+00 0.000e+00 0.000e+00 0.000e+00 0.000e+00 0.000e+00 0.000e+00 0.000e+00 6.000e-02 5.700e-02 5.400e-02 5.100e-02 4.500e-02 3.750e-02 2.750e-02 2.000e-02 1.250e-02 2.500e-03 0.000e+00 0.000e+00 0.000e+00 0.000e+00 0.000e+00 0.000e+00 0.000e+00 0.000e+00 0.000e+00
           </DataArray>
           <DataArray type="Float32" Name="combinedRootClassID" NumberOfComponents="1" format="ascii">
 -5.000e+00 -5.000e+00 -5.000e+00 -5.000e+00 -5.000e+00 -5.000e+00 -5.000e+00 -5.000e+00 -5.000e+00 -5.000e+00 -5.000e+00 -5.000e+00 -2.000e+00 -2.000e+00 -2.000e+00 -2.000e+00 -2.000e+00 -2.000e+00 -2.000e+00 -2.000e+00 -2.000e+00 -2.000e+00 -7.000e+00 -7.000e+00 -7.000e+00 -7.000e+00 -7.000e+00 -7.000e+00 -7.000e+00 -7.000e+00 -7.000e+00 -7.000e+00 -7.000e+00 -7.000e+00 -7.000e+00 -7.000e+00 -7.000e+00 -7.000e+00 -7.000e+00 -7.000e+00 -7.000e+00 -7.000e+00 -7.000e+00 -7.000e+00 -7.000e+00 -7.000e+00 -7.000e+00 -7.000e+00 -7.000e+00 -7.000e+00 -7.000e+00 -7.000e+00 -7.000e+00 -7.000e+00 -7.000e+00 -7.000e+00 -7.000e+00 -7.000e+00 -7.000e+00 -7.000e+00 -7.000e+00 -7.000e+00 -7.000e+00 -7.000e+00 -7.000e+00 -7.000e+00 -7.000e+00 -7.000e+00 -7.000e+00 -7.000e+00 -7.000e+00 -7.000e+00 -7.000e+00 -7.000e+00 -7.000e+00 -9.000e+00 -9.000e+00 -9.000e+00 -4.000e+00 -4.000e+00 -4.000e+00 -4.000e+00 -4.000e+00 -4.000e+00 -4.000e+00 -4.000e+00 -4.000e+00 -4.000e+00 -4.000e+00 -4.000e+00 -4.000e+00 -4.000e+00 -4.000e+00 -4.000e+00 -4.000e+00 -4.000e+00 -4.000e+00
           </DataArray>
           <DataArray type="Float32" Name="nitrate/Cmin" NumberOfComponents="1" format="ascii">
 1.000e-03 1.000e-03 1.000e-03 1.000e-03 1.000e-03 1.000e-03 1.000e-03 1.000e-03 1.000e-03 1.000e-03 1.000e-03 1.000e-03 1.000e-03 1.000e-03 1.000e-03 1.000e-03 1.000e-03 1.000e-03 1.000e-03 1.000e-03 1.000e-03 1.000e-03 1.000e-03 1.000e-03 1.000e-03 1.000e-03 1.000e-03 1.000e-03 1.000e-03 1.000e-03 1.000e-03 1.000e-03 1.000e-03 1.000e-03 1.000e-03 1.000e-03 1.000e-03 1.000e-03 1.000e-03 1.000e-03 1.000e-03 1.000e-03 1.000e-03 1.000e-03 1.000e-03 1.000e-03 1.000e-03 1.000e-03 1.000e-03 1.000e-03 1.000e-03 1.000e-03 1.000e-03 1.000e-03 1.000e-03 1.000e-03 1.000e-03 1.000e-03 1.000e-03 1.000e-03 1.000e-03 1.000e-03 1.000e-03 1.000e-03 1.000e-03 1.000e-03 1.000e-03 1.000e-03 1.000e-03 1.000e-03 1.000e-03 1.000e-03 1.000e-03 1.000e-03 1.000e-03 1.000e-03 1.000e-03 1.000e-03 1.000e-03 1.000e-03 1.000e-03 1.000e-03 1.000e-03 1.000e-03 1.000e-03 1.000e-03 1.000e-03 1.000e-03 1.000e-03 1.000e-03 1.000e-03 1.000e-03 1.000e-03 1.000e-03 1.000e-03 1.000e-03 1.000e-03
           </DataArray>
           <DataArray type="Float32" Name="nitrate/Imax" NumberOfComponents="1" format="ascii">
 1.900e+00 1.900e+00 1.900e+00 1.900e+00 1.900e+00 1.900e+00 1.900e+00 1.900e+00 1.900e+00 1.900e+00 1.900e+00 1.900e+00 1.900e+00 1.900e+00 1.900e+00 1.900e+00 1.900e+00 1.900e+00 1.900e+00 1.900e+00 1.900e+00 1.900e+00 1.900e+00 1.900e+00 1.900e+00 1.900e+00 1.900e+00 1.900e+00 1.900e+00 1.900e+00 1.900e+00 1.900e+00 1.900e+00 1.900e+00 1.900e+00 1.900e+00 1.900e+00 1.900e+00 1.900e+00 1.900e+00 1.900e+00 1.900e+00 1.900e+00 1.900e+00 1.900e+00 1.900e+00 1.900e+00 1.900e+00 1.900e+00 1.900e+00 1.900e+00 1.900e+00 1.900e+00 1.900e+00 1.900e+00 1.900e+00 1.900e+00 1.900e+00 1.900e+00 1.900e+00 1.900e+00 1.900e+00 1.900e+00 1.900e+00 1.900e+00 1.900e+00 1.900e+00 1.900e+00 1.900e+00 1.900e+00 1.900e+00 1.900e+00 1.900e+00 1.900e+00 1.900e+00 1.900e+00 1.900e+00 1.900e+00 1.900e+00 1.900e+00 1.900e+00 1.900e+00 1.900e+00 1.900e+00 1.900e+00 1.900e+00 1.900e+00 1.900e+00 1.900e+00 1.900e+00 1.900e+00 1.900e+00 1.900e+00 1.900e+00 1.900e+00 1.900e+00 1.900e+00
           </DataArray>
           <DataArray type="Float32" Name="nitrate/Km" NumberOfComponents="1" format="ascii">
 1.610e-02 1.610e-02 1.610e-02 1.610e-02 1.610e-02 1.610e-02 1.610e-02 1.610e-02 1.610e-02 1.610e-02 1.610e-02 1.610e-02 1.610e-02 1.610e-02 1.610e-02 1.610e-02 1.610e-02 1.610e-02 1.610e-02 1.610e-02 1.610e-02 1.610e-02 1.610e-02 1.610e-02 1.610e-02 1.610e-02 1.610e-02 1.610e-02 1.610e-02 1.610e-02 1.610e-02 1.610e-02 1.610e-02 1.610e-02 1.610e-02 1.610e-02 1.610e-02 1.610e-02 1.610e-02 1.610e-02 1.610e-02 1.610e-02 1.610e-02 1.610e-02 1.610e-02 1.610e-02 1.610e-02 1.610e-02 1.610e-02 1.610e-02 1.610e-02 1.610e-02 1.610e-02 1.610e-02 1.610e-02 1.610e-02 1.610e-02 1.610e-02 1.610e-02 1.610e-02 1.610e-02 1.610e-02 1.610e-02 1.610e-02 1.610e-02 1.610e-02 1.610e-02 1.610e-02 1.610e-02 1.610e-02 1.610e-02 1.610e-02 1.610e-02 1.610e-02 1.610e-02 1.610e-02 1.610e-02 1.610e-02 1.610e-02 1.610e-02 1.610e-02 1.610e-02 1.610e-02 1.610e-02 1.610e-02 1.610e-02 1.610e-02 1.610e-02 1.610e-02 1.610e-02 1.610e-02 1.610e-02 1.610e-02 1.610e-02 1.610e-02 1.610e-02 1.610e-02
           </DataArray>
           <DataArray type="Float32" Name="nitrate/minimalNutrientConcentration" NumberOfComponents="1" format="ascii">
 6.000e+02 6.000e+02 6.000e+02 6.000e+02 6.000e+02 6.000e+02 6.000e+02 6.000e+02 6.000e+02 6.000e+02 6.000e+02 6.000e+02 6.000e+02 6.000e+02 6.000e+02 6.000e+02 6.000e+02 6.000e+02 6.000e+02 6.000e+02 6.000e+02 6.000e+02 6.000e+02 6.000e+02 6.000e+02 6.000e+02 6.000e+02 6.000e+02 6.000e+02 6.000e+02 6.000e+02 6.000e+02 6.000e+02 6.000e+02 6.000e+02 6.000e+02 6.000e+02 6.000e+02 6.000e+02 6.000e+02 6.000e+02 6.000e+02 6.000e+02 6.000e+02 6.000e+02 6.000e+02 6.000e+02 6.000e+02 6.000e+02 6.000e+02 6.000e+02 6.000e+02 6.000e+02 6.000e+02 6.000e+02 6.000e+02 6.000e+02 6.000e+02 6.000e+02 6.000e+02 6.000e+02 6.000e+02 6.000e+02 6.000e+02 6.000e+02 6.000e+02 6.000e+02 6.000e+02 6.000e+02 6.000e+02 6.000e+02 6.000e+02 6.000e+02 6.000e+02 6.000e+02 6.000e+02 6.000e+02 6.000e+02 6.000e+02 6.000e+02 6.000e+02 6.000e+02 6.000e+02 6.000e+02 6.000e+02 6.000e+02 6.000e+02 6.000e+02 6.000e+02 6.000e+02 6.000e+02 6.000e+02 6.000e+02 6.000e+02 6.000e+02 6.000e+02 6.000e+02
           </DataArray>
           <DataArray type="Float32" Name="nitrate/nutrientConcentrationAtTheRootSurface" NumberOfComponents="1" format="ascii">
 1.662e+00 1.753e+00 2.099e+00 1.662e+00 1.792e+00 2.103e+00 1.662e+00 1.739e+00 2.129e+00 1.662e+00 1.716e+00 2.098e+00 1.664e+00 1.386e+00 1.060e+00 8.124e-01 6.763e-01 6.055e-01 4.215e-01 0.000e+00 0.000e+00 0.000e+00 1.739e+00 1.980e+00 1.757e+00 1.835e+00 2.068e+00 2.054e+00 2.078e+00 2.101e+00 2.091e+00 2.109e+00 2.129e+00 2.150e+00 2.221e+00 2.168e+00 2.182e+00 2.199e+00 2.213e+00 1.782e+00 1.971e+00 2.224e+00 2.247e+00 2.255e+00 2.264e+00 2.274e+00 2.284e+00 2.291e+00 2.296e+00 2.303e+00 2.315e+00 1.814e+00 1.899e+00 2.319e+00 2.331e+00 2.347e+00 2.366e+00 2.383e+00 2.400e+00 2.421e+00 2.436e+00 2.443e+00 1.341e+00 1.849e+00 2.014e+00 6.459e-01 1.885e+00 2.037e+00 1.916e+00 1.968e+00 1.941e+00 2.052e+00 1.959e+00 2.013e+00 2.076e+00 2.087e+00 2.167e+00 2.434e+00 1.664e+00 1.918e+00 2.111e+00 2.230e+00 2.298e+00 2.390e+00 2.529e+00 2.628e+00 2.754e+00 2.915e+00 3.026e+00 3.079e+00 3.188e+00 3.317e+00 3.418e+00 3.491e+00 3.611e+00 3.698e+00 3.743e+00
           </DataArray>
           <DataArray type="Float32" Name="nitrate/optimalNutrientConcentration" NumberOfComponents="1" format="ascii">
 1.200e+03 1.200e+03 1.200e+03 1.200e+03 1.200e+03 1.200e+03 1.200e+03 1.200e+03 1.200e+03 1.200e+03 1.200e+03 1.200e+03 1.200e+03 1.200e+03 1.200e+03 1.200e+03 1.200e+03 1.200e+03 1.200e+03 1.200e+03 1.200e+03 1.200e+03 1.200e+03 1.200e+03 1.200e+03 1.200e+03 1.200e+03 1.200e+03 1.200e+03 1.200e+03 1.200e+03 1.200e+03 1.200e+03 1.200e+03 1.200e+03 1.200e+03 1.200e+03 1.200e+03 1.200e+03 1.200e+03 1.200e+03 1.200e+03 1.200e+03 1.200e+03 1.200e+03 1.200e+03 1.200e+03 1.200e+03 1.200e+03 1.200e+03 1.200e+03 1.200e+03 1.200e+03 1.200e+03 1.200e+03 1.200e+03 1.200e+03 1.200e+03 1.200e+03 1.200e+03 1.200e+03 1.200e+03 1.200e+03 1.200e+03 1.200e+03 1.200e+03 1.200e+03 1.200e+03 1.200e+03 1.200e+03 1.200e+03 1.200e+03 1.200e+03 1.200e+03 1.200e+03 1.200e+03 1.200e+03 1.200e+03 1.200e+03 1.200e+03 1.200e+03 1.200e+03 1.200e+03 1.200e+03 1.200e+03 1.200e+03 1.200e+03 1.200e+03 1.200e+03 1.200e+03 1.200e+03 1.200e+03 1.200e+03 1.200e+03 1.200e+03 1.200e+03 1.200e+03
           </DataArray>
           <DataArray type="Float32" Name="nitrate/rootSegmentMinimalNutrientContent" NumberOfComponents="1" format="ascii">
 1.632e-01 1.811e-01 1.406e-01 1.632e-01 1.811e-01 1.406e-01 1.632e-01 1.811e-01 1.406e-01 1.632e-01 1.811e-01 1.406e-01 5.806e+00 7.305e+00 6.690e+00 4.488e+00 4.462e+00 6.659e+00 6.322e+00 6.436e+00 6.333e+00 1.809e+00 3.315e-02 1.782e-02 3.429e-02 1.916e-02 3.470e-02 2.912e-03 3.523e-02 3.067e-03 3.640e-02 3.481e-02 3.534e-02 3.229e-02 7.348e-03 2.720e-02 2.624e-02 3.326e-02 2.653e-02 3.602e-02 1.170e-02 3.021e-02 2.409e-02 2.286e-02 2.045e-02 1.980e-02 1.688e-02 2.030e-02 1.425e-02 1.678e-02 1.523e-02 3.524e-02 1.619e-02 1.413e-02 1.309e-02 1.238e-02 9.026e-03 7.332e-03 6.673e-03 6.428e-03 4.252e-03 2.540e-03 1.921e-03 3.281e-02 2.081e-02 5.502e-04 3.551e-02 1.287e-02 3.301e-02 1.244e-02 3.666e-02 6.016e-03 3.481e-02 3.495e-02 1.014e-02 3.399e-02 3.308e-02 7.943e-03 3.227e-01 3.135e-01 3.050e-01 2.972e-01 2.901e-01 3.789e-01 2.780e-01 2.745e-01 3.617e-01 2.674e-01 2.649e-01 3.501e-01 2.600e-01 2.583e-01 2.569e-01 2.557e-01 2.549e-01 2.542e-01 2.538e-01
           </DataArray>
           <DataArray type="Float32" Name="nitrate/rootSegmentNutrientUptake" NumberOfComponents="1" format="ascii">
 0.000e+00 2.081e-01 5.418e-02 0.000e+00 2.082e-01 5.419e-02 0.000e+00 2.081e-01 5.417e-02 0.000e+00 2.081e-01 5.417e-02 0.000e+00 5.570e+00 4.418e+00 3.453e+00 2.786e+00 2.216e+00 1.290e+00 5.794e-02 0.000e+00 0.000e+00 0.000e+00 2.779e-02 0.000e+00 2.987e-02 0.000e+00 1.298e-03 0.000e+00 1.367e-03 0.000e+00 0.000e+00 0.000e+00 0.000e+00 4.914e-03 0.000e+00 0.000e+00 0.000e+00 0.000e+00 0.000e+00 1.303e-02 0.000e+00 0.000e+00 0.000e+00 0.000e+00 0.000e+00 0.000e+00 0.000e+00 0.000e+00 0.000e+00 0.000e+00 0.000e+00 2.163e-02 0.000e+00 0.000e+00 0.000e+00 0.000e+00 0.000e+00 0.000e+00 0.000e+00 0.000e+00 0.000e+00 0.000e+00 0.000e+00 3.246e-02 0.000e+00 0.000e+00 1.434e-02 0.000e+00 1.386e-02 0.000e+00 4.020e-03 0.000e+00 0.000e+00 9.041e-03 0.000e+00 5.161e-02 0.000e+00 0.000e+00 2.183e+00 2.058e+00 1.936e+00 1.814e+00 2.233e+00 1.535e+00 1.417e+00 1.708e+00 1.144e+00 1.028e+00 1.192e+00 7.595e-01 6.450e-01 5.307e-01 4.167e-01 3.029e-01 1.892e-01 7.566e-02
           </DataArray>
           <DataArray type="Float32" Name="nitrate/rootSegmentOptimalNutrientContent" NumberOfComponents="1" format="ascii">
 3.265e-01 3.621e-01 2.812e-01 3.265e-01 3.621e-01 2.812e-01 3.265e-01 3.621e-01 2.812e-01 3.265e-01 3.621e-01 2.812e-01 1.161e+01 1.461e+01 1.338e+01 8.976e+00 8.924e+00 1.332e+01 1.264e+01 1.287e+01 1.267e+01 3.619e+00 6.630e-02 3.564e-02 6.858e-02 3.833e-02 6.939e-02 5.824e-03 7.047e-02 6.133e-03 7.281e-02 6.962e-02 7.068e-02 6.458e-02 1.470e-02 5.440e-02 5.248e-02 6.653e-02 5.305e-02 7.203e-02 2.340e-02 6.043e-02 4.817e-02 4.572e-02 4.091e-02 3.961e-02 3.376e-02 4.060e-02 2.851e-02 3.355e-02 3.047e-02 7.048e-02 3.237e-02 2.826e-02 2.618e-02 2.476e-02 1.805e-02 1.466e-02 1.335e-02 1.286e-02 8.504e-03 5.080e-03 3.843e-03 6.563e-02 4.162e-02 1.100e-03 7.103e-02 2.574e-02 6.601e-02 2.488e-02 7.332e-02 1.203e-02 6.962e-02 6.991e-02 2.029e-02 6.799e-02 6.616e-02 1.589e-02 6.454e-01 6.270e-01 6.100e-01 5.944e-01 5.802e-01 7.578e-01 5.560e-01 5.489e-01 7.234e-01 5.349e-01 5.298e-01 7.003e-01 5.199e-01 5.166e-01 5.138e-01 5.115e-01 5.097e-01 5.084e-01 5.077e-01
           </DataArray>
           <DataArray type="Float32" Name="parentRootClassID" NumberOfComponents="1" format="ascii">
 -2.000e+00 -2.000e+00 -2.000e+00 -2.000e+00 -2.000e+00 -2.000e+00 -2.000e+00 -2.000e+00 -2.000e+00 -2.000e+00 -2.000e+00 -2.000e+00 -3.000e+00 -3.000e+00 -3.000e+00 -3.000e+00 -3.000e+00 -3.000e+00 -3.000e+00 -3.000e+00 -3.000e+00 -3.000e+00 -4.000e+00 -4.000e+00 -4.000e+00 -4.000e+00 -4.000e+00 -4.000e+00 -4.000e+00 -4.000e+00 -4.000e+00 -4.000e+00 -4.000e+00 -4.000e+00 -4.000e+00 -4.000e+00 -4.000e+00 -4.000e+00 -4.000e+00 -4.000e+00 -4.000e+00 -4.000e+00 -4.000e+00 -4.000e+00 -4.000e+00 -4.000e+00 -4.000e+00 -4.000e+00 -4.000e+00 -4.000e+00 -4.000e+00 -4.000e+00 -4.000e+00 -4.000e+00 -4.000e+00 -4.000e+00 -4.000e+00 -4.000e+00 -4.000e+00 -4.000e+00 -4.000e+00 -4.000e+00 -4.000e+00 -4.000e+00 -4.000e+00 -4.000e+00 -4.000e+00 -4.000e+00 -4.000e+00 -4.000e+00 -4.000e+00 -4.000e+00 -4.000e+00 -4.000e+00 -4.000e+00 -4.000e+00 -4.000e+00 -4.000e+00 -3.000e+00 -3.000e+00 -3.000e+00 -3.000e+00 -3.000e+00 -3.000e+00 -3.000e+00 -3.000e+00 -3.000e+00 -3.000e+00 -3.000e+00 -3.000e+00 -3.000e+00 -3.000e+00 -3.000e+00 -3.000e+00 -3.000e+00 -3.000e+00 -3.000e+00
           </DataArray>
           <DataArray type="Float32" Name="plantID" NumberOfComponents="1" format="ascii">
 7.000e+00 7.000e+00 7.000e+00 7.000e+00 7.000e+00 7.000e+00 7.000e+00 7.000e+00 7.000e+00 7.000e+00 7.000e+00 7.000e+00 7.000e+00 7.000e+00 7.000e+00 7.000e+00 7.000e+00 7.000e+00 7.000e+00 7.000e+00 7.000e+00 7.000e+00 7.000e+00 7.000e+00 7.000e+00 7.000e+00 7.000e+00 7.000e+00 7.000e+00 7.000e+00 7.000e+00 7.000e+00 7.000e+00 7.000e+00 7.000e+00 7.000e+00 7.000e+00 7.000e+00 7.000e+00 7.000e+00 7.000e+00 7.000e+00 7.000e+00 7.000e+00 7.000e+00 7.000e+00 7.000e+00 7.000e+00 7.000e+00 7.000e+00 7.000e+00 7.000e+00 7.000e+00 7.000e+00 7.000e+00 7.000e+00 7.000e+00 7.000e+00 7.000e+00 7.000e+00 7.000e+00 7.000e+00 7.000e+00 7.000e+00 7.000e+00 7.000e+00 7.000e+00 7.000e+00 7.000e+00 7.000e+00 7.000e+00 7.000e+00 7.000e+00 7.000e+00 7.000e+00 7.000e+00 7.000e+00 7.000e+00 7.000e+00 7.000e+00 7.000e+00 7.000e+00 7.000e+00 7.000e+00 7.000e+00 7.000e+00 7.000e+00 7.000e+00 7.000e+00 7.000e+00 7.000e+00 7.000e+00 7.000e+00 7.000e+00 7.000e+00 7.000e+00 7.000e+00
           </DataArray>
           <DataArray type="Float32" Name="plantTypeID" NumberOfComponents="1" format="ascii">
 0.000e+00 0.000e+00 0.000e+00 0.000e+00 0.000e+00 0.000e+00 0.000e+00 0.000e+00 0.000e+00 0.000e+00 0.000e+00 0.000e+00 0.000e+00 0.000e+00 0.000e+00 0.000e+00 0.000e+00 0.000e+00 0.000e+00 0.000e+00 0.000e+00 0.000e+00 0.000e+00 0.000e+00 0.000e+00 0.000e+00 0.000e+00 0.000e+00 0.000e+00 0.000e+00 0.000e+00 0.000e+00 0.000e+00 0.000e+00 0.000e+00 0.000e+00 0.000e+00 0.000e+00 0.000e+00 0.000e+00 0.000e+00 0.000e+00 0.000e+00 0.000e+00 0.000e+00 0.000e+00 0.000e+00 0.000e+00 0.000e+00 0.000e+00 0.000e+00 0.000e+00 0.000e+00 0.000e+00 0.000e+00 0.000e+00 0.000e+00 0.000e+00 0.000e+00 0.000e+00 0.000e+00 0.000e+00 0.000e+00 0.000e+00 0.000e+00 0.000e+00 0.000e+00 0.000e+00 0.000e+00 0.000e+00 0.000e+00 0.000e+00 0.000e+00 0.000e+00 0.000e+00 0.000e+00 0.000e+00 0.000e+00 0.000e+00 0.000e+00 0.000e+00 0.000e+00 0.000e+00 0.000e+00 0.000e+00 0.000e+00 0.000e+00 0.000e+00 0.000e+00 0.000e+00 0.000e+00 0.000e+00 0.000e+00 0.000e+00 0.000e+00 0.000e+00 0.000e+00
           </DataArray>
           <DataArray type="Float32" Name="potassium/Cmin" NumberOfComponents="1" format="ascii">
 2.000e-03 2.000e-03 2.000e-03 2.000e-03 2.000e-03 2.000e-03 2.000e-03 2.000e-03 2.000e-03 2.000e-03 2.000e-03 2.000e-03 2.000e-03 2.000e-03 2.000e-03 2.000e-03 2.000e-03 2.000e-03 2.000e-03 2.000e-03 2.000e-03 2.000e-03 2.000e-03 2.000e-03 2.000e-03 2.000e-03 2.000e-03 2.000e-03 2.000e-03 2.000e-03 2.000e-03 2.000e-03 2.000e-03 2.000e-03 2.000e-03 2.000e-03 2.000e-03 2.000e-03 2.000e-03 2.000e-03 2.000e-03 2.000e-03 2.000e-03 2.000e-03 2.000e-03 2.000e-03 2.000e-03 2.000e-03 2.000e-03 2.000e-03 2.000e-03 2.000e-03 2.000e-03 2.000e-03 2.000e-03 2.000e-03 2.000e-03 2.000e-03 2.000e-03 2.000e-03 2.000e-03 2.000e-03 2.000e-03 2.000e-03 2.000e-03 2.000e-03 2.000e-03 2.000e-03 2.000e-03 2.000e-03 2.000e-03 2.000e-03 2.000e-03 2.000e-03 2.000e-03 2.000e-03 2.000e-03 2.000e-03 2.000e-03 2.000e-03 2.000e-03 2.000e-03 2.000e-03 2.000e-03 2.000e-03 2.000e-03 2.000e-03 2.000e-03 2.000e-03 2.000e-03 2.000e-03 2.000e-03 2.000e-03 2.000e-03 2.000e-03 2.000e-03 2.000e-03
           </DataArray>
           <DataArray type="Float32" Name="potassium/Imax" NumberOfComponents="1" format="ascii">
 4.670e-01 4.670e-01 4.670e-01 4.670e-01 4.670e-01 4.670e-01 4.670e-01 4.670e-01 4.670e-01 4.670e-01 4.670e-01 4.670e-01 4.670e-01 4.670e-01 4.670e-01 4.670e-01 4.670e-01 4.670e-01 4.670e-01 4.670e-01 4.670e-01 4.670e-01 4.670e-01 4.670e-01 4.670e-01 4.670e-01 4.670e-01 4.670e-01 4.670e-01 4.670e-01 4.670e-01 4.670e-01 4.670e-01 4.670e-01 4.670e-01 4.670e-01 4.670e-01 4.670e-01 4.670e-01 4.670e-01 4.670e-01 4.670e-01 4.670e-01 4.670e-01 4.670e-01 4.670e-01 4.670e-01 4.670e-01 4.670e-01 4.670e-01 4.670e-01 4.670e-01 4.670e-01 4.670e-01 4.670e-01 4.670e-01 4.670e-01 4.670e-01 4.670e-01 4.670e-01 4.670e-01 4.670e-01 4.670e-01 4.670e-01 4.670e-01 4.670e-01 4.670e-01 4.670e-01 4.670e-01 4.670e-01 4.670e-01 4.670e-01 4.670e-01 4.670e-01 4.670e-01 4.670e-01 4.670e-01 4.670e-01 4.670e-01 4.670e-01 4.670e-01 4.670e-01 4.670e-01 4.670e-01 4.670e-01 4.670e-01 4.670e-01 4.670e-01 4.670e-01 4.670e-01 4.670e-01 4.670e-01 4.670e-01 4.670e-01 4.670e-01 4.670e-01 4.670e-01
           </DataArray>
           <DataArray type="Float32" Name="potassium/Km" NumberOfComponents="1" format="ascii">
 3.900e-02 3.900e-02 3.900e-02 3.900e-02 3.900e-02 3.900e-02 3.900e-02 3.900e-02 3.900e-02 3.900e-02 3.900e-02 3.900e-02 3.900e-02 3.900e-02 3.900e-02 3.900e-02 3.900e-02 3.900e-02 3.900e-02 3.900e-02 3.900e-02 3.900e-02 3.900e-02 3.900e-02 3.900e-02 3.900e-02 3.900e-02 3.900e-02 3.900e-02 3.900e-02 3.900e-02 3.900e-02 3.900e-02 3.900e-02 3.900e-02 3.900e-02 3.900e-02 3.900e-02 3.900e-02 3.900e-02 3.900e-02 3.900e-02 3.900e-02 3.900e-02 3.900e-02 3.900e-02 3.900e-02 3.900e-02 3.900e-02 3.900e-02 3.900e-02 3.900e-02 3.900e-02 3.900e-02 3.900e-02 3.900e-02 3.900e-02 3.900e-02 3.900e-02 3.900e-02 3.900e-02 3.900e-02 3.900e-02 3.900e-02 3.900e-02 3.900e-02 3.900e-02 3.900e-02 3.900e-02 3.900e-02 3.900e-02 3.900e-02 3.900e-02 3.900e-02 3.900e-02 3.900e-02 3.900e-02 3.900e-02 3.900e-02 3.900e-02 3.900e-02 3.900e-02 3.900e-02 3.900e-02 3.900e-02 3.900e-02 3.900e-02 3.900e-02 3.900e-02 3.900e-02 3.900e-02 3.900e-02 3.900e-02 3.900e-02 3.900e-02 3.900e-02 3.900e-02
           </DataArray>
           <DataArray type="Float32" Name="potassium/minimalNutrientConcentration" NumberOfComponents="1" format="ascii">