<?xml version="1.0"?>
<VTKFile type="UnstructuredGrid" version="0.1" byte_order="LittleEndian">
   <UnstructuredGrid>
      <Piece NumberOfPoints="32830" NumberOfCells="2318">
         <Points>
            <DataArray type="Float32" Name="Position" NumberOfComponents="3" format="ascii">
0.122	-5.023	0.058
0.129	-5.020	0.064
0.136	-5.023	0.069
0.139	-5.031	0.073
0.139	-5.040	0.074
0.134	-5.047	0.071
0.127	-5.050	0.065
0.120	-5.047	0.059
0.117	-5.039	0.055
0.117	-5.030	0.055
0.683	-5.098	-0.613
0.690	-5.095	-0.607
0.696	-5.098	-0.601
0.700	-5.105	-0.597
0.699	-5.115	-0.596
0.695	-5.122	-0.599
0.688	-5.125	-0.605
0.682	-5.122	-0.611
0.678	-5.114	-0.616
0.679	-5.105	-0.616
1.291	-5.183	-1.215
1.296	-5.180	-1.208
1.301	-5.183	-1.201
1.304	-5.190	-1.196
1.303	-5.200	-1.195
1.299	-5.207	-1.199
1.293	-5.210	-1.206
1.288	-5.207	-1.213
1.286	-5.200	-1.218
1.287	-5.190	-1.219
1.790	-5.261	-1.492
1.794	-5.258	-1.485
1.798	-5.261	-1.477
1.800	-5.268	-1.472
1.799	-5.277	-1.471
1.796	-5.285	-1.475
1.791	-5.288	-1.482
1.787	-5.285	-1.490
1.785	-5.278	-1.496
1.786	-5.269	-1.496
0.256	-5.092	0.118
0.255	-5.085	0.123
0.251	-5.081	0.130
0.246	-5.083	0.138
0.242	-5.091	0.142
0.240	-5.100	0.142
0.242	-5.107	0.137
0.246	-5.111	0.129
0.251	-5.108	0.122
0.255	-5.101	0.118
0.955	-5.229	0.558
0.954	-5.221	0.562
0.950	-5.217	0.569
0.944	-5.218	0.577
0.939	-5.225	0.581
0.936	-5.233	0.581
0.937	-5.242	0.576
0.941	-5.246	0.569
0.947	-5.244	0.562
0.952	-5.238	0.558
1.541	-5.502	1.090
1.540	-5.494	1.094
1.536	-5.488	1.100
1.529	-5.488	1.107
1.523	-5.494	1.111
1.519	-5.502	1.111
1.520	-5.511	1.108
1.524	-5.516	1.101
1.531	-5.516	1.095
1.537	-5.511	1.091
2.103	-5.666	1.694
2.102	-5.657	1.697
2.097	-5.652	1.703
2.091	-5.653	1.710
2.085	-5.658	1.714
2.082	-5.667	1.715
2.083	-5.676	1.712
2.088	-5.681	1.706
2.094	-5.680	1.699
2.100	-5.675	1.695
2.674	-5.751	2.176
2.672	-5.742	2.179
2.667	-5.738	2.186
2.661	-5.739	2.192
2.656	-5.745	2.197
2.654	-5.754	2.198
2.656	-5.762	2.195
2.661	-5.767	2.188
2.667	-5.766	2.181
2.672	-5.760	2.176
1.194	-5.928	0.601
1.198	-5.931	0.608
1.197	-5.934	0.617
1.191	-5.935	0.624
1.183	-5.934	0.626
1.174	-5.931	0.624
1.170	-5.927	0.616
1.171	-5.924	0.608
1.177	-5.923	0.601
1.185	-5.925	0.598
0.985	-6.732	0.306
0.990	-6.735	0.313
0.990	-6.738	0.321
0.985	-6.740	0.328
0.976	-6.740	0.332
0.967	-6.738	0.329
0.962	-6.734	0.322
0.962	-6.731	0.314
0.967	-6.729	0.306
0.976	-6.730	0.303
0.921	-7.518	0.010
0.927	-7.520	0.017
0.928	-7.522	0.026
0.922	-7.525	0.034
0.914	-7.526	0.037
0.905	-7.525	0.034
0.899	-7.523	0.027
0.899	-7.520	0.019
0.904	-7.518	0.011
0.912	-7.517	0.008
0.993	-8.327	-0.188
0.998	-8.327	-0.181
0.997	-8.329	-0.172
0.992	-8.330	-0.165
0.983	-8.331	-0.162
0.974	-8.331	-0.165
0.969	-8.330	-0.173
0.969	-8.329	-0.182
0.975	-8.328	-0.189
0.984	-8.327	-0.192
1.012	-8.786	-0.209
1.016	-8.787	-0.200
1.015	-8.787	-0.191
1.009	-8.788	-0.184
1.000	-8.788	-0.183
0.991	-8.788	-0.186
0.987	-8.788	-0.195
0.988	-8.787	-0.204
0.994	-8.787	-0.211
1.003	-8.786	-0.212
4.420	-18.696	2.727
4.423	-18.688	2.729
4.421	-18.679	2.731
4.414	-18.673	2.732
4.404	-18.673	2.733
4.397	-18.678	2.732
4.393	-18.686	2.730
4.395	-18.695	2.728
4.403	-18.701	2.727
4.412	-18.701	2.727
4.430	-18.776	3.109
4.434	-18.768	3.111
4.432	-18.759	3.113
4.424	-18.753	3.114
4.415	-18.753	3.114
4.407	-18.758	3.113
4.404	-18.766	3.112
4.406	-18.775	3.110
4.413	-18.781	3.109
4.423	-18.781	3.108
4.412	-18.848	2.757
4.411	-18.840	2.762
4.409	-18.831	2.762
4.408	-18.824	2.756
4.407	-18.821	2.747
4.407	-18.824	2.738
4.408	-18.832	2.733
4.410	-18.841	2.733
4.411	-18.848	2.739
4.412	-18.851	2.748
4.137	-18.899	2.771
4.135	-18.891	2.776
4.134	-18.882	2.776
4.132	-18.875	2.770
4.131	-18.872	2.761
4.131	-18.876	2.753
4.132	-18.883	2.747
4.134	-18.892	2.748
4.136	-18.899	2.753
4.137	-18.902	2.762
4.412	-18.975	2.755
4.413	-18.970	2.763
4.413	-18.972	2.772
4.413	-18.978	2.779
4.412	-18.987	2.780
4.411	-18.995	2.776
4.409	-19.000	2.768
4.409	-18.998	2.759
4.409	-18.992	2.752
4.410	-18.983	2.751
4.717	-19.017	2.728
4.718	-19.012	2.736
4.719	-19.014	2.745
4.719	-19.020	2.751
4.718	-19.029	2.753
4.716	-19.037	2.749
4.715	-19.042	2.741
4.714	-19.040	2.732
4.715	-19.034	2.725
4.716	-19.025	2.724
4.405	-19.123	2.778
4.413	-19.120	2.774
4.422	-19.122	2.772
4.428	-19.129	2.772
4.430	-19.138	2.775
4.426	-19.145	2.780
4.418	-19.148	2.784
4.409	-19.146	2.786
4.403	-19.139	2.785
4.401	-19.131	2.783
4.318	-19.219	2.535
4.326	-19.215	2.531
4.335	-19.218	2.529
4.341	-19.224	2.529
4.343	-19.233	2.532
4.339	-19.240	2.537
4.331	-19.243	2.541
4.322	-19.241	2.543
4.316	-19.235	2.542
4.314	-19.226	2.540
4.433	-19.291	2.786
4.435	-19.282	2.787
4.432	-19.273	2.790
4.424	-19.269	2.793
4.415	-19.270	2.795
4.409	-19.277	2.797
4.407	-19.286	2.796
4.410	-19.294	2.793
4.418	-19.298	2.790
4.426	-19.297	2.787
4.518	-19.333	3.046
4.520	-19.324	3.047
4.517	-19.316	3.049
4.509	-19.312	3.052
4.501	-19.313	3.055
4.494	-19.319	3.056
4.492	-19.328	3.055
4.495	-19.337	3.053
4.503	-19.341	3.050
4.512	-19.340	3.047
4.425	-19.422	2.793
4.431	-19.419	2.800
4.435	-19.422	2.808
4.435	-19.428	2.814
4.432	-19.437	2.816
4.427	-19.444	2.813
4.422	-19.447	2.807
4.418	-19.445	2.798
4.417	-19.438	2.792
4.420	-19.429	2.790
4.625	-19.516	2.673
4.630	-19.513	2.680
4.634	-19.516	2.688
4.635	-19.523	2.694
4.632	-19.531	2.696
4.627	-19.538	2.693
4.621	-19.541	2.686
4.617	-19.539	2.678
4.617	-19.532	2.672
4.620	-19.523	2.670
4.440	-19.595	2.816
4.443	-19.588	2.821
4.442	-19.578	2.822
4.438	-19.571	2.819
4.431	-19.568	2.813
4.425	-19.571	2.806
4.422	-19.578	2.802
4.423	-19.587	2.801
4.427	-19.595	2.804
4.434	-19.598	2.810
4.306	-19.618	2.945
4.309	-19.611	2.950
4.309	-19.602	2.951
4.304	-19.594	2.947
4.298	-19.591	2.941
4.292	-19.594	2.935
4.289	-19.601	2.930
4.289	-19.610	2.929
4.294	-19.618	2.932
4.300	-19.621	2.938
4.427	-19.725	2.824
4.432	-19.719	2.818
4.440	-19.719	2.813
4.447	-19.724	2.811
4.451	-19.732	2.811
4.451	-19.740	2.815
4.446	-19.746	2.821
4.438	-19.746	2.826
4.430	-19.741	2.828
4.426	-19.733	2.827
4.332	-19.787	2.670
4.337	-19.782	2.665
4.345	-19.781	2.660
4.353	-19.786	2.657
4.357	-19.794	2.658
4.356	-19.803	2.662
4.351	-19.808	2.667
4.343	-19.809	2.672
4.336	-19.804	2.675
4.332	-19.796	2.674
4.453	-19.894	2.830
4.455	-19.887	2.836
4.454	-19.878	2.838
4.448	-19.871	2.836
4.442	-19.868	2.831
4.436	-19.870	2.824
4.434	-19.877	2.818
4.436	-19.886	2.815
4.441	-19.893	2.817
4.448	-19.896	2.823
4.313	-19.961	2.960
4.315	-19.954	2.965
4.313	-19.945	2.968
4.308	-19.938	2.966
4.301	-19.935	2.960
4.295	-19.937	2.953
4.293	-19.944	2.947
4.295	-19.952	2.945
4.300	-19.960	2.947
4.307	-19.963	2.952
4.439	-20.030	2.843
4.440	-20.022	2.838
4.446	-20.018	2.832
4.453	-20.019	2.826
4.459	-20.025	2.823
4.462	-20.034	2.824
4.460	-20.042	2.828
4.454	-20.046	2.835
4.447	-20.045	2.840
4.441	-20.038	2.843
4.335	-20.070	2.723
4.337	-20.062	2.719
4.343	-20.058	2.713
4.350	-20.060	2.707
4.356	-20.066	2.704
4.358	-20.075	2.705
4.357	-20.083	2.709
4.351	-20.087	2.715
4.344	-20.085	2.721
4.338	-20.079	2.724
1.271	-6.028	0.648
1.279	-6.026	0.653
1.285	-6.030	0.659
1.287	-6.037	0.664
1.284	-6.046	0.667
1.278	-6.052	0.665
1.270	-6.054	0.660
1.264	-6.051	0.654
1.262	-6.044	0.649
1.265	-6.035	0.647
1.737	-6.347	0.010
1.745	-6.346	0.015
1.750	-6.349	0.022
1.751	-6.356	0.028
1.747	-6.364	0.031
1.740	-6.370	0.030
1.732	-6.371	0.025
1.727	-6.368	0.018
1.726	-6.361	0.012
1.730	-6.353	0.009
2.207	-6.914	-0.488
2.214	-6.913	-0.483
2.219	-6.916	-0.475
2.218	-6.922	-0.468
2.212	-6.929	-0.465
2.204	-6.934	-0.466
2.197	-6.935	-0.471
2.193	-6.931	-0.479
2.194	-6.925	-0.486
2.199	-6.919	-0.489
2.249	-6.982	-0.538
2.257	-6.982	-0.533
2.261	-6.985	-0.525
2.259	-6.991	-0.518
2.254	-6.997	-0.514
2.245	-7.001	-0.515
2.238	-7.002	-0.521
2.234	-6.999	-0.528
2.235	-6.993	-0.535
2.241	-6.986	-0.539
4.464	-20.194	2.843
4.466	-20.187	2.850
4.463	-20.179	2.853
4.458	-20.171	2.850
4.452	-20.168	2.844
4.447	-20.170	2.836
4.446	-20.176	2.830
4.448	-20.185	2.827
4.453	-20.192	2.829
4.460	-20.195	2.835
4.374	-20.239	2.907
4.376	-20.233	2.914
4.373	-20.224	2.917
4.368	-20.217	2.915
4.362	-20.213	2.908
4.357	-20.215	2.901
4.356	-20.222	2.894
4.358	-20.230	2.891
4.364	-20.238	2.893
4.370	-20.241	2.900
4.460	-20.320	2.842
4.466	-20.317	2.849
4.470	-20.319	2.857
4.471	-20.326	2.863
4.469	-20.335	2.864
4.465	-20.342	2.861
4.459	-20.345	2.854
4.455	-20.343	2.846
4.454	-20.336	2.840
4.456	-20.327	2.839
4.536	-20.347	2.792
4.542	-20.344	2.799
4.546	-20.347	2.807
4.547	-20.354	2.813
4.545	-20.363	2.814
4.540	-20.370	2.811
4.535	-20.373	2.804
4.531	-20.370	2.796
4.529	-20.363	2.791
4.532	-20.354	2.789
4.458	-20.470	2.866
4.465	-20.466	2.861
4.474	-20.468	2.857
4.480	-20.474	2.856
4.483	-20.482	2.859
4.481	-20.490	2.863
4.474	-20.494	2.868
4.466	-20.493	2.872
4.459	-20.487	2.873
4.456	-20.478	2.870
4.431	-20.494	2.808
4.439	-20.490	2.808
4.449	-20.491	2.808
4.455	-20.498	2.808
4.457	-20.507	2.808
4.452	-20.515	2.808
4.444	-20.519	2.808
4.435	-20.518	2.808
4.428	-20.511	2.808
4.427	-20.502	2.808
4.466	-20.629	2.887
4.466	-20.621	2.883
4.471	-20.616	2.877
4.477	-20.616	2.870
4.484	-20.621	2.866
4.487	-20.630	2.866
4.487	-20.638	2.870
4.483	-20.643	2.877
4.476	-20.643	2.883
4.469	-20.638	2.887
4.424	-20.647	2.844
4.424	-20.639	2.840
4.429	-20.634	2.834
4.435	-20.634	2.827
4.442	-20.640	2.823
4.445	-20.648	2.823
4.445	-20.656	2.827
4.440	-20.661	2.834
4.434	-20.661	2.840
4.427	-20.656	2.844
4.494	-20.782	2.875
4.495	-20.773	2.877
4.490	-20.767	2.882
4.483	-20.765	2.888
4.476	-20.769	2.892
4.471	-20.776	2.892
4.470	-20.785	2.890
4.474	-20.792	2.885
4.481	-20.794	2.880
4.489	-20.790	2.876
4.511	-20.791	2.900
4.511	-20.782	2.903
4.507	-20.775	2.908
4.500	-20.773	2.913
4.492	-20.777	2.917
4.487	-20.785	2.918
4.486	-20.793	2.915
4.491	-20.800	2.910
4.498	-20.802	2.905
4.506	-20.798	2.901
4.496	-20.941	2.895
4.498	-20.934	2.901
4.496	-20.925	2.903
4.492	-20.918	2.900
4.486	-20.915	2.894
4.480	-20.917	2.886
4.478	-20.924	2.881
4.480	-20.933	2.879
4.485	-20.940	2.882
4.491	-20.944	2.888
4.487	-20.944	2.902
[...]
         <CellData>
           <DataArray type="Float32" Name="aerenchymaFormation" NumberOfComponents="1" format="ascii">
 3.332e-02 0.000e+00 0.000e+00 3.238e-02 5.000e-03 0.000e+00 0.000e+00 2.394e-02 0.000e+00 0.000e+00 0.000e+00 0.000e+00 0.000e+00 0.000e+00 0.000e+00 0.000e+00 0.000e+00 0.000e+00 0.000e+00 0.000e+00 0.000e+00 2.300e-02 0.000e+00 0.000e+00 0.000e+00 0.000e+00 0.000e+00 0.000e+00 0.000e+00 0.000e+00 2.207e-02 0.000e+00 0.000e+00 0.000e+00 2.113e-02 0.000e+00 0.000e+00 2.019e-02 0.000e+00 0.000e+00 0.000e+00 1.925e-02 0.000e+00 0.000e+00 1.832e-02 0.000e+00 0.000e+00 1.738e-02 0.000e+00 0.000e+00 1.644e-02 0.000e+00 0.000e+00 1.550e-02 0.000e+00 0.000e+00 3.144e-02 2.500e-03 0.000e+00 0.000e+00 1.457e-02 0.000e+00 0.000e+00 1.363e-02 0.000e+00 0.000e+00 1.269e-02 0.000e+00 0.000e+00 1.175e-02 0.000e+00 0.000e+00 1.082e-02 0.000e+00 0.000e+00 9.879e-03 0.000e+00 0.000e+00 8.941e-03 0.000e+00 8.004e-03 0.000e+00 0.000e+00 7.066e-03 0.000e+00 0.000e+00 6.129e-03 0.000e+00 0.000e+00 3.050e-02 0.000e+00 0.000e+00 5.191e-03 0.000e+00 0.000e+00 4.254e-03 0.000e+00 0.000e+00 3.316e-03 0.000e+00 2.379e-03 0.000e+00 0.000e+00 1.441e-03 0.000e+00 0.000e+00 5.035e-04 0.000e+00 0.000e+00 0.000e+00 0.000e+00 0.000e+00 0.000e+00 0.000e+00 0.000e+00 0.000e+00 0.000e+00 2.957e-02 0.000e+00 0.000e+00 0.000e+00 0.000e+00 0.000e+00 0.000e+00 0.000e+00 0.000e+00 0.000e+00 0.000e+00 0.000e+00 0.000e+00 0.000e+00 0.000e+00 0.000e+00 0.000e+00 0.000e+00 0.000e+00 0.000e+00 0.000e+00 0.000e+00 0.000e+00 0.000e+00 0.000e+00 0.000e+00 2.863e-02 0.000e+00 0.000e+00 0.000e+00 0.000e+00 0.000e+00 0.000e+00 0.000e+00 0.000e+00 0.000e+00 0.000e+00 0.000e+00 0.000e+00 0.000e+00 0.000e+00 0.000e+00 0.000e+00 0.000e+00 0.000e+00 0.000e+00 0.000e+00 0.000e+00 0.000e+00 0.000e+00 2.769e-02 0.000e+00 0.000e+00 0.000e+00 0.000e+00 0.000e+00 0.000e+00 0.000e+00 0.000e+00 0.000e+00 0.000e+00 0.000e+00 0.000e+00 0.000e+00 0.000e+00 0.000e+00 0.000e+00 0.000e+00 0.000e+00 0.000e+00 0.000e+00 0.000e+00 0.000e+00 2.675e-02 0.000e+00 0.000e+00 0.000e+00 0.000e+00 0.000e+00 0.000e+00 0.000e+00 0.000e+00 0.000e+00 0.000e+00 0.000e+00 0.000e+00 0.000e+00 0.000e+00 0.000e+00 0.000e+00 0.000e+00 0.000e+00 0.000e+00 0.000e+00 2.582e-02 0.000e+00 0.000e+00 0.000e+00 0.000e+00 0.000e+00 0.000e+00 0.000e+00 0.000e+00 0.000e+00 0.000e+00 0.000e+00 0.000e+00 2.488e-02 0.000e+00 0.000e+00 0.000e+00 0.000e+00 0.000e+00 0.000e+00 0.000e+00 0.000e+00 0.000e+00 0.000e+00 0.000e+00 0.000e+00 0.000e+00 7.833e-02 6.800e-02 6.300e-02 6.000e-02 5.700e-02 5.500e-02 5.300e-02 5.100e-02 4.750e-02 4.250e-02 3.750e-02 3.250e-02 2.750e-02 2.250e-02 1.750e-02 1.250e-02 7.500e-03 2.500e-03 0.000e+00 0.000e+00 0.000e+00 0.000e+00 0.000e+00 0.000e+00 0.000e+00 0.000e+00 0.000e+00 0.000e+00 0.000e+00 0.000e+00 0.000e+00 0.000e+00 0.000e+00 3.332e-02 0.000e+00 0.000e+00 0.000e+00 3.238e-02 2.500e-03 0.000e+00 0.000e+00 2.394e-02 0.000e+00 0.000e+00 0.000e+00 0.000e+00 0.000e+00 0.000e+00 0.000e+00 0.000e+00 0.000e+00 0.000e+00 0.000e+00 0.000e+00 0.000e+00 2.300e-02 0.000e+00 0.000e+00 0.000e+00 0.000e+00 0.000e+00 0.000e+00 0.000e+00 0.000e+00 2.207e-02 0.000e+00 0.000e+00 2.113e-02 0.000e+00 0.000e+00 2.019e-02 0.000e+00 0.000e+00 1.925e-02 0.000e+00 0.000e+00 0.000e+00 1.832e-02 0.000e+00 0.000e+00 1.738e-02 0.000e+00 0.000e+00 0.000e+00 1.644e-02 0.000e+00 0.000e+00 1.550e-02 0.000e+00 0.000e+00 3.144e-02 0.000e+00 0.000e+00 1.457e-02 0.000e+00 0.000e+00 1.363e-02 0.000e+00 0.000e+00 1.269e-02 0.000e+00 0.000e+00 1.175e-02 0.000e+00 0.000e+00 1.082e-02 0.000e+00 0.000e+00 9.879e-03 0.000e+00 8.941e-03 0.000e+00 0.000e+00 8.004e-03 0.000e+00 0.000e+00 7.066e-03 0.000e+00 0.000e+00 6.129e-03 0.000e+00 0.000e+00 3.050e-02 0.000e+00 0.000e+00 0.000e+00 5.191e-03 0.000e+00 0.000e+00 4.254e-03 0.000e+00 3.316e-03 0.000e+00 0.000e+00 2.379e-03 0.000e+00 1.441e-03 0.000e+00 0.000e+00 5.035e-04 0.000e+00 0.000e+00 0.000e+00 0.000e+00 0.000e+00 0.000e+00 0.000e+00 0.000e+00 0.000e+00 0.000e+00 0.000e+00 0.000e+00 2.957e-02 0.000e+00 0.000e+00 0.000e+00 0.000e+00 0.000e+00 0.000e+00 0.000e+00 0.000e+00 0.000e+00 0.000e+00 0.000e+00 0.000e+00 0.000e+00 0.000e+00 0.000e+00 0.000e+00 0.000e+00 0.000e+00 0.000e+00 0.000e+00 0.000e+00 0.000e+00 0.000e+00 2.863e-02 0.000e+00 0.000e+00 0.000e+00 0.000e+00 0.000e+00 0.000e+00 0.000e+00 0.000e+00 0.000e+00 0.000e+00 0.000e+00 0.000e+00 0.000e+00 0.000e+00 0.000e+00 0.000e+00 0.000e+00 0.000e+00 0.000e+00 0.000e+00 0.000e+00 0.000e+00 0.000e+00 2.769e-02 0.000e+00 0.000e+00 0.000e+00 0.000e+00 0.000e+00 0.000e+00 0.000e+00 0.000e+00 0.000e+00 0.000e+00 0.000e+00 0.000e+00 0.000e+00 0.000e+00 0.000e+00 0.000e+00 0.000e+00 0.000e+00 0.000e+00 0.000e+00 0.000e+00 2.675e-02 0.000e+00 0.000e+00 0.000e+00 0.000e+00 0.000e+00 0.000e+00 0.000e+00 0.000e+00 0.000e+00 0.000e+00 0.000e+00 0.000e+00 0.000e+00 0.000e+00 0.000e+00 0.000e+00 0.000e+00 0.000e+00 0.000e+00 2.582e-02 0.000e+00 0.000e+00 0.000e+00 0.000e+00 0.000e+00 0.000e+00 0.000e+00 0.000e+00 0.000e+00 0.000e+00 0.000e+00 0.000e+00 2.488e-02 0.000e+00 0.000e+00 0.000e+00 0.000e+00 0.000e+00 0.000e+00 0.000e+00 0.000e+00 0.000e+00 0.000e+00 0.000e+00 0.000e+00 7.833e-02 6.800e-02 6.300e-02 6.000e-02 5.700e-02 5.500e-02 5.300e-02 5.100e-02 4.750e-02 4.250e-02 3.750e-02 3.250e-02 2.750e-02 2.250e-02 1.750e-02 1.250e-02 7.500e-03 2.500e-03 0.000e+00 0.000e+00 0.000e+00 0.000e+00 0.000e+00 0.000e+00 0.000e+00 0.000e+00 0.000e+00 0.000e+00 0.000e+00 0.000e+00 0.000e+00 0.000e+00 0.000e+00 3.332e-02 0.000e+00 0.000e+00 3.238e-02 5.000e-03 0.000e+00 0.000e+00 2.394e-02 0.000e+00 0.000e+00 0.000e+00 0.000e+00 0.000e+00 0.000e+00 0.000e+00 0.000e+00 0.000e+00 0.000e+00 0.000e+00 0.000e+00 2.300e-02 0.000e+00 0.000e+00 0.000e+00 0.000e+00 0.000e+00 0.000e+00 0.000e+00 0.000e+00 2.207e-02 0.000e+00 0.000e+00 2.113e-02 0.000e+00 0.000e+00 2.019e-02 0.000e+00 0.000e+00 1.925e-02 0.000e+00 0.000e+00 1.832e-02 0.000e+00 0.000e+00 1.738e-02 0.000e+00 0.000e+00 1.644e-02 0.000e+00 0.000e+00 1.550e-02 0.000e+00 0.000e+00 3.144e-02 0.000e+00 0.000e+00 0.000e+00 1.457e-02 0.000e+00 0.000e+00 1.363e-02 0.000e+00 0.000e+00 0.000e+00 1.269e-02 0.000e+00 0.000e+00 1.175e-02 0.000e+00 0.000e+00 1.082e-02 0.000e+00 0.000e+00 9.879e-03 0.000e+00 0.000e+00 8.941e-03 0.000e+00 0.000e+00 8.004e-03 0.000e+00 0.000e+00 7.066e-03 0.000e+00 0.000e+00 6.129e-03 0.000e+00 0.000e+00 3.050e-02 0.000e+00 0.000e+00 0.000e+00 5.191e-03 0.000e+00 0.000e+00 4.254e-03 0.000e+00 0.000e+00 3.316e-03 0.000e+00 2.379e-03 0.000e+00 0.000e+00 1.441e-03 0.000e+00 0.000e+00 5.035e-04 0.000e+00 0.000e+00 0.000e+00 0.000e+00 0.000e+00 0.000e+00 0.000e+00 0.000e+00 0.000e+00 0.000e+00 0.000e+00 0.000e+00 2.957e-02 0.000e+00 0.000e+00 0.000e+00 0.000e+00 0.000e+00 0.000e+00 0.000e+00 0.000e+00 0.000e+00 0.000e+00 0.000e+00 0.000e+00 0.000e+00 0.000e+00 0.000e+00 0.000e+00 0.000e+00 0.000e+00 0.000e+00 0.000e+00 0.000e+00 0.000e+00 0.000e+00 0.000e+00 0.000e+00 2.863e-02 0.000e+00 0.000e+00 0.000e+00 0.000e+00 0.000e+00 0.000e+00 0.000e+00 0.000e+00 0.000e+00 0.000e+00 0.000e+00 0.000e+00 0.000e+00 0.000e+00 0.000e+00 0.000e+00 0.000e+00 0.000e+00 0.000e+00 0.000e+00 0.000e+00 0.000e+00 2.769e-02 0.000e+00 0.000e+00 0.000e+00 0.000e+00 0.000e+00 0.000e+00 0.000e+00 0.000e+00 0.000e+00 0.000e+00 0.000e+00 0.000e+00 0.000e+00 0.000e+00 0.000e+00 0.000e+00 0.000e+00 0.000e+00 0.000e+00 0.000e+00 0.000e+00 2.675e-02 0.000e+00 0.000e+00 0.000e+00 0.000e+00 0.000e+00 0.000e+00 0.000e+00 0.000e+00 0.000e+00 0.000e+00 0.000e+00 0.000e+00 0.000e+00 0.000e+00 0.000e+00 0.000e+00 0.000e+00 2.582e-02 0.000e+00 0.000e+00 0.000e+00 0.000e+00 0.000e+00 0.000e+00 0.000e+00 0.000e+00 0.000e+00 0.000e+00 0.000e+00 0.000e+00 0.000e+00 2.488e-02 0.000e+00 0.000e+00 0.000e+00 0.000e+00 0.000e+00 0.000e+00 0.000e+00 0.000e+00 0.000e+00 0.000e+00 0.000e+00 0.000e+00 0.000e+00 7.833e-02 6.800e-02 6.300e-02 6.000e-02 5.700e-02 5.500e-02 5.300e-02 5.100e-02 4.750e-02 4.250e-02 3.750e-02 3.250e-02 2.750e-02 2.250e-02 1.750e-02 1.250e-02 7.500e-03 2.500e-03 0.000e+00 0.000e+00 0.000e+00 0.000e+00 0.000e+00 0.000e+00 0.000e+00 0.000e+00 0.000e+00 0.000e+00 0.000e+00 0.000e+00 0.000e+00 0.000e+00 0.000e+00 3.332e-02 0.000e+00 0.000e+00 0.000e+00 3.238e-02 0.000e+00 0.000e+00 2.394e-02 0.000e+00 0.000e+00 0.000e+00 0.000e+00 0.000e+00 0.000e+00 0.000e+00 0.000e+00 0.000e+00 0.000e+00 0.000e+00 0.000e+00 2.300e-02 0.000e+00 0.000e+00 0.000e+00 0.000e+00 0.000e+00 0.000e+00 0.000e+00 0.000e+00 2.207e-02 0.000e+00 0.000e+00 2.113e-02 0.000e+00 0.000e+00 2.019e-02 0.000e+00 0.000e+00 0.000e+00 1.925e-02 0.000e+00 0.000e+00 0.000e+00 1.832e-02 0.000e+00 0.000e+00 1.738e-02 0.000e+00 1.644e-02 0.000e+00 0.000e+00 1.550e-02 0.000e+00 0.000e+00 3.144e-02 0.000e+00 0.000e+00 0.000e+00 1.457e-02 0.000e+00 0.000e+00 1.363e-02 0.000e+00 0.000e+00 1.269e-02 0.000e+00 0.000e+00 1.175e-02 0.000e+00 0.000e+00 1.082e-02 0.000e+00 0.000e+00 9.879e-03 0.000e+00 0.000e+00 8.941e-03 0.000e+00 0.000e+00 8.004e-03 0.000e+00 0.000e+00 7.066e-03 0.000e+00 0.000e+00 6.129e-03 0.000e+00 0.000e+00 3.050e-02 0.000e+00 0.000e+00 5.191e-03 0.000e+00 0.000e+00 4.254e-03 0.000e+00 0.000e+00 3.316e-03 0.000e+00 0.000e+00 2.379e-03 0.000e+00 0.000e+00 1.441e-03 0.000e+00 0.000e+00 5.035e-04 0.000e+00 0.000e+00 0.000e+00 0.000e+00 0.000e+00 0.000e+00 0.000e+00 0.000e+00 0.000e+00 0.000e+00 0.000e+00 0.000e+00 2.957e-02 0.000e+00 0.000e+00 0.000e+00 0.000e+00 0.000e+00 0.000e+00 0.000e+00 0.000e+00 0.000e+00 0.000e+00 0.000e+00 0.000e+00 0.000e+00 0.000e+00 0.000e+00 0.000e+00 0.000e+00 0.000e+00 0.000e+00 0.000e+00 0.000e+00 0.000e+00 0.000e+00 0.000e+00 0.000e+00 2.863e-02 0.000e+00 0.000e+00 0.000e+00 0.000e+00 0.000e+00 0.000e+00 0.000e+00 0.000e+00 0.000e+00 0.000e+00 0.000e+00 0.000e+00 0.000e+00 0.000e+00 0.000e+00 0.000e+00 0.000e+00 0.000e+00 0.000e+00 0.000e+00 0.000e+00 0.000e+00 2.769e-02 0.000e+00 0.000e+00 0.000e+00 0.000e+00 0.000e+00 0.000e+00 0.000e+00 0.000e+00 0.000e+00 0.000e+00 0.000e+00 0.000e+00 0.000e+00 0.000e+00 0.000e+00 0.000e+00 0.000e+00 0.000e+00 0.000e+00 0.000e+00 0.000e+00 0.000e+00 2.675e-02 0.000e+00 0.000e+00 0.000e+00 0.000e+00 0.000e+00 0.000e+00 0.000e+00 0.000e+00 0.000e+00 0.000e+00 0.000e+00 0.000e+00 0.000e+00 0.000e+00 0.000e+00 0.000e+00 0.000e+00 0.000e+00 0.000e+00 0.000e+00 2.582e-02 0.000e+00 0.000e+00 0.000e+00 0.000e+00 0.000e+00 0.000e+00 0.000e+00 0.000e+00 0.000e+00 0.000e+00 0.000e+00 0.000e+00 0.000e+00 2.488e-02 0.000e+00 0.000e+00 0.000e+00 0.000e+00 0.000e+00 0.000e+00 0.000e+00 0.000e+00 0.000e+00 0.000e+00 0.000e+00 0.000e+00 7.833e-02 6.800e-02 6.300e-02 6.000e-02 5.700e-02 5.500e-02 5.300e-02 5.100e-02 4.750e-02 4.250e-02 3.750e-02 3.250e-02 2.750e-02 2.250e-02 1.750e-02 1.250e-02 7.500e-03 2.500e-03 0.000e+00 0.000e+00 0.000e+00 0.000e+00 0.000e+00 0.000e+00 0.000e+00 0.000e+00 0.000e+00 0.000e+00 0.000e+00 0.000e+00 0.000e+00 0.000e+00 0.000e+00 0.000e+00 0.000e+00 0.000e+00 0.000e+00 0.000e+00 0.000e+00 0.000e+00 0.000e+00 0.000e+00 0.000e+00 0.000e+00 0.000e+00 0.000e+00 0.000e+00 0.000e+00 0.000e+00 0.000e+00 0.000e+00 0.000e+00 0.000e+00 0.000e+00 0.000e+00 0.000e+00 0.000e+00 0.000e+00 0.000e+00 0.000e+00 0.000e+00 0.000e+00 0.000e+00 0.000e+00 0.000e+00 0.000e+00 0.000e+00 0.000e+00 0.000e+00 0.000e+00 0.000e+00 0.000e+00 0.000e+00 0.000e+00 0.000e+00 0.000e+00 0.000e+00 0.000e+00 0.000e+00 0.000e+00 0.000e+00 0.000e+00 0.000e+00 0.000e+00 0.000e+00 0.000e+00 0.000e+00 0.000e+00 0.000e+00 5.750e-02 4.250e-02 3.000e-02 2.250e-02 1.500e-02 1.000e-02 5.000e-03 0.000e+00 0.000e+00 0.000e+00 0.000e+00 0.000e+00 0.000e+00 0.000e+00 0.000e+00 0.000e+00 0.000e+00 0.000e+00 0.000e+00 0.000e+00 0.000e+00 0.000e+00 0.000e+00 0.000e+00 0.000e+00 0.000e+00 0.000e+00 0.000e+00 0.000e+00 0.000e+00 0.000e+00 0.000e+00 0.000e+00 0.000e+00 0.000e+00 0.000e+00 0.000e+00 0.000e+00 0.000e+00 0.000e+00 0.000e+00 0.000e+00 0.000e+00 0.000e+00 0.000e+00 0.000e+00 0.000e+00 0.000e+00 0.000e+00 0.000e+00 0.000e+00 0.000e+00 0.000e+00 0.000e+00 0.000e+00 0.000e+00 0.000e+00 0.000e+00 0.000e+00 0.000e+00 0.000e+00 0.000e+00 0.000e+00 0.000e+00 0.000e+00 0.000e+00 0.000e+00 0.000e+00 0.000e+00 0.000e+00 0.000e+00 0.000e+00 0.000e+00 0.000e+00 0.000e+00 5.750e-02 4.250e-02 3.000e-02 2.250e-02 1.500e-02 1.000e-02 5.000e-03 0.000e+00 0.000e+00 0.000e+00 0.000e+00 0.000e+00 0.000e+00 0.000e+00 0.000e+00 0.000e+00 0.000e+00 0.000e+00 0.000e+00 0.000e+00 0.000e+00 0.000e+00 0.000e+00 0.000e+00 0.000e+00 0.000e+00 0.000e+00 0.000e+00 0.000e+00 0.000e+00 0.000e+00 0.000e+00 0.000e+00 0.000e+00 0.000e+00 0.000e+00 0.000e+00 0.000e+00 0.000e+00 0.000e+00 0.000e+00 0.000e+00 0.000e+00 0.000e+00 0.000e+00 0.000e+00 0.000e+00 0.000e+00 0.000e+00 0.000e+00 0.000e+00 0.000e+00 0.000e+00 0.000e+00 0.000e+00 0.000e+00 0.000e+00 0.000e+00 0.000e+00 0.000e+00 0.000e+00 0.000e+00 0.000e+00 0.000e+00 0.000e+00 0.000e+00 0.000e+00 0.000e+00 0.000e+00 0.000e+00 0.000e+00 0.000e+00 0.000e+00 0.000e+00 0.000e+00 0.000e+00 0.000e+00 0.000e+00 5.750e-02 4.250e-02 3.000e-02 2.250e-02 1.500e-02 1.000e-02 5.000e-03 0.000e+00 0.000e+00 0.000e+00 0.000e+00 0.000e+00 0.000e+00 0.000e+00 0.000e+00 0.000e+00 0.000e+00 0.000e+00 0.000e+00 0.000e+00 0.000e+00 0.000e+00 0.000e+00 0.000e+00 0.000e+00 0.000e+00 0.000e+00 0.000e+00 0.000e+00 0.000e+00 0.000e+00 0.000e+00 0.000e+00 0.000e+00 0.000e+00 0.000e+00 0.000e+00 0.000e+00 0.000e+00 0.000e+00 0.000e+00 0.000e+00 0.000e+00 0.000e+00 0.000e+00 0.000e+00 0.000e+00 0.000e+00 0.000e+00 0.000e+00 0.000e+00 0.000e+00 0.000e+00 0.000e+00 0.000e+00 0.000e+00 0.000e+00 0.000e+00 0.000e+00 0.000e+00 0.000e+00 0.000e+00 0.000e+00 0.000e+00 0.000e+00 0.000e+00 0.000e+00 0.000e+00 0.000e+00 0.000e+00 0.000e+00 0.000e+00 0.000e+00 0.000e+00 0.000e+00 0.000e+00 0.000e+00 0.000e+00 0.000e+00 5.750e-02 4.250e-02 3.000e-02 2.250e-02 1.500e-02 1.000e-02 5.000e-03 0.000e+00 0.000e+00 0.000e+00 0.000e+00 0.000e+00 0.000e+00 0.000e+00 0.000e+00 0.000e+00 0.000e+00 0.000e+00 0.000e+00 0.000e+00 0.000e+00 0.000e+00 0.000e+00 0.000e+00 0.000e+00 0.000e+00 0.000e+00 0.000e+00 0.000e+00 0.000e+00 0.000e+00 0.000e+00 0.000e+00 0.000e+00 0.000e+00 0.000e+00 0.000e+00 0.000e+00 0.000e+00 0.000e+00 0.000e+00 0.000e+00 0.000e+00 0.000e+00 0.000e+00 0.000e+00 0.000e+00 0.000e+00 0.000e+00 0.000e+00 0.000e+00 0.000e+00 0.000e+00 0.000e+00 0.000e+00 0.000e+00 0.000e+00 0.000e+00 0.000e+00 0.000e+00 0.000e+00 0.000e+00 0.000e+00 7.715e-02 6.600e-02 5.400e-02 3.000e-02 0.000e+00 0.000e+00 0.000e+00 0.000e+00 0.000e+00 0.000e+00 7.672e-02 6.600e-02 5.500e-02 3.500e-02 7.500e-03 0.000e+00 0.000e+00 0.000e+00 0.000e+00 7.291e-02 6.100e-02 4.750e-02 1.750e-02 0.000e+00 0.000e+00 1.181e-02 0.000e+00 0.000e+00 1.074e-02 0.000e+00 0.000e+00 0.000e+00 9.684e-03 0.000e+00 0.000e+00 8.623e-03 0.000e+00 0.000e+00 7.563e-03 0.000e+00 0.000e+00 6.502e-03 0.000e+00 0.000e+00 5.441e-03 0.000e+00 0.000e+00 4.381e-03 0.000e+00 0.000e+00 3.320e-03 0.000e+00 0.000e+00 2.259e-03 0.000e+00 0.000e+00 0.000e+00 0.000e+00 7.248e-02 6.100e-02 5.000e-02 2.250e-02 0.000e+00 0.000e+00 0.000e+00 1.199e-03 0.000e+00 0.000e+00 1.379e-04 0.000e+00 0.000e+00 0.000e+00 0.000e+00 0.000e+00 0.000e+00 0.000e+00 0.000e+00 0.000e+00 0.000e+00 0.000e+00 0.000e+00 0.000e+00 0.000e+00 0.000e+00 0.000e+00 0.000e+00 0.000e+00 0.000e+00 0.000e+00 0.000e+00 0.000e+00 0.000e+00 0.000e+00 0.000e+00 0.000e+00 0.000e+00 0.000e+00 7.206e-02 6.000e-02 4.500e-02 1.500e-02 0.000e+00 0.000e+00 0.000e+00 0.000e+00 0.000e+00 0.000e+00 0.000e+00 0.000e+00 0.000e+00 0.000e+00 0.000e+00 0.000e+00 0.000e+00 0.000e+00 0.000e+00 0.000e+00 0.000e+00 0.000e+00 0.000e+00 0.000e+00 0.000e+00 0.000e+00 0.000e+00 0.000e+00 0.000e+00 0.000e+00 0.000e+00 0.000e+00 0.000e+00 0.000e+00 0.000e+00 7.163e-02 6.000e-02 4.500e-02 1.500e-02 0.000e+00 0.000e+00 0.000e+00 0.000e+00 0.000e+00 0.000e+00 0.000e+00 0.000e+00 0.000e+00 0.000e+00 0.000e+00 0.000e+00 0.000e+00 0.000e+00 0.000e+00 0.000e+00 0.000e+00 0.000e+00 0.000e+00 0.000e+00 0.000e+00 0.000e+00 0.000e+00 0.000e+00 0.000e+00 0.000e+00 7.121e-02 6.000e-02 4.750e-02 2.000e-02 0.000e+00 0.000e+00 0.000e+00 0.000e+00 0.000e+00 0.000e+00 0.000e+00 0.000e+00 0.000e+00 0.000e+00 0.000e+00 0.000e+00 0.000e+00 0.000e+00 0.000e+00 0.000e+00 0.000e+00 0.000e+00 0.000e+00 0.000e+00 0.000e+00 0.000e+00 0.000e+00 0.000e+00 0.000e+00 0.000e+00 0.000e+00 7.078e-02 6.200e-02 5.200e-02 3.000e-02 5.000e-03 0.000e+00 0.000e+00 0.000e+00 0.000e+00 0.000e+00 0.000e+00 0.000e+00 0.000e+00 0.000e+00 0.000e+00 0.000e+00 0.000e+00 0.000e+00 0.000e+00 0.000e+00 0.000e+00 0.000e+00 0.000e+00 0.000e+00 7.036e-02 5.700e-02 3.500e-02 0.000e+00 0.000e+00 0.000e+00 0.000e+00 0.000e+00 0.000e+00 0.000e+00 0.000e+00 0.000e+00 0.000e+00 0.000e+00 0.000e+00 0.000e+00 0.000e+00 6.994e-02 5.600e-02 3.000e-02 0.000e+00 0.000e+00 0.000e+00 0.000e+00 0.000e+00 0.000e+00 0.000e+00 0.000e+00 0.000e+00 0.000e+00 0.000e+00 0.000e+00 0.000e+00 0.000e+00 0.000e+00 0.000e+00 6.951e-02 6.000e-02 5.000e-02 2.500e-02 0.000e+00 0.000e+00 0.000e+00 0.000e+00 0.000e+00 0.000e+00 6.909e-02 5.800e-02 4.000e-02 1.000e-02 0.000e+00 0.000e+00 0.000e+00 0.000e+00 7.630e-02 6.400e-02 5.200e-02 2.500e-02 0.000e+00 0.000e+00 0.000e+00 0.000e+00 0.000e+00 0.000e+00 6.866e-02 5.800e-02 4.500e-02 2.000e-02 0.000e+00 0.000e+00 0.000e+00 0.000e+00 6.824e-02 5.600e-02 3.500e-02 5.000e-03 0.000e+00 0.000e+00 0.000e+00 6.782e-02 5.600e-02 3.500e-02 5.000e-03 0.000e+00 0.000e+00 0.000e+00 6.739e-02 5.400e-02 3.000e-02 0.000e+00 0.000e+00 0.000e+00 0.000e+00 6.697e-02 5.400e-02 3.000e-02 0.000e+00 0.000e+00 0.000e+00 6.654e-02 5.300e-02 2.500e-02 0.000e+00 0.000e+00 0.000e+00 0.000e+00 6.612e-02 5.600e-02 4.000e-02 1.500e-02 0.000e+00 0.000e+00 0.000e+00 6.569e-02 5.200e-02 2.000e-02 0.000e+00 0.000e+00 0.000e+00 0.000e+00 6.527e-02 5.400e-02 3.250e-02 5.000e-03 0.000e+00 0.000e+00 0.000e+00 0.000e+00 6.485e-02 5.400e-02 3.250e-02 5.000e-03 0.000e+00 0.000e+00 0.000e+00 0.000e+00 0.000e+00 7.588e-02 6.500e-02 5.400e-02 3.250e-02 5.000e-03 0.000e+00 0.000e+00 0.000e+00 0.000e+00 6.442e-02 5.400e-02 3.250e-02 5.000e-03 0.000e+00 0.000e+00 0.000e+00 0.000e+00 6.400e-02 5.400e-02 3.500e-02 1.000e-02 0.000e+00 0.000e+00 0.000e+00 0.000e+00 0.000e+00 0.000e+00 6.357e-02 5.400e-02 3.500e-02 1.000e-02 0.000e+00 0.000e+00 0.000e+00 0.000e+00 6.315e-02 5.100e-02 2.250e-02 0.000e+00 0.000e+00 0.000e+00 6.272e-02 5.000e-02 1.750e-02 0.000e+00 0.000e+00 0.000e+00 6.230e-02 5.000e-02 2.000e-02 0.000e+00 0.000e+00 0.000e+00 0.000e+00 0.000e+00 6.188e-02 5.200e-02 3.000e-02 5.000e-03 0.000e+00 0.000e+00 0.000e+00 0.000e+00 6.145e-02 5.000e-02 2.000e-02 0.000e+00 0.000e+00 0.000e+00 6.103e-02 4.500e-02 1.000e-02 0.000e+00 0.000e+00 0.000e+00 6.060e-02 5.000e-02 2.250e-02 0.000e+00 0.000e+00 0.000e+00 0.000e+00 0.000e+00 0.000e+00 0.000e+00 7.545e-02 6.600e-02 5.600e-02 4.000e-02 1.500e-02 0.000e+00 0.000e+00 0.000e+00 0.000e+00 6.018e-02 4.750e-02 2.000e-02 0.000e+00 0.000e+00 0.000e+00 0.000e+00 5.975e-02 4.500e-02 1.750e-02 0.000e+00 0.000e+00 0.000e+00 0.000e+00 0.000e+00 5.933e-02 5.000e-02 2.500e-02 0.000e+00 0.000e+00 0.000e+00 5.891e-02 4.000e-02 7.500e-03 0.000e+00 0.000e+00 0.000e+00 5.848e-02 4.500e-02 2.000e-02 0.000e+00 0.000e+00 0.000e+00 5.806e-02 4.000e-02 1.000e-02 0.000e+00 0.000e+00 5.763e-02 3.750e-02 5.000e-03 0.000e+00 0.000e+00 5.721e-02 3.750e-02 7.500e-03 0.000e+00 0.000e+00 5.678e-02 3.500e-02 2.500e-03 0.000e+00 0.000e+00 5.636e-02 3.500e-02 5.000e-03 0.000e+00 0.000e+00 0.000e+00 0.000e+00 0.000e+00 7.503e-02 6.400e-02 5.300e-02 3.000e-02 2.500e-03 0.000e+00 0.000e+00 5.594e-02 3.000e-02 0.000e+00 0.000e+00 0.000e+00 5.551e-02 4.000e-02 1.500e-02 0.000e+00 0.000e+00 0.000e+00 5.509e-02 3.500e-02 7.500e-03 0.000e+00 0.000e+00 5.466e-02 3.500e-02 7.500e-03 0.000e+00 0.000e+00 0.000e+00 5.424e-02 3.500e-02 1.000e-02 0.000e+00 0.000e+00 0.000e+00 5.381e-02 3.000e-02 2.500e-03 0.000e+00 0.000e+00 5.339e-02 3.000e-02 0.000e+00 0.000e+00 0.000e+00 5.297e-02 3.000e-02 2.500e