<?xml version="1.0"?>
<VTKFile type="UnstructuredGrid" version="0.1" byte_order="LittleEndian">
   <UnstructuredGrid>
      <Piece NumberOfPoints="160" NumberOfCells="14">
         <Points>
            <DataArray type="Float32" Name="Position" NumberOfComponents="3" format="ascii">
-0.143	-4.997	0.141
-0.033	-5.001	0.198
0.090	-5.004	0.180
0.178	-5.005	0.093
0.199	-5.005	-0.030
0.143	-5.003	-0.141
0.033	-4.999	-0.198
-0.090	-4.996	-0.180
-0.178	-4.995	-0.093
-0.199	-4.995	0.030
-0.123	-4.249	0.147
-0.013	-4.251	0.204
0.109	-4.252	0.185
0.197	-4.253	0.098
0.217	-4.253	-0.024
0.161	-4.252	-0.135
0.051	-4.250	-0.192
-0.071	-4.248	-0.173
-0.159	-4.247	-0.086
-0.179	-4.248	0.036
-0.120	-3.290	0.148
-0.010	-3.290	0.205
0.112	-3.291	0.185
0.200	-3.291	0.098
0.220	-3.291	-0.024
0.163	-3.291	-0.135
0.053	-3.290	-0.191
-0.069	-3.290	-0.172
-0.157	-3.290	-0.084
-0.176	-3.290	0.038
-0.119	-2.400	0.148
-0.008	-2.400	0.204
0.114	-2.401	0.185
0.201	-2.401	0.098
0.221	-2.401	-0.025
0.165	-2.401	-0.135
0.055	-2.400	-0.191
-0.067	-2.400	-0.172
-0.155	-2.400	-0.085
-0.175	-2.400	0.038
-0.116	-1.800	0.148
-0.006	-1.800	0.205
0.116	-1.801	0.186
0.203	-1.801	0.098
0.223	-1.801	-0.024
0.167	-1.801	-0.134
0.057	-1.801	-0.190
-0.065	-1.800	-0.171
-0.153	-1.800	-0.084
-0.172	-1.800	0.038
-0.115	-1.200	0.147
-0.004	-1.200	0.203
0.118	-1.200	0.184
0.205	-1.200	0.097
0.225	-1.201	-0.025
0.169	-1.201	-0.136
0.059	-1.201	-0.192
-0.064	-1.201	-0.173
-0.151	-1.200	-0.085
-0.171	-1.200	0.037
-0.115	-0.301	0.146
-0.005	-0.301	0.202
0.117	-0.300	0.182
0.204	-0.300	0.095
0.223	-0.299	-0.028
0.167	-0.300	-0.138
0.056	-0.300	-0.193
-0.066	-0.301	-0.174
-0.153	-0.301	-0.086
-0.172	-0.301	0.036
-0.118	-0.002	0.147
-0.007	-0.001	0.202
0.115	0.000	0.182
0.202	0.001	0.095
0.221	0.001	-0.028
0.164	0.001	-0.137
0.054	0.000	-0.193
-0.068	-0.001	-0.173
-0.155	-0.002	-0.085
-0.174	-0.002	0.037
0.031	-4.998	-0.033
0.045	-4.997	-0.008
0.041	-4.997	0.020
0.022	-4.998	0.040
-0.006	-5.000	0.045
-0.031	-5.002	0.033
-0.045	-5.003	0.008
-0.041	-5.003	-0.020
-0.022	-5.002	-0.040
0.006	-5.000	-0.045
0.082	-5.703	-0.024
0.095	-5.701	0.000
0.092	-5.700	0.028
0.072	-5.701	0.048
0.045	-5.704	0.053
0.020	-5.706	0.041
0.007	-5.709	0.017
0.010	-5.709	-0.011
0.030	-5.708	-0.031
0.057	-5.706	-0.037
0.160	-6.403	0.023
0.173	-6.401	0.047
0.170	-6.400	0.075
0.151	-6.402	0.096
0.124	-6.405	0.101
0.099	-6.409	0.090
0.085	-6.411	0.065
0.088	-6.412	0.037
0.107	-6.410	0.017
0.134	-6.407	0.011
0.258	-7.101	0.024
0.272	-7.099	0.048
0.270	-7.100	0.076
0.251	-7.102	0.097
0.225	-7.106	0.103
0.199	-7.110	0.092
0.185	-7.112	0.068
0.188	-7.111	0.040
0.206	-7.109	0.019
0.233	-7.105	0.013
0.358	-7.801	0.015
0.372	-7.800	0.039
0.369	-7.800	0.067
0.351	-7.803	0.088
0.324	-7.806	0.094
0.298	-7.809	0.082
0.284	-7.811	0.058
0.287	-7.811	0.031
0.305	-7.808	0.010
0.332	-7.805	0.004
0.441	-8.504	0.019
0.455	-8.502	0.043
0.451	-8.503	0.071
0.433	-8.504	0.091
0.406	-8.507	0.097
0.380	-8.510	0.085
0.367	-8.511	0.061
0.370	-8.511	0.034
0.389	-8.509	0.013
0.416	-8.507	0.007
0.526	-9.443	0.023
0.540	-9.442	0.047
0.536	-9.442	0.075
0.517	-9.444	0.095
0.490	-9.446	0.100
0.465	-9.448	0.088
0.452	-9.449	0.064
0.455	-9.449	0.036
0.474	-9.447	0.016
0.501	-9.445	0.011
0.540	-9.679	0.023
0.554	-9.678	0.048
0.550	-9.678	0.075
0.531	-9.679	0.096
0.504	-9.681	0.101
0.479	-9.683	0.089
0.465	-9.683	0.064
0.469	-9.683	0.037
0.488	-9.682	0.016
0.515	-9.681	0.011
		    </DataArray>
         </Points>
         <Cells>
            <DataArray type="Int32" Name="connectivity" NumberOfComponents="1" format="ascii">
 0 10 1 11 2 12 3 13 4 14 5 15 6 16 7 17 8 18 9 19 0 10
 10 20 11 21 12 22 13 23 14 24 15 25 16 26 17 27 18 28 19 29 10 20
 20 30 21 31 22 32 23 33 24 34 25 35 26 36 27 37 28 38 29 39 20 30
 30 40 31 41 32 42 33 43 34 44 35 45 36 46 37 47 38 48 39 49 30 40
 40 50 41 51 42 52 43 53 44 54 45 55 46 56 47 57 48 58 49 59 40 50
 50 60 51 61 52 62 53 63 54 64 55 65 56 66 57 67 58 68 59 69 50 60
 60 70 61 71 62 72 63 73 64 74 65 75 66 76 67 77 68 78 69 79 60 70
 80 90 81 91 82 92 83 93 84 94 85 95 86 96 87 97 88 98 89 99 80 90
 90 100 91 101 92 102 93 103 94 104 95 105 96 106 97 107 98 108 99 109 90 100
 100 110 101 111 102 112 103 113 104 114 105 115 106 116 107 117 108 118 109 119 100 110
 110 120 111 121 112 122 113 123 114 124 115 125 116 126 117 127 118 128 119 129 110 120
 120 130 121 131 122 132 123 133 124 134 125 135 126 136 127 137 128 138 129 139 120 130
 130 140 131 141 132 142 133 143 134 144 135 145 136 146 137 147 138 148 139 149 130 140
 140 150 141 151 142 152 143 153 144 154 145 155 146 156 147 157 148 158 149 159 140 150

            </DataArray>
            <DataArray type="Int32" Name="offsets" NumberOfComponents="1" format="ascii">
 22 44 66 88 110 132 154 176 198 220 242 264 286 308
            </DataArray>
            <DataArray type="UInt8"  Name="types" NumberOfComponents="1" format="ascii">
6 6 6 6 6 6 6 6 6 6 6 6 6 6
            </DataArray>
         </Cells>
         <CellData>
           <DataArray type="Float32" Name="aerenchymaFormation" NumberOfComponents="1" format="ascii">
 0.000e+00 0.000e+00 0.000e+00 0.000e+00 0.000e+00 0.000e+00 0.000e+00 0.000e+00 0.000e+00 0.000e+00 0.000e+00 0.000e+00 0.000e+00 0.000e+00
           </DataArray>
           <DataArray type="Float32" Name="combinedRootClassID" NumberOfComponents="1" format="ascii">
 -2.000e+00 -2.000e+00 -2.000e+00 -2.000e+00 -2.000e+00 -2.000e+00 -2.000e+00 -4.000e+00 -4.000e+00 -4.000e+00 -4.000e+00 -4.000e+00 -4.000e+00 -4.000e+00
           </DataArray>
           <DataArray type="Float32" Name="nitrate/Cmin" NumberOfComponents="1" format="ascii">
 1.000e-03 1.000e-03 1.000e-03 1.000e-03 1.000e-03 1.000e-03 1.000e-03 1.000e-03 1.000e-03 1.000e-03 1.000e-03 1.000e-03 1.000e-03 1.000e-03
           </DataArray>
           <DataArray type="Float32" Name="nitrate/Imax" NumberOfComponents="1" format="ascii">
 1.900e+00 1.900e+00 1.900e+00 1.900e+00 1.900e+00 1.900e+00 1.900e+00 1.900e+00 1.900e+00 1.900e+00 1.900e+00 1.900e+00 1.900e+00 1.900e+00
           </DataArray>
           <DataArray type="Float32" Name="nitrate/Km" NumberOfComponents="1" format="ascii">
 1.610e-02 1.610e-02 1.610e-02 1.610e-02 1.610e-02 1.610e-02 1.610e-02 1.610e-02 1.610e-02 1.610e-02 1.610e-02 1.610e-02 1.610e-02 1.610e-02
           </DataArray>
           <DataArray type="Float32" Name="nitrate/minimalNutrientConcentration" NumberOfComponents="1" format="ascii">
 6.000e+02 6.000e+02 6.000e+02 6.000e+02 6.000e+02 6.000e+02 6.000e+02 6.000e+02 6.000e+02 6.000e+02 6.000e+02 6.000e+02 6.000e+02 6.000e+02
           </DataArray>
           <DataArray type="Float32" Name="nitrate/nutrientConcentrationAtTheRootSurface" NumberOfComponents="1" format="ascii">
 2.222e+00 2.092e+00 2.050e+00 2.116e+00 2.215e+00 2.334e+00 2.436e+00 2.222e+00 2.337e+00 2.459e+00 2.576e+00 2.740e+00 2.922e+00 3.032e+00
           </DataArray>
           <DataArray type="Float32" Name="nitrate/optimalNutrientConcentration" NumberOfComponents="1" format="ascii">
 1.200e+03 1.200e+03 1.200e+03 1.200e+03 1.200e+03 1.200e+03 1.200e+03 1.200e+03 1.200e+03 1.200e+03 1.200e+03 1.200e+03 1.200e+03 1.200e+03
           </DataArray>
           <DataArray type="Float32" Name="nitrate/rootSegmentMinimalNutrientContent" NumberOfComponents="1" format="ascii">
 5.362e+00 6.837e+00 6.325e+00 4.258e+00 4.256e+00 6.381e+00 2.126e+00 2.594e-01 2.578e-01 2.565e-01 2.554e-01 2.546e-01 3.387e-01 8.457e-02
           </DataArray>
           <DataArray type="Float32" Name="nitrate/rootSegmentNutrientUptake" NumberOfComponents="1" format="ascii">
 0.000e+00 1.768e+00 1.313e+00 9.750e-01 7.414e-01 4.931e-01 7.116e-02 0.000e+00 6.056e-01 4.918e-01 3.781e-01 2.646e-01 1.764e-01 1.259e-02
           </DataArray>
           <DataArray type="Float32" Name="nitrate/rootSegmentOptimalNutrientContent" NumberOfComponents="1" format="ascii">
 1.072e+01 1.367e+01 1.265e+01 8.517e+00 8.512e+00 1.276e+01 4.253e+00 5.188e-01 5.156e-01 5.130e-01 5.108e-01 5.092e-01 6.775e-01 1.691e-01
           </DataArray>
           <DataArray type="Float32" Name="parentRootClassID" NumberOfComponents="1" format="ascii">
 -3.000e+00 -3.000e+00 -3.000e+00 -3.000e+00 -3.000e+00 -3.000e+00 -3.000e+00 -3.000e+00 -3.000e+00 -3.000e+00 -3.000e+00 -3.000e+00 -3.000e+00 -3.000e+00
           </DataArray>
           <DataArray type="Float32" Name="plantID" NumberOfComponents="1" format="ascii">
 3.000e+00 3.000e+00 3.000e+00 3.000e+00 3.000e+00 3.000e+00 3.000e+00 3.000e+00 3.000e+00 3.000e+00 3.000e+00 3.000e+00 3.000e+00 3.000e+00
           </DataArray>
           <DataArray type="Float32" Name="plantTypeID" NumberOfComponents="1" format="ascii">
 0.000e+00 0.000e+00 0.000e+00 0.000e+00 0.000e+00 0.000e+00 0.000e+00 0.000e+00 0.000e+00 0.000e+00 0.000e+00 0.000e+00 0.000e+00 0.000e+00
           </DataArray>
           <DataArray type="Float32" Name="potassium/Cmin" NumberOfComponents="1" format="ascii">
 2.000e-03 2.000e-03 2.000e-03 2.000e-03 2.000e-03 2.000e-03 2.000e-03 2.000e-03 2.000e-03 2.000e-03 2.000e-03 2.000e-03 2.000e-03 2.000e-03
           </DataArray>
           <DataArray type="Float32" Name="potassium/Imax" NumberOfComponents="1" format="ascii">
 4.670e-01 4.670e-01 4.670e-01 4.670e-01 4.670e-01 4.670e-01 4.670e-01 4.670e-01 4.670e-01 4.670e-01 4.670e-01 4.670e-01 4.670e-01 4.670e-01
           </DataArray>
           <DataArray type="Float32" Name="potassium/Km" NumberOfComponents="1" format="ascii">
 3.900e-02 3.900e-02 3.900e-02 3.900e-02 3.900e-02 3.900e-02 3.900e-02 3.900e-02 3.900e-02 3.900e-02 3.900e-02 3.900e-02 3.900e-02 3.900e-02
           </DataArray>
           <DataArray type="Float32" Name="potassium/minimalNutrientConcentration" NumberOfComponents="1" format="ascii">
 1.680e+02 1.680e+02 1.680e+02 1.680e+02 1.680e+02 1.680e+02 1.680e+02 1.680e+02 1.680e+02 1.680e+02 1.680e+02 1.680e+02 1.680e+02 1.680e+02
           </DataArray>
           <DataArray type="Float32" Name="potassium/nutrientConcentrationAtTheRootSurface" NumberOfComponents="1" format="ascii">
 1.496e-01 1.496e-01 1.496e-01 1.497e-01 1.497e-01 1.498e-01 1.499e-01 1.496e-01 1.495e-01 1.495e-01 1.495e-01 1.496e-01 1.498e-01 1.499e-01
           </DataArray>
           <DataArray type="Float32" Name="potassium/optimalNutrientConcentration" NumberOfComponents="1" format="ascii">
 2.340e+02 2.340e+02 2.340e+02 2.340e+02 2.340e+02 2.340e+02 2.340e+02 2.340e+02 2.340e+02 2.340e+02 2.340e+02 2.340e+02 2.340e+02 2.340e+02
           </DataArray>
           <DataArray type="Float32" Name="potassium/rootSegmentMinimalNutrientContent" NumberOfComponents="1" format="ascii">
 1.501e+00 1.914e+00 1.771e+00 1.192e+00 1.192e+00 1.787e+00 5.954e-01 7.263e-02 7.218e-02 7.181e-02 7.152e-02 7.129e-02 9.485e-02 2.368e-02
           </DataArray>
           <DataArray type="Float32" Name="potassium/rootSegmentNutrientUptake" NumberOfComponents="1" format="ascii">
 0.000e+00 1.229e-01 9.012e-02 6.554e-02 4.915e-02 3.277e-02 8.190e-03 0.000e+00 1.186e-01 9.623e-02 7.397e-02 5.175e-02 3.118e-02 2.463e-03
           </DataArray>
           <DataArray type="Float32" Name="potassium/rootSegmentOptimalNutrientContent" NumberOfComponents="1" format="ascii">
 2.091e+00 2.667e+00 2.467e+00 1.661e+00 1.660e+00 2.489e+00 8.292e-01 1.012e-01 1.005e-01 1.000e-01 9.961e-02 9.930e-02 1.321e-01 3.298e-02
           </DataArray>
           <DataArray type="Float32" Name="rootCircumference" NumberOfComponents="1" format="ascii">
 1.262e+00 1.260e+00 1.258e+00 1.258e+00 1.257e+00 1.257e+00 1.257e+00 2.859e-01 2.850e-01 2.843e-01 2.837e-01 2.832e-01 2.829e-01 2.828e-01
           </DataArray>
           <DataArray type="Float32" Name="rootClassID" NumberOfComponents="1" format="ascii">
 -2.000e+00 -2.000e+00 -2.000e+00 -2.000e+00 -2.000e+00 -2.000e+00 -2.000e+00 -4.000e+00 -4.000e+00 -4.000e+00 -4.000e+00 -4.000e+00 -4.000e+00 -4.000e+00
           </DataArray>
           <DataArray type="Float32" Name="rootDiameter" NumberOfComponents="1" format="ascii">
 4.018e-01 4.010e-01 4.005e-01 4.003e-01 4.002e-01 4.001e-01 4.000e-01 9.100e-02 9.072e-02 9.049e-02 9.030e-02 9.016e-02 9.006e-02 9.000e-02
           </DataArray>
           <DataArray type="Float32" Name="rootLength2Base" NumberOfComponents="1" format="ascii">
 0.000e+00 7.500e-01 1.710e+00 2.600e+00 3.200e+00 3.800e+00 4.700e+00 0.000e+00 7.071e-01 1.414e+00 2.121e+00 2.828e+00 3.535e+00 4.478e+00
           </DataArray>
           <DataArray type="Float32" Name="rootPotentialSecondaryGrowth" NumberOfComponents="1" format="ascii">
 4.018e-01 4.010e-01 4.005e-01 4.003e-01 4.002e-01 4.001e-01 4.000e-01 9.100e-02 9.072e-02 9.049e-02 9.030e-02 9.016e-02 9.006e-02 9.000e-02
           </DataArray>
           <DataArray type="Float32" Name="rootSegmentAge" NumberOfComponents="1" format="ascii">
 2.000e+00 1.500e+00 1.100e+00 8.000e-01 6.000e-01 4.000e-01 1.000e-01 2.000e+00 1.700e+00 1.400e+00 1.100e+00 8.000e-01 5.000e-01 1.000e-01
           </DataArray>
           <DataArray type="Float32" Name="rootSegmentCarbonCostOfExudates" NumberOfComponents="1" format="ascii">
 0.000e+00 0.000e+00 0.000e+00 0.000e+00 0.000e+00 0.000e+00 0.000e+00 2.203e-05 1.872e-05 1.547e-05 1.193e-05 8.390e-06 5.280e-06 2.239e-07
           </DataArray>
           <DataArray type="Float32" Name="rootSegmentDryWeight" NumberOfComponents="1" format="ascii">
 8.937e-03 1.140e-02 1.054e-02 7.097e-03 7.093e-03 1.063e-02 3.544e-03 4.323e-04 4.297e-04 4.275e-04 4.257e-04 4.244e-04 5.646e-04 1.410e-04
           </DataArray>
           <DataArray type="Float32" Name="rootSegmentLength" NumberOfComponents="1" format="ascii">
 7.500e-01 9.600e-01 8.900e-01 6.000e-01 6.000e-01 9.000e-01 3.000e-01 7.071e-01 7.071e-01 7.071e-01 7.071e-01 7.071e-01 9.428e-01 2.357e-01
           </DataArray>
           <DataArray type="Float32" Name="rootSegmentLengthDuration" NumberOfComponents="1" format="ascii">
 1.295e+00 1.237e+00 8.493e-01 4.200e-01 3.000e-01 2.300e-01 2.983e-02 1.312e+00 1.100e+00 8.878e-01 6.757e-01 4.635e-01 2.828e-01 2.357e-02
           </DataArray>
           <DataArray type="Float32" Name="rootSegmentRespiration" NumberOfComponents="1" format="ascii">
 3.575e-04 5.983e-04 6.588e-04 4.968e-04 5.320e-04 8.508e-04 3.101e-04 1.729e-05 2.041e-05 2.351e-05 2.661e-05 2.970e-05 4.375e-05 1.233e-05
           </DataArray>
           <DataArray type="Float32" Name="rootSegmentSecondaryPotentialCarbonSinkForGrowth" NumberOfComponents="1" format="ascii">
 2.690e-05 1.902e-05 9.423e-06 3.443e-06 1.768e-06 7.326e-07 1.163e-08 3.647e-06 2.558e-06 1.665e-06 9.637e-07 4.550e-07 1.457e-07 1.175e-09
           </DataArray>
           <DataArray type="Float32" Name="rootSegmentSurfaceArea" NumberOfComponents="1" format="ascii">
 9.466e-01 1.209e+00 1.120e+00 7.545e-01 7.543e-01 1.131e+00 3.770e-01 2.021e-01 2.015e-01 2.010e-01 2.006e-01 2.003e-01 2.668e-01 6.664e-02
           </DataArray>
           <DataArray type="Float32" Name="rootSegmentVolume" NumberOfComponents="1" format="ascii">
 9.507e-02 1.212e-01 1.121e-01 7.550e-02 7.546e-02 1.131e-01 3.770e-02 4.599e-03 4.571e-03 4.547e-03 4.529e-03 4.514e-03 6.006e-03 1.500e-03
           </DataArray>
           <DataArray type="Float32" Name="rootSegmentWaterUptake" NumberOfComponents="1" format="ascii">
 0.000e+00 0.000e+00 0.000e+00 0.000e+00 0.000e+00 0.000e+00 0.000e+00 0.000e+00 0.000e+00 0.000e+00 0.000e+00 0.000e+00 0.000e+00 0.000e+00
           </DataArray>
           <DataArray type="Float32" Name="spatialRootDensity" NumberOfComponents="1" format="ascii">
 3.376e-01 1.688e-01 0.000e+00 0.000e+00 0.000e+00 0.000e+00 0.000e+00 4.082e-01 1.790e-01 0.000e+00 0.000e+00 0.000e+00 0.000e+00 0.000e+00
           </DataArray>
           <DataArray type="Float32" Name="volumetricWaterContentAtTheRootSurface" NumberOfComponents="1" format="ascii">
 2.772e-01 2.772e-01 2.771e-01 2.770e-01 2.770e-01 2.770e-01 2.769e-01 2.772e-01 2.773e-01 2.773e-01 2.773e-01 2.774e-01 2.774e-01 2.775e-01
           </DataArray>
         </CellData>
      </Piece>
   </UnstructuredGrid>
</VTKFile>
