<?xml version="1.0"?>
<VTKFile type="UnstructuredGrid" version="0.1" byte_order="LittleEndian">
   <UnstructuredGrid>
      <Piece NumberOfPoints="60000" NumberOfCells="4383">
         <Points>
            <DataArray type="Float32" Name="Position" NumberOfComponents="3" format="ascii">
0.122	-5.023	0.058
0.129	-5.020	0.064
0.136	-5.023	0.069
0.139	-5.031	0.073
0.139	-5.040	0.074
0.134	-5.047	0.071
0.127	-5.050	0.065
0.120	-5.047	0.059
0.117	-5.039	0.055
0.117	-5.030	0.055
0.683	-5.098	-0.613
0.690	-5.095	-0.607
0.696	-5.098	-0.601
0.700	-5.105	-0.597
0.699	-5.115	-0.596
0.695	-5.122	-0.599
0.688	-5.125	-0.605
0.682	-5.122	-0.611
0.678	-5.114	-0.616
0.679	-5.105	-0.616
1.291	-5.183	-1.215
1.296	-5.180	-1.208
1.301	-5.183	-1.201
1.303	-5.190	-1.196
1.303	-5.200	-1.195
1.299	-5.207	-1.199
1.294	-5.210	-1.206
1.289	-5.207	-1.213
1.286	-5.200	-1.218
1.287	-5.190	-1.219
2.079	-5.275	-1.611
2.084	-5.272	-1.603
2.087	-5.275	-1.596
2.090	-5.282	-1.590
2.089	-5.291	-1.590
2.086	-5.299	-1.594
2.082	-5.302	-1.602
2.078	-5.299	-1.610
2.076	-5.292	-1.615
2.076	-5.283	-1.616
2.292	-5.283	-1.724
2.296	-5.280	-1.716
2.300	-5.283	-1.708
2.303	-5.290	-1.703
2.302	-5.300	-1.703
2.300	-5.307	-1.707
2.296	-5.310	-1.715
2.291	-5.307	-1.723
2.289	-5.300	-1.728
2.289	-5.291	-1.728
0.256	-5.092	0.118
0.255	-5.085	0.123
0.251	-5.081	0.130
0.246	-5.083	0.138
0.242	-5.091	0.142
0.240	-5.100	0.142
0.242	-5.107	0.137
0.246	-5.111	0.129
0.251	-5.108	0.122
0.255	-5.101	0.118
0.955	-5.229	0.558
0.954	-5.221	0.562
0.950	-5.217	0.569
0.944	-5.218	0.577
0.939	-5.225	0.581
0.936	-5.233	0.581
0.937	-5.242	0.576
0.941	-5.246	0.569
0.947	-5.244	0.562
0.952	-5.238	0.558
1.541	-5.502	1.090
1.540	-5.494	1.094
1.536	-5.488	1.100
1.529	-5.488	1.107
1.523	-5.494	1.111
1.519	-5.502	1.111
1.520	-5.511	1.108
1.524	-5.516	1.101
1.531	-5.516	1.095
1.537	-5.511	1.091
2.103	-5.666	1.694
2.102	-5.657	1.697
2.097	-5.652	1.703
2.091	-5.653	1.710
2.085	-5.658	1.714
2.082	-5.667	1.715
2.083	-5.676	1.712
2.088	-5.681	1.706
2.094	-5.681	1.699
2.100	-5.675	1.695
2.773	-5.755	2.262
2.771	-5.746	2.265
2.766	-5.741	2.271
2.760	-5.742	2.278
2.755	-5.747	2.283
2.753	-5.756	2.284
2.754	-5.765	2.281
2.759	-5.770	2.275
2.766	-5.769	2.269
2.771	-5.764	2.264
3.255	-5.795	2.747
3.260	-5.787	2.747
3.258	-5.778	2.746
3.252	-5.771	2.746
3.243	-5.769	2.746
3.235	-5.773	2.746
3.230	-5.781	2.747
3.231	-5.790	2.747
3.238	-5.797	2.748
3.247	-5.799	2.748
1.194	-5.928	0.601
1.198	-5.931	0.608
1.197	-5.934	0.617
1.191	-5.935	0.624
1.183	-5.934	0.626
1.174	-5.931	0.624
1.170	-5.927	0.616
1.171	-5.924	0.608
1.177	-5.923	0.601
1.185	-5.925	0.598
0.985	-6.732	0.306
0.990	-6.735	0.313
0.990	-6.738	0.321
0.985	-6.740	0.328
0.976	-6.740	0.332
0.967	-6.738	0.329
0.962	-6.734	0.322
0.962	-6.731	0.314
0.967	-6.729	0.306
0.976	-6.730	0.303
0.921	-7.518	0.010
0.927	-7.520	0.017
0.928	-7.522	0.026
0.922	-7.525	0.034
0.914	-7.526	0.037
0.905	-7.525	0.034
0.899	-7.523	0.027
0.899	-7.520	0.019
0.904	-7.518	0.011
0.912	-7.517	0.008
0.993	-8.327	-0.188
0.998	-8.328	-0.180
0.997	-8.329	-0.171
0.991	-8.330	-0.164
0.982	-8.331	-0.162
0.974	-8.331	-0.166
0.969	-8.330	-0.173
0.970	-8.329	-0.183
0.976	-8.328	-0.190
0.985	-8.327	-0.192
0.989	-9.203	-0.178
0.992	-9.203	-0.169
0.990	-9.202	-0.160
0.983	-9.201	-0.154
0.974	-9.200	-0.154
0.966	-9.199	-0.159
0.963	-9.199	-0.168
0.965	-9.200	-0.177
0.972	-9.201	-0.182
0.981	-9.202	-0.183
0.847	-9.752	-0.106
0.849	-9.751	-0.097
0.846	-9.750	-0.088
0.839	-9.747	-0.083
0.830	-9.745	-0.084
0.823	-9.744	-0.090
0.820	-9.744	-0.099
0.823	-9.746	-0.107
0.831	-9.749	-0.112
0.840	-9.751	-0.112
4.420	-18.697	2.728
4.423	-18.688	2.730
4.421	-18.680	2.732
4.414	-18.674	2.733
4.405	-18.673	2.733
4.397	-18.678	2.732
4.393	-18.686	2.729
4.395	-18.695	2.727
4.403	-18.701	2.726
4.412	-18.701	2.726
4.386	-18.916	3.554
4.389	-18.908	3.558
4.387	-18.899	3.560
4.380	-18.893	3.561
4.371	-18.892	3.560
4.363	-18.896	3.558
4.360	-18.904	3.554
4.362	-18.913	3.551
4.369	-18.919	3.550
4.378	-18.920	3.551
4.170	-19.276	4.315
4.173	-19.268	4.320
4.171	-19.260	4.323
4.164	-19.254	4.324
4.155	-19.252	4.322
4.147	-19.256	4.318
4.144	-19.264	4.314
4.146	-19.272	4.310
4.153	-19.278	4.310
4.162	-19.279	4.311
4.412	-18.848	2.757
4.411	-18.840	2.762
4.410	-18.831	2.761
4.408	-18.824	2.756
4.408	-18.821	2.747
4.408	-18.825	2.738
4.408	-18.832	2.733
4.410	-18.842	2.734
4.411	-18.849	2.739
4.412	-18.851	2.748
3.575	-18.958	2.805
3.575	-18.950	2.810
3.573	-18.941	2.809
3.572	-18.934	2.804
3.571	-18.931	2.795
3.571	-18.935	2.786
3.571	-18.942	2.781
3.573	-18.951	2.781
3.574	-18.959	2.787
3.575	-18.961	2.796
3.121	-19.033	2.848
3.121	-19.026	2.854
3.119	-19.017	2.853
3.117	-19.009	2.848
3.116	-19.007	2.839
3.116	-19.010	2.830
3.117	-19.017	2.825
3.118	-19.026	2.825
3.120	-19.034	2.831
3.121	-19.036	2.839
4.413	-18.975	2.754
4.414	-18.971	2.762
4.415	-18.972	2.771
4.414	-18.978	2.778
4.412	-18.987	2.780
4.410	-18.995	2.777
4.408	-18.999	2.769
4.408	-18.998	2.760
4.408	-18.992	2.753
4.410	-18.983	2.750
5.244	-19.170	2.696
5.246	-19.165	2.703
5.247	-19.166	2.713
5.245	-19.172	2.720
5.242	-19.180	2.722
5.239	-19.188	2.719
5.237	-19.193	2.711
5.237	-19.192	2.702
5.238	-19.186	2.695
5.241	-19.178	2.692
5.852	-19.446	2.638
5.855	-19.442	2.646
5.855	-19.443	2.655
5.853	-19.448	2.662
5.850	-19.456	2.665
5.846	-19.464	2.662
5.843	-19.468	2.654
5.843	-19.468	2.645
5.845	-19.462	2.638
5.848	-19.454	2.635
4.405	-19.123	2.778
4.413	-19.120	2.776
4.422	-19.122	2.774
4.429	-19.129	2.774
4.430	-19.137	2.777
4.426	-19.145	2.780
4.418	-19.149	2.782
4.409	-19.147	2.784
4.402	-19.140	2.783
4.401	-19.131	2.781
4.222	-19.341	1.971
4.230	-19.338	1.969
4.239	-19.340	1.968
4.245	-19.347	1.968
4.246	-19.356	1.971
4.242	-19.363	1.974
4.234	-19.366	1.976
4.225	-19.364	1.977
4.218	-19.357	1.977
4.217	-19.348	1.974
4.132	-19.504	1.418
4.140	-19.501	1.415
4.149	-19.503	1.415
4.155	-19.510	1.416
4.156	-19.519	1.418
4.151	-19.526	1.421
4.142	-19.529	1.424
4.133	-19.527	1.424
4.128	-19.520	1.423
4.127	-19.511	1.421
4.433	-19.292	2.788
4.435	-19.283	2.788
4.433	-19.275	2.789
4.425	-19.269	2.791
4.416	-19.270	2.794
4.409	-19.275	2.795
4.406	-19.284	2.795
4.409	-19.293	2.794
4.417	-19.298	2.791
4.426	-19.298	2.789
4.632	-19.354	3.613
4.635	-19.345	3.613
4.632	-19.337	3.614
4.624	-19.332	3.616
4.615	-19.332	3.618
4.608	-19.338	3.620
4.606	-19.347	3.620
4.609	-19.355	3.619
4.616	-19.361	3.617
4.625	-19.360	3.614
4.818	-19.383	4.302
4.819	-19.375	4.305
4.820	-19.366	4.303
4.821	-19.359	4.297
4.821	-19.359	4.287
4.820	-19.363	4.279
4.819	-19.372	4.276
4.818	-19.381	4.277
4.817	-19.387	4.284
4.817	-19.388	4.294
4.425	-19.422	2.793
4.429	-19.419	2.801
4.432	-19.421	2.810
4.432	-19.428	2.816
4.431	-19.437	2.817
4.427	-19.444	2.813
4.424	-19.448	2.806
4.421	-19.446	2.797
4.420	-19.439	2.791
4.422	-19.430	2.789
5.223	-19.621	2.482
5.226	-19.617	2.490
5.228	-19.619	2.499
5.229	-19.626	2.505
5.228	-19.635	2.506
5.225	-19.643	2.502
5.222	-19.647	2.494
5.220	-19.645	2.485
5.219	-19.638	2.479
5.220	-19.629	2.478
5.842	-19.692	2.346
5.844	-19.689	2.355
5.846	-19.691	2.364
5.847	-19.697	2.370
5.846	-19.707	2.371
5.844	-19.714	2.367
5.842	-19.718	2.359
5.840	-19.716	2.350
5.839	-19.710	2.343
5.840	-19.700	2.342
4.440	-19.595	2.816
4.444	-19.587	2.820
4.443	-19.578	2.821
4.439	-19.571	2.818
4.432	-19.568	2.813
4.425	-19.571	2.807
4.421	-19.578	2.803
4.422	-19.587	2.802
4.426	-19.595	2.805
4.433	-19.598	2.810
3.898	-19.678	3.480
3.902	-19.670	3.484
3.901	-19.661	3.485
3.896	-19.654	3.483
3.888	-19.651	3.479
3.881	-19.654	3.473
3.878	-19.661	3.469
3.879	-19.670	3.467
3.884	-19.678	3.469
3.892	-19.681	3.474
3.713	-19.786	3.774
3.717	-19.779	3.779
3.715	-19.770	3.781
3.709	-19.763	3.780
3.701	-19.760	3.776
3.694	-19.763	3.771
3.691	-19.770	3.766
3.693	-19.779	3.764
3.698	-19.786	3.765
3.706	-19.789	3.769
4.428	-19.722	2.820
4.435	-19.719	2.815
4.443	-19.720	2.812
4.450	-19.727	2.811
4.452	-19.735	2.814
4.450	-19.743	2.819
4.443	-19.746	2.824
4.434	-19.744	2.827
4.427	-19.738	2.828
4.425	-19.729	2.825
4.087	-20.048	2.123
4.093	-20.043	2.118
4.102	-20.044	2.114
4.109	-20.050	2.112
4.112	-20.059	2.114
4.110	-20.067	2.119
4.104	-20.071	2.124
4.095	-20.070	2.128
4.088	-20.064	2.129
4.085	-20.055	2.127
3.845	-20.212	1.681
3.851	-20.207	1.676
3.859	-20.207	1.672
3.866	-20.212	1.670
3.870	-20.221	1.671
3.869	-20.229	1.675
3.863	-20.234	1.680
3.855	-20.234	1.684
3.847	-20.229	1.686
3.844	-20.220	1.685
4.454	-19.894	2.829
4.456	-19.887	2.835
4.454	-19.878	2.838
4.449	-19.871	2.836
4.441	-19.868	2.831
4.435	-19.871	2.824
4.433	-19.877	2.819
4.435	-19.886	2.816
4.441	-19.893	2.817
4.448	-19.896	2.822
3.927	-20.202	3.411
3.930	-20.195	3.417
3.928	-20.186	3.419
3.922	-20.179	3.418
3.914	-20.176	3.414
3.908	-20.179	3.408
3.905	-20.186	3.403
3.907	-20.195	3.400
3.913	-20.202	3.401
3.920	-20.205	3.405
3.573	-20.457	4.065
3.576	-20.449	4.070
3.574	-20.440	4.072
3.568	-20.434	4.071
3.560	-20.431	4.068
3.553	-20.434	4.063
3.549	-20.442	4.058
3.551	-20.450	4.056
3.557	-20.457	4.056
3.566	-20.460	4.060
4.442	-20.036	2.845
4.441	-20.027	2.844
4.443	-20.020	2.838
4.448	-20.017	2.831
4.453	-20.020	2.824
4.458	-20.028	2.821
4.460	-20.037	2.823
4.458	-20.044	2.828
4.453	-20.046	2.836
4.447	-20.043	2.842
3.762	-20.244	2.328
3.761	-20.234	2.327
3.764	-20.227	2.322
3.769	-20.225	2.315
3.774	-20.228	2.308
3.778	-20.236	2.304
3.779	-20.245	2.306
3.776	-20.252	2.311
3.771	-20.254	2.318
3.766	-20.251	2.325
3.279	-20.271	1.985
3.279	-20.262	1.989
3.279	-20.253	1.988
3.279	-20.247	1.981
3.279	-20.245	1.972
3.279	-20.249	1.964
3.279	-20.258	1.960
3.279	-20.267	1.961
3.279	-20.273	1.968
3.279	-20.275	1.977
1.271	-6.028	0.648
1.279	-6.026	0.653
1.285	-6.030	0.659
1.287	-6.037	0.664
1.284	-6.046	0.667
1.278	-6.052	0.665
1.270	-6.054	0.660
1.264	-6.051	0.654
1.262	-6.044	0.649
1.265	-6.035	0.647
1.737	-6.347	0.010
1.745	-6.346	0.015
1.750	-6.349	0.022
1.751	-6.356	0.028
1.747	-6.364	0.031
1.740	-6.370	0.030
1.732	-6.371	0.025
1.727	-6.368	0.018
1.726	-6.361	0.012
1.730	-6.353	0.009
2.207	-6.914	-0.488
[...]
         <CellData>
           <DataArray type="Float32" Name="aerenchymaFormation" NumberOfComponents="1" format="ascii">
 6.333e-02 4.250e-02 2.500e-03 0.000e+00 6.295e-02 5.200e-02 2.750e-02 0.000e+00 0.000e+00 5.958e-02 4.500e-02 1.750e-02 0.000e+00 0.000e+00 0.000e+00 0.000e+00 0.000e+00 0.000e+00 0.000e+00 0.000e+00 0.000e+00 0.000e+00 0.000e+00 0.000e+00 0.000e+00 0.000e+00 0.000e+00 0.000e+00 0.000e+00 0.000e+00 0.000e+00 0.000e+00 0.000e+00 0.000e+00 5.920e-02 2.750e-02 0.000e+00 0.000e+00 0.000e+00 0.000e+00 0.000e+00 0.000e+00 0.000e+00 0.000e+00 0.000e+00 0.000e+00 0.000e+00 0.000e+00 0.000e+00 0.000e+00 0.000e+00 0.000e+00 0.000e+00 0.000e+00 0.000e+00 0.000e+00 0.000e+00 5.883e-02 4.250e-02 1.250e-02 0.000e+00 0.000e+00 0.000e+00 0.000e+00 0.000e+00 0.000e+00 0.000e+00 0.000e+00 0.000e+00 0.000e+00 0.000e+00 0.000e+00 0.000e+00 0.000e+00 0.000e+00 0.000e+00 0.000e+00 0.000e+00 0.000e+00 0.000e+00 0.000e+00 0.000e+00 5.845e-02 3.500e-02 0.000e+00 0.000e+00 0.000e+00 0.000e+00 0.000e+00 0.000e+00 0.000e+00 0.000e+00 0.000e+00 0.000e+00 0.000e+00 0.000e+00 0.000e+00 5.808e-02 4.000e-02 1.000e-02 0.000e+00 0.000e+00 0.000e+00 0.000e+00 0.000e+00 0.000e+00 0.000e+00 0.000e+00 0.000e+00 0.000e+00 0.000e+00 0.000e+00 5.770e-02 2.750e-02 0.000e+00 0.000e+00 0.000e+00 0.000e+00 0.000e+00 0.000e+00 0.000e+00 0.000e+00 0.000e+00 0.000e+00 0.000e+00 0.000e+00 5.733e-02 3.250e-02 0.000e+00 0.000e+00 0.000e+00 0.000e+00 0.000e+00 0.000e+00 0.000e+00 0.000e+00 0.000e+00 0.000e+00 0.000e+00 5.695e-02 2.500e-02 0.000e+00 0.000e+00 5.658e-02 3.250e-02 0.000e+00 0.000e+00 5.620e-02 2.750e-02 0.000e+00 0.000e+00 6.258e-02 5.100e-02 2.500e-02 0.000e+00 0.000e+00 5.583e-02 3.500e-02 5.000e-03 0.000e+00 0.000e+00 5.545e-02 2.250e-02 0.000e+00 0.000e+00 5.508e-02 2.750e-02 0.000e+00 0.000e+00 5.470e-02 3.250e-02 2.500e-03 0.000e+00 0.000e+00 5.433e-02 2.750e-02 0.000e+00 0.000e+00 5.395e-02 2.000e-02 0.000e+00 0.000e+00 5.358e-02 1.750e-02 0.000e+00 5.320e-02 2.000e-02 0.000e+00 0.000e+00 5.283e-02 2.000e-02 0.000e+00 0.000e+00 5.245e-02 2.250e-02 0.000e+00 0.000e+00 6.220e-02 3.500e-02 0.000e+00 5.208e-02 2.000e-02 0.000e+00 0.000e+00 5.170e-02 2.250e-02 0.000e+00 0.000e+00 5.133e-02 1.250e-02 0.000e+00 5.095e-02 2.000e-02 0.000e+00 0.000e+00 5.058e-02 2.000e-02 0.000e+00 0.000e+00 5.020e-02 1.000e-02 0.000e+00 4.957e-02 1.250e-02 0.000e+00 0.000e+00 4.863e-02 2.000e-02 0.000e+00 0.000e+00 0.000e+00 4.769e-02 1.000e-02 0.000e+00 0.000e+00 4.675e-02 1.000e-02 0.000e+00 0.000e+00 6.183e-02 4.250e-02 5.000e-03 0.000e+00 4.582e-02 1.250e-02 0.000e+00 0.000e+00 4.488e-02 1.500e-02 0.000e+00 0.000e+00 4.394e-02 7.500e-03 0.000e+00 0.000e+00 4.300e-02 0.000e+00 0.000e+00 4.207e-02 5.000e-03 0.000e+00 0.000e+00 4.113e-02 1.000e-02 0.000e+00 0.000e+00 4.019e-02 0.000e+00 0.000e+00 3.925e-02 5.000e-03 0.000e+00 0.000e+00 3.832e-02 2.500e-03 0.000e+00 0.000e+00 3.738e-02 2.500e-03 0.000e+00 0.000e+00 6.145e-02 3.500e-02 0.000e+00 3.644e-02 7.500e-03 0.000e+00 0.000e+00 3.550e-02 0.000e+00 0.000e+00 3.457e-02 0.000e+00 0.000e+00 3.363e-02 0.000e+00 0.000e+00 3.269e-02 0.000e+00 0.000e+00 3.175e-02 0.000e+00 0.000e+00 3.082e-02 0.000e+00 0.000e+00 2.988e-02 0.000e+00 0.000e+00 2.894e-02 0.000e+00 0.000e+00 2.800e-02 0.000e+00 0.000e+00 6.108e-02 4.000e-02 2.500e-03 0.000e+00 2.707e-02 0.000e+00 0.000e+00 0.000e+00 2.613e-02 0.000e+00 0.000e+00 0.000e+00 2.519e-02 0.000e+00 0.000e+00 0.000e+00 2.425e-02 0.000e+00 0.000e+00 2.332e-02 0.000e+00 0.000e+00 2.238e-02 0.000e+00 0.000e+00 2.144e-02 0.000e+00 0.000e+00 2.050e-02 0.000e+00 0.000e+00 1.957e-02 0.000e+00 0.000e+00 1.863e-02 0.000e+00 0.000e+00 6.070e-02 4.250e-02 1.000e-02 0.000e+00 1.769e-02 0.000e+00 0.000e+00 1.675e-02 0.000e+00 0.000e+00 1.582e-02 0.000e+00 0.000e+00 1.488e-02 0.000e+00 0.000e+00 1.394e-02 0.000e+00 0.000e+00 1.300e-02 0.000e+00 0.000e+00 1.207e-02 0.000e+00 0.000e+00 1.113e-02 0.000e+00 0.000e+00 1.019e-02 0.000e+00 0.000e+00 9.254e-03 0.000e+00 0.000e+00 6.033e-02 3.750e-02 0.000e+00 0.000e+00 8.316e-03 0.000e+00 0.000e+00 7.379e-03 0.000e+00 0.000e+00 6.441e-03 0.000e+00 0.000e+00 5.504e-03 0.000e+00 0.000e+00 4.566e-03 0.000e+00 0.000e+00 3.629e-03 0.000e+00 0.000e+00 2.691e-03 0.000e+00 0.000e+00 1.754e-03 0.000e+00 8.160e-04 0.000e+00 0.000e+00 0.000e+00 0.000e+00 0.000e+00 5.995e-02 4.250e-02 1.000e-02 0.000e+00 0.000e+00 0.000e+00 0.000e+00 0.000e+00 0.000e+00 0.000e+00 0.000e+00 0.000e+00 0.000e+00 0.000e+00 0.000e+00 0.000e+00 0.000e+00 0.000e+00 0.000e+00 0.000e+00 0.000e+00 0.000e+00 0.000e+00 0.000e+00 0.000e+00 0.000e+00 0.000e+00 0.000e+00 0.000e+00 0.000e+00 9.833e-02 8.800e-02 8.300e-02 8.000e-02 7.700e-02 7.500e-02 7.300e-02 7.100e-02 6.900e-02 6.700e-02 6.500e-02 6.300e-02 6.100e-02 5.900e-02 5.700e-02 5.500e-02 5.300e-02 5.100e-02 4.750e-02 4.250e-02 3.750e-02 3.250e-02 2.750e-02 2.250e-02 1.750e-02 1.250e-02 7.500e-03 2.500e-03 0.000e+00 0.000e+00 0.000e+00 0.000e+00 0.000e+00 0.000e+00 0.000e+00 0.000e+00 0.000e+00 0.000e+00 0.000e+00 0.000e+00 0.000e+00 0.000e+00 0.000e+00 6.333e-02 4.750e-02 1.250e-02 0.000e+00 6.295e-02 5.100e-02 2.250e-02 0.000e+00 0.000e+00 5.958e-02 4.250e-02 1.250e-02 0.000e+00 0.000e+00 0.000e+00 0.000e+00 0.000e+00 0.000e+00 0.000e+00 0.000e+00 0.000e+00 0.000e+00 0.000e+00 0.000e+00 0.000e+00 0.000e+00 0.000e+00 0.000e+00 0.000e+00 0.000e+00 0.000e+00 0.000e+00 0.000e+00 0.000e+00 0.000e+00 0.000e+00 5.920e-02 3.500e-02 0.000e+00 0.000e+00 0.000e+00 0.000e+00 0.000e+00 0.000e+00 0.000e+00 0.000e+00 0.000e+00 0.000e+00 0.000e+00 0.000e+00 0.000e+00 0.000e+00 0.000e+00 0.000e+00 0.000e+00 0.000e+00 0.000e+00 0.000e+00 0.000e+00 0.000e+00 5.883e-02 4.000e-02 7.500e-03 0.000e+00 0.000e+00 0.000e+00 0.000e+00 0.000e+00 0.000e+00 0.000e+00 0.000e+00 0.000e+00 0.000e+00 0.000e+00 0.000e+00 0.000e+00 0.000e+00 0.000e+00 0.000e+00 0.000e+00 0.000e+00 0.000e+00 0.000e+00 0.000e+00 0.000e+00 5.845e-02 4.000e-02 7.500e-03 0.000e+00 0.000e+00 0.000e+00 0.000e+00 0.000e+00 0.000e+00 0.000e+00 0.000e+00 0.000e+00 0.000e+00 0.000e+00 0.000e+00 0.000e+00 0.000e+00 5.808e-02 3.250e-02 0.000e+00 0.000e+00 0.000e+00 0.000e+00 0.000e+00 0.000e+00 0.000e+00 0.000e+00 0.000e+00 0.000e+00 0.000e+00 0.000e+00 5.770e-02 4.000e-02 1.250e-02 0.000e+00 0.000e+00 0.000e+00 0.000e+00 0.000e+00 0.000e+00 0.000e+00 0.000e+00 0.000e+00 0.000e+00 0.000e+00 0.000e+00 5.733e-02 3.500e-02 2.500e-03 0.000e+00 0.000e+00 0.000e+00 0.000e+00 0.000e+00 0.000e+00 0.000e+00 0.000e+00 0.000e+00 0.000e+00 5.695e-02 3.750e-02 7.500e-03 0.000e+00 0.000e+00 5.658e-02 3.000e-02 0.000e+00 0.000e+00 5.620e-02 2.500e-02 0.000e+00 0.000e+00 6.258e-02 4.500e-02 1.000e-02 0.000e+00 5.583e-02 2.750e-02 0.000e+00 0.000e+00 5.545e-02 3.500e-02 5.000e-03 0.000e+00 0.000e+00 5.508e-02 2.750e-02 0.000e+00 0.000e+00 5.470e-02 2.000e-02 0.000e+00 5.433e-02 2.500e-02 0.000e+00 0.000e+00 5.395e-02 1.500e-02 0.000e+00 5.358e-02 2.750e-02 0.000e+00 0.000e+00 0.000e+00 5.320e-02 2.750e-02 0.000e+00 0.000e+00 0.000e+00 5.283e-02 2.500e-02 0.000e+00 0.000e+00 5.245e-02 1.750e-02 0.000e+00 0.000e+00 6.220e-02 5.000e-02 2.000e-02 0.000e+00 0.000e+00 5.208e-02 2.500e-02 0.000e+00 0.000e+00 0.000e+00 5.170e-02 1.000e-02 0.000e+00 5.133e-02 1.500e-02 0.000e+00 0.000e+00 5.095e-02 1.000e-02 0.000e+00 5.058e-02 1.500e-02 0.000e+00 0.000e+00 5.020e-02 2.000e-02 0.000e+00 0.000e+00 4.957e-02 1.750e-02 0.000e+00 0.000e+00 4.863e-02 1.750e-02 0.000e+00 0.000e+00 4.769e-02 1.000e-02 0.000e+00 0.000e+00 4.675e-02 7.500e-03 0.000e+00 0.000e+00 6.183e-02 4.500e-02 1.000e-02 0.000e+00 4.582e-02 1.000e-02 0.000e+00 0.000e+00 4.488e-02 5.000e-03 0.000e+00 4.394e-02 1.500e-02 0.000e+00 0.000e+00 4.300e-02 2.500e-03 0.000e+00 4.207e-02 7.500e-03 0.000e+00 0.000e+00 4.113e-02 5.000e-03 0.000e+00 0.000e+00 4.019e-02 0.000e+00 0.000e+00 3.925e-02 7.500e-03 0.000e+00 0.000e+00 3.832e-02 2.500e-03 0.000e+00 0.000e+00 3.738e-02 5.000e-03 0.000e+00 0.000e+00 6.145e-02 4.500e-02 1.250e-02 0.000e+00 3.644e-02 0.000e+00 0.000e+00 3.550e-02 5.000e-03 0.000e+00 0.000e+00 3.457e-02 5.000e-03 0.000e+00 0.000e+00 3.363e-02 0.000e+00 0.000e+00 3.269e-02 0.000e+00 0.000e+00 0.000e+00 3.175e-02 0.000e+00 0.000e+00 3.082e-02 0.000e+00 0.000e+00 2.988e-02 0.000e+00 0.000e+00 2.894e-02 0.000e+00 0.000e+00 0.000e+00 2.800e-02 0.000e+00 0.000e+00 6.108e-02 4.250e-02 7.500e-03 0.000e+00 2.707e-02 0.000e+00 0.000e+00 0.000e+00 2.613e-02 0.000e+00 0.000e+00 2.519e-02 0.000e+00 0.000e+00 0.000e+00 2.425e-02 0.000e+00 0.000e+00 2.332e-02 0.000e+00 0.000e+00 2.238e-02 0.000e+00 0.000e+00 2.144e-02 0.000e+00 0.000e+00 2.050e-02 0.000e+00 0.000e+00 1.957e-02 0.000e+00 0.000e+00 1.863e-02 0.000e+00 0.000e+00 6.070e-02 4.750e-02 1.750e-02 0.000e+00 0.000e+00 1.769e-02 0.000e+00 0.000e+00 1.675e-02 0.000e+00 0.000e+00 1.582e-02 0.000e+00 0.000e+00 1.488e-02 0.000e+00 0.000e+00 1.394e-02 0.000e+00 0.000e+00 1.300e-02 0.000e+00 0.000e+00 1.207e-02 0.000e+00 0.000e+00 1.113e-02 0.000e+00 0.000e+00 1.019e-02 0.000e+00 0.000e+00 9.254e-03 0.000e+00 0.000e+00 6.033e-02 4.000e-02 5.000e-03 0.000e+00 8.316e-03 0.000e+00 0.000e+00 7.379e-03 0.000e+00 0.000e+00 6.441e-03 0.000e+00 5.504e-03 0.000e+00 0.000e+00 4.566e-03 0.000e+00 0.000e+00 3.629e-03 0.000e+00 0.000e+00 2.691e-03 0.000e+00 0.000e+00 1.754e-03 0.000e+00 0.000e+00 8.160e-04 0.000e+00 0.000e+00 0.000e+00 0.000e+00 5.995e-02 2.750e-02 0.000e+00 0.000e+00 0.000e+00 0.000e+00 0.000e+00 0.000e+00 0.000e+00 0.000e+00 0.000e+00 0.000e+00 0.000e+00 0.000e+00 0.000e+00 0.000e+00 0.000e+00 0.000e+00 0.000e+00 0.000e+00 0.000e+00 0.000e+00 0.000e+00 0.000e+00 0.000e+00 0.000e+00 0.000e+00 9.833e-02 8.800e-02 8.300e-02 8.000e-02 7.700e-02 7.500e-02 7.300e-02 7.100e-02 6.900e-02 6.700e-02 6.500e-02 6.300e-02 6.100e-02 5.900e-02 5.700e-02 5.500e-02 5.300e-02 5.100e-02 4.750e-02 4.250e-02 3.750e-02 3.250e-02 2.750e-02 2.250e-02 1.750e-02 1.250e-02 7.500e-03 2.500e-03 0.000e+00 0.000e+00 0.000e+00 0.000e+00 0.000e+00 0.000e+00 0.000e+00 0.000e+00 0.000e+00 0.000e+00 0.000e+00 0.000e+00 0.000e+00 0.000e+00 0.000e+00 6.333e-02 4.500e-02 5.000e-03 0.000e+00 6.295e-02 5.200e-02 2.750e-02 0.000e+00 0.000e+00 5.958e-02 4.000e-02 7.500e-03 0.000e+00 0.000e+00 0.000e+00 0.000e+00 0.000e+00 0.000e+00 0.000e+00 0.000e+00 0.000e+00 0.000e+00 0.000e+00 0.000e+00 0.000e+00 0.000e+00 0.000e+00 0.000e+00 0.000e+00 0.000e+00 0.000e+00 0.000e+00 0.000e+00 0.000e+00 5.920e-02 2.500e-02 0.000e+00 0.000e+00 0.000e+00 0.000e+00 0.000e+00 0.000e+00 0.000e+00 0.000e+00 0.000e+00 0.000e+00 0.000e+00 0.000e+00 0.000e+00 0.000e+00 0.000e+00 0.000e+00 0.000e+00 0.000e+00 0.000e+00 0.000e+00 0.000e+00 5.883e-02 3.750e-02 2.500e-03 0.000e+00 0.000e+00 0.000e+00 0.000e+00 0.000e+00 0.000e+00 0.000e+00 0.000e+00 0.000e+00 0.000e+00 0.000e+00 0.000e+00 0.000e+00 0.000e+00 0.000e+00 0.000e+00 0.000e+00 0.000e+00 0.000e+00 0.000e+00 0.000e+00 5.845e-02 4.000e-02 7.500e-03 0.000e+00 0.000e+00 0.000e+00 0.000e+00 0.000e+00 0.000e+00 0.000e+00 0.000e+00 0.000e+00 0.000e+00 0.000e+00 0.000e+00 0.000e+00 5.808e-02 3.000e-02 0.000e+00 0.000e+00 0.000e+00 0.000e+00 0.000e+00 0.000e+00 0.000e+00 0.000e+00 0.000e+00 0.000e+00 0.000e+00 0.000e+00 5.770e-02 3.500e-02 0.000e+00 0.000e+00 0.000e+00 0.000e+00 0.000e+00 0.000e+00 0.000e+00 0.000e+00 0.000e+00 0.000e+00 0.000e+00 0.000e+00 5.733e-02 3.000e-02 0.000e+00 0.000e+00 0.000e+00 0.000e+00 0.000e+00 0.000e+00 0.000e+00 0.000e+00 0.000e+00 0.000e+00 0.000e+00 5.695e-02 3.000e-02 0.000e+00 0.000e+00 5.658e-02 3.250e-02 0.000e+00 0.000e+00 5.620e-02 3.000e-02 0.000e+00 0.000e+00 6.258e-02 4.750e-02 1.250e-02 0.000e+00 5.583e-02 3.250e-02 0.000e+00 0.000e+00 5.545e-02 3.500e-02 7.500e-03 0.000e+00 0.000e+00 5.508e-02 3.250e-02 2.500e-03 0.000e+00 0.000e+00 5.470e-02 2.750e-02 0.000e+00 0.000e+00 5.433e-02 2.750e-02 0.000e+00 0.000e+00 5.395e-02 2.250e-02 0.000e+00 0.000e+00 5.358e-02 2.250e-02 0.000e+00 0.000e+00 5.320e-02 2.000e-02 0.000e+00 0.000e+00 5.283e-02 2.250e-02 0.000e+00 0.000e+00 5.245e-02 2.250e-02 0.000e+00 0.000e+00 6.220e-02 5.000e-02 1.750e-02 0.000e+00 0.000e+00 5.208e-02 2.250e-02 0.000e+00 0.000e+00 5.170e-02 2.250e-02 0.000e+00 0.000e+00 5.133e-02 1.000e-02 0.000e+00 5.095e-02 2.000e-02 0.000e+00 0.000e+00 5.058e-02 2.000e-02 0.000e+00 0.000e+00 5.020e-02 1.500e-02 0.000e+00 0.000e+00 4.957e-02 1.250e-02 0.000e+00 0.000e+00 4.863e-02 1.250e-02 0.000e+00 0.000e+00 4.769e-02 0.000e+00 0.000e+00 4.675e-02 7.500e-03 0.000e+00 6.183e-02 4.750e-02 1.500e-02 0.000e+00 0.000e+00 4.582e-02 1.000e-02 0.000e+00 0.000e+00 4.488e-02 1.000e-02 0.000e+00 0.000e+00 4.394e-02 1.250e-02 0.000e+00 0.000e+00 4.300e-02 2.500e-03 0.000e+00 4.207e-02 0.000e+00 0.000e+00 4.113e-02 2.500e-03 0.000e+00 4.019e-02 1.000e-02 0.000e+00 0.000e+00 3.925e-02 0.000e+00 0.000e+00 3.832e-02 5.000e-03 0.000e+00 0.000e+00 3.738e-02 0.000e+00 0.000e+00 6.145e-02 4.500e-02 1.000e-02 0.000e+00 3.644e-02 0.000e+00 0.000e+00 3.550e-02 5.000e-03 0.000e+00 0.000e+00 3.457e-02 2.500e-03 0.000e+00 0.000e+00 3.363e-02 0.000e+00 0.000e+00 3.269e-02 0.000e+00 0.000e+00 3.175e-02 0.000e+00 0.000e+00 3.082e-02 0.000e+00 0.000e+00 2.988e-02 0.000e+00 0.000e+00 0.000e+00 2.894e-02 0.000e+00 0.000e+00 2.800e-02 0.000e+00 0.000e+00 6.108e-02 4.000e-02 2.500e-03 0.000e+00 2.707e-02 0.000e+00 0.000e+00 0.000e+00 2.613e-02 0.000e+00 0.000e+00 2.519e-02 0.000e+00 0.000e+00 2.425e-02 0.000e+00 0.000e+00 0.000e+00 2.332e-02 0.000e+00 0.000e+00 0.000e+00 2.238e-02 0.000e+00 0.000e+00 2.144e-02 0.000e+00 0.000e+00 2.050e-02 0.000e+00 0.000e+00 1.957e-02 0.000e+00 0.000e+00 1.863e-02 0.000e+00 0.000e+00 6.070e-02 4.500e-02 1.250e-02 0.000e+00 0.000e+00 1.769e-02 0.000e+00 1.675e-02 0.000e+00 0.000e+00 1.582e-02 0.000e+00 0.000e+00 1.488e-02 0.000e+00 0.000e+00 1.394e-02 0.000e+00 0.000e+00 1.300e-02 0.000e+00 0.000e+00 1.207e-02 0.000e+00 0.000e+00 1.113e-02 0.000e+00 0.000e+00 1.019e-02 0.000e+00 0.000e+00 9.254e-03 0.000e+00 0.000e+00 6.033e-02 4.250e-02 1.000e-02 0.000e+00 0.000e+00 8.316e-03 0.000e+00 0.000e+00 7.379e-03 0.000e+00 6.441e-03 0.000e+00 5.504e-03 0.000e+00 0.000e+00 4.566e-03 0.000e+00 0.000e+00 3.629e-03 0.000e+00 0.000e+00 2.691e-03 0.000e+00 0.000e+00 1.754e-03 0.000e+00 0.000e+00 8.160e-04 0.000e+00 0.000e+00 0.000e+00 0.000e+00 0.000e+00 5.995e-02 4.250e-02 1.000e-02 0.000e+00 0.000e+00 0.000e+00 0.000e+00 0.000e+00 0.000e+00 0.000e+00 0.000e+00 0.000e+00 0.000e+00 0.000e+00 0.000e+00 0.000e+00 0.000e+00 0.000e+00 0.000e+00 0.000e+00 0.000e+00 0.000e+00 0.000e+00 0.000e+00 0.000e+00 0.000e+00 0.000e+00 9.833e-02 8.800e-02 8.300e-02 8.000e-02 7.700e-02 7.500e-02 7.300e-02 7.100e-02 6.900e-02 6.700e-02 6.500e-02 6.300e-02 6.100e-02 5.900e-02 5.700e-02 5.500e-02 5.300e-02 5.100e-02 4.750e-02 4.250e-02 3.750e-02 3.250e-02 2.750e-02 2.250e-02 1.750e-02 1.250e-02 7.500e-03 2.500e-03 0.000e+00 0.000e+00 0.000e+00 0.000e+00 0.000e+00 0.000e+00 0.000e+00 0.000e+00 0.000e+00 0.000e+00 0.000e+00 0.000e+00 0.000e+00 0.000e+00 0.000e+00 6.333e-02 5.000e-02 1.750e-02 0.000e+00 0.000e+00 6.295e-02 4.500e-02 7.500e-03 0.000e+00 5.958e-02 4.000e-02 5.000e-03 0.000e+00 0.000e+00 0.000e+00 0.000e+00 0.000e+00 0.000e+00 0.000e+00 0.000e+00 0.000e+00 0.000e+00 0.000e+00 0.000e+00 0.000e+00 0.000e+00 0.000e+00 0.000e+00 0.000e+00 0.000e+00 0.000e+00 0.000e+00 0.000e+00 5.920e-02 3.500e-02 0.000e+00 0.000e+00 0.000e+00 0.000e+00 0.000e+00 0.000e+00 0.000e+00 0.000e+00 0.000e+00 0.000e+00 0.000e+00 0.000e+00 0.000e+00 0.000e+00 0.000e+00 0.000e+00 0.000e+00 0.000e+00 0.000e+00 0.000e+00 0.000e+00 0.000e+00 5.883e-02 4.000e-02 7.500e-03 0.000e+00 0.000e+00 0.000e+00 0.000e+00 0.000e+00 0.000e+00 0.000e+00 0.000e+00 0.000e+00 0.000e+00 0.000e+00 0.000e+00 0.000e+00 0.000e+00 0.000e+00 0.000e+00 0.000e+00 0.000e+00 0.000e+00 5.845e-02 3.250e-02 0.000e+00 0.000e+00 0.000e+00 0.000e+00 0.000e+00 0.000e+00 0.000e+00 0.000e+00 0.000e+00 0.000e+00 0.000e+00 0.000e+00 0.000e+00 0.000e+00 0.000e+00 0.000e+00 5.808e-02 4.000e-02 1.000e-02 0.000e+00 0.000e+00 0.000e+00 0.000e+00 0.000e+00 0.000e+00 0.000e+00 0.000e+00 0.000e+00 0.000e+00 0.000e+00 0.000e+00 5.770e-02 4.000e-02 1.250e-02 0.000e+00 0.000e+00 0.000e+00 0.000e+00 0.000e+00 0.000e+00 0.000e+00 0.000e+00 0.000e+00 0.000e+00 0.000e+00 0.000e+00 5.733e-02 3.250e-02 0.000e+00 0.000e+00 0.000e+00 0.000e+00 0.000e+00 0.000e+00 0.000e+00 0.000e+00 0.000e+00 0.000e+00 0.000e+00 5.695e-02 2.000e-02 0.000e+00 5.658e-02 3.500e-02 2.500e-03 0.000e+00 5.620e-02 3.000e-02 0.000e+00 0.000e+00 6.258e-02 4.750e-02 1.500e-02 0.000e+00 0.000e+00 5.583e-02 3.000e-02 0.000e+00 0.000e+00 5.545e-02 3.000e-02 0.000e+00 0.000e+00 5.508e-02 2.250e-02 0.000e+00 0.000e+00 5.470e-02 2.500e-02 0.000e+00 0.000e+00 5.433e-02 2.250e-02 0.000e+00 0.000e+00 5.395e-02 3.000e-02 2.500e-03 0.000e+00 0.000e+00 5.358e-02 2.500e-02 0.000e+00 0.000e+00 5.320e-02 2.750e-02 0.000e+00 0.000e+00 5.283e-02 1.750e-02 0.000e+00 0.000e+00 5.245e-02 2.500e-02 0.000e+00 0.000e+00 0.000e+00 6.220e-02 4.250e-02 5.000e-03 0.000e+00 5.208e-02 2.750e-02 0.000e+00 0.000e+00 0.000e+00 5.170e-02 1.750e-02 0.000e+00 0.000e+00 5.133e-02 1.750e-02 0.000e+00 0.000e+00 5.095e-02 1.500e-02 0.000e+00 0.000e+00 5.058e-02 2.000e-02 0.000e+00 0.000e+00 5.020e-02 2.500e-03 0.000e+00 4.957e-02 1.000e-02 0.000e+00 0.000e+00 4.863e-02 1.750e-02 0.000e+00 0.000e+00 4.769e-02 2.000e-02 0.000e+00 0.000e+00 0.000e+00 4.675e-02 1.750e-02 0.000e+00 0.000e+00 6.183e-02 4.250e-02 5.000e-03 0.000e+00 4.582e-02 1.500e-02 0.000e+00 0.000e+00 4.488e-02 1.000e-02 0.000e+00 0.000e+00 4.394e-02 5.000e-03 0.000e+00 0.000e+00 4.300e-02 1.000e-02 0.000e+00 0.000e+00 4.207e-02 5.000e-03 0.000e+00 0.000e+00 4.113e-02 2.500e-03 0.000e+00 4.019e-02 5.000e-03 0.000e+00 0.000e+00 3.925e-02 5.000e-03 0.000e+00 0.000e+00 3.832e-02 7.500e-03 0.000e+00 0.000e+00 3.738e-02 0.000e+00 0.000e+00 6.145e-02 3.500e-02 0.000e+00 0.000e+00 3.644e-02 0.000e+00 0.000e+00 0.000e+00 3.550e-02 0.000e+00 0.000e+00 0.000e+00 3.457e-02 0.000e+00 0.000e+00 0.000e+00 3.363e-02 0.000e+00 0.000e+00 3.269e-02 0.000e+00 0.000e+00 0.000e+00 3.175e-02 0.000e+00 0.000e+00 0.000e+00 3.082e-02 0.000e+00 0.000e+00 0.000e+00 2.988e-02 0.000e+00 0.000e+00 2.894e-02 0.000e+00 0.000e+00 2.800e-02 0.000e+00 0.000e+00 6.108e-02 4.000e-02 2.500e-03 0.000e+00 2.707e-02 0.000e+00 0.000e+00 0.000e+00 2.613e-02 0.000e+00 0.000e+00 2.519e-02 0.000e+00 0.000e+00 0.000e+00 2.425e-02 0.000e+00 0.000e+00 0.000e+00 2.332e-02 0.000e+00 0.000e+00 2.238e-02 0.000e+00 0.000e+00 2.144e-02 0.000e+00 0.000e+00 2.050e-02 0.000e+00 0.000e+00 0.000e+00 1.957e-02 0.000e+00 0.000e+00 1.863e-02 0.000e+00 0.000e+00 0.000e+00 6.070e-02 4.500e-02 1.250e-02 0.000e+00 0.000e+00 1.769e-02 0.000e+00 0.000e+00 1.675e-02 0.000e+00 0.000e+00 1.582e-02 0.000e+00 0.000e+00 1.488e-02 0.000e+00 0.000e+00 1.394e-02 0.000e+00 0.000e+00 1.300e-02 0.000e+00 0.000e+00 1.207e-02 0.000e+00 0.000e+00 1.113e-02 0.000e+00 0.000e+00 1.019e-02 0.000e+00 0.000e+00 9.254e-03 0.000e+00 0.000e+00 6.033e-02 3.250e-02 0.000e+00 8.316e-03 0.000e+00 0.000e+00 7.379e-03 0.000e+00 0.000e+00 6.441e-03 0.000e+00 0.000e+00 5.504e-03 0.000e+00 0.000e+00 4.566e-03 0.000e+00 3.629e-03 0.000e+00 0.000e+00 2.691e-03 0.000e+00 0.000e+00 1.754e-03 0.000e+00 0.000e+00 8.160e-04 0.000e+00 0.000e+00 0.000e+00 0.000e+00 0.000e+00 5.995e-02 2.750e-02 0.000e+00 0.000e+00 0.000e+00 0.000e+00 0.000e+00 0.000e+00 0.000e+00 0.000e+00 0.000e+00 0.000e+00 0.000e+00 0.000e+00 0.000e+00 0.000e+00 0.000e+00 0.000e+00 0.000e+00 0.000e+00 0.000e+00 0.000e+00 0.000e+00 0.000e+00 0.000e+00 0.000e+00 9.833e-02 8.800e-02 8.300e-02 8.000e-02 7.700e-02 7.500e-02 7.300e-02 7.100e-02 6.900e-02 6.700e-02 6.500e-02 6.300e-02 6.100e-02 5.900e-02 5.700e-02 5.500e-02 5.300e-02 5.100e-02 4.750e-02 4.250e-02 3.750e-02 3.250e-02 2.750e-02 2.250e-02 1.750e-02 1.250e-02 7.500e-03 2.500e-03 0.000e+00 0.000e+00 0.000e+00 0.000e+00 0.000e+00 0.000e+00 0.000e+00 0.000e+00 0.000e+00 0.000e+00 0.000e+00 0.000e+00 0.000e+00 0.000e+00 0.000e+00 1.875e-02 0.000e+00 0.000e+00 1.782e-02 0.000e+00 0.000e+00 9.378e-03 0.000e+00 0.000e