<?xml version="1.0"?>
<VTKFile type="UnstructuredGrid" version="0.1" byte_order="LittleEndian">
   <UnstructuredGrid>
      <Piece NumberOfPoints="13770" NumberOfCells="964">
         <Points>
            <DataArray type="Float32" Name="Position" NumberOfComponents="3" format="ascii">
0.122	-5.023	0.058
0.129	-5.020	0.064
0.136	-5.023	0.069
0.139	-5.031	0.073
0.139	-5.040	0.074
0.134	-5.047	0.071
0.127	-5.050	0.065
0.120	-5.047	0.059
0.117	-5.039	0.055
0.117	-5.030	0.055
0.683	-5.098	-0.613
0.690	-5.095	-0.607
0.697	-5.098	-0.601
0.700	-5.105	-0.597
0.700	-5.115	-0.597
0.695	-5.122	-0.600
0.688	-5.125	-0.605
0.681	-5.122	-0.611
0.678	-5.114	-0.615
0.678	-5.105	-0.616
0.932	-5.162	-0.881
0.932	-5.153	-0.876
0.932	-5.144	-0.878
0.932	-5.138	-0.884
0.932	-5.136	-0.894
0.932	-5.140	-0.902
0.932	-5.149	-0.906
0.932	-5.158	-0.905
0.932	-5.164	-0.898
0.932	-5.166	-0.889
0.256	-5.092	0.118
0.255	-5.085	0.123
0.251	-5.081	0.130
0.246	-5.083	0.138
0.242	-5.091	0.142
0.240	-5.100	0.142
0.242	-5.107	0.137
0.246	-5.111	0.129
0.251	-5.108	0.122
0.255	-5.101	0.118
0.955	-5.229	0.558
0.954	-5.221	0.562
0.950	-5.217	0.569
0.944	-5.218	0.577
0.939	-5.225	0.581
0.936	-5.233	0.581
0.937	-5.242	0.576
0.941	-5.246	0.569
0.947	-5.244	0.562
0.952	-5.238	0.558
1.540	-5.502	1.090
1.540	-5.493	1.094
1.536	-5.488	1.101
1.530	-5.489	1.108
1.523	-5.494	1.112
1.520	-5.503	1.112
1.520	-5.511	1.107
1.524	-5.516	1.101
1.530	-5.516	1.094
1.537	-5.510	1.090
1.593	-5.525	1.141
1.593	-5.516	1.145
1.589	-5.511	1.151
1.582	-5.512	1.158
1.576	-5.517	1.162
1.572	-5.525	1.162
1.573	-5.534	1.158
1.577	-5.539	1.152
1.583	-5.539	1.145
1.590	-5.533	1.141
1.194	-5.928	0.601
1.198	-5.931	0.608
1.197	-5.934	0.617
1.191	-5.935	0.624
1.183	-5.934	0.626
1.174	-5.931	0.624
1.170	-5.927	0.616
1.171	-5.924	0.608
1.177	-5.923	0.601
1.185	-5.925	0.598
0.985	-6.732	0.306
0.990	-6.735	0.313
0.990	-6.738	0.321
0.984	-6.740	0.329
0.976	-6.740	0.332
0.967	-6.737	0.329
0.962	-6.734	0.322
0.962	-6.731	0.313
0.968	-6.729	0.306
0.976	-6.730	0.303
0.923	-7.302	0.116
0.931	-7.298	0.118
0.940	-7.301	0.121
0.945	-7.308	0.122
0.946	-7.317	0.122
0.941	-7.325	0.121
0.933	-7.328	0.119
0.924	-7.326	0.117
0.918	-7.319	0.115
0.918	-7.310	0.115
1.271	-6.028	0.648
1.279	-6.026	0.653
1.285	-6.030	0.659
1.287	-6.037	0.664
1.284	-6.046	0.667
1.278	-6.052	0.665
1.270	-6.054	0.660
1.264	-6.051	0.654
1.262	-6.044	0.649
1.265	-6.035	0.647
1.736	-6.347	0.011
1.744	-6.345	0.016
1.749	-6.348	0.023
1.750	-6.355	0.029
1.747	-6.364	0.031
1.741	-6.370	0.030
1.733	-6.372	0.024
1.728	-6.369	0.017
1.727	-6.362	0.011
1.730	-6.354	0.009
1.770	-6.370	-0.016
1.776	-6.368	-0.010
1.781	-6.370	-0.003
1.781	-6.377	0.004
1.778	-6.385	0.006
1.771	-6.392	0.004
1.765	-6.394	-0.002
1.760	-6.391	-0.010
1.760	-6.384	-0.016
1.763	-6.376	-0.019
1.375	-6.158	0.693
1.376	-6.161	0.701
1.371	-6.162	0.710
1.364	-6.159	0.714
1.356	-6.154	0.714
1.351	-6.149	0.708
1.350	-6.146	0.699
1.354	-6.145	0.691
1.362	-6.148	0.686
1.370	-6.153	0.687
0.974	-6.842	0.458
0.976	-6.846	0.466
0.972	-6.848	0.474
0.965	-6.846	0.480
0.957	-6.842	0.480
0.951	-6.836	0.476
0.949	-6.832	0.468
0.953	-6.830	0.459
0.960	-6.832	0.454
0.968	-6.836	0.453
0.754	-7.214	0.234
0.757	-7.220	0.241
0.755	-7.223	0.249
0.748	-7.224	0.255
0.740	-7.220	0.258
0.733	-7.215	0.255
0.730	-7.209	0.248
0.732	-7.205	0.240
0.739	-7.205	0.234
0.747	-7.209	0.231
1.443	-6.256	0.738
1.450	-6.254	0.743
1.457	-6.257	0.748
1.460	-6.264	0.752
1.459	-6.273	0.753
1.454	-6.281	0.751
1.447	-6.283	0.745
1.440	-6.280	0.740
1.437	-6.273	0.736
1.438	-6.264	0.735
1.973	-6.373	0.049
1.980	-6.370	0.054
1.987	-6.373	0.060
1.990	-6.381	0.064
1.989	-6.390	0.064
1.985	-6.397	0.061
1.978	-6.400	0.056
1.971	-6.397	0.050
1.967	-6.389	0.046
1.968	-6.380	0.046
2.144	-6.401	-0.144
2.148	-6.401	-0.136
2.146	-6.401	-0.127
2.140	-6.401	-0.120
2.131	-6.401	-0.119
2.122	-6.401	-0.123
2.118	-6.401	-0.131
2.120	-6.401	-0.140
2.126	-6.401	-0.147
2.135	-6.401	-0.148
1.527	-6.375	0.776
1.534	-6.373	0.781
1.540	-6.376	0.787
1.543	-6.383	0.792
1.541	-6.392	0.793
1.536	-6.400	0.790
1.529	-6.402	0.785
1.523	-6.399	0.778
1.520	-6.392	0.774
1.521	-6.382	0.773
2.106	-6.539	0.111
2.113	-6.536	0.116
2.119	-6.540	0.122
2.122	-6.547	0.127
2.121	-6.556	0.128
2.116	-6.563	0.125
2.109	-6.566	0.120
2.103	-6.563	0.113
2.100	-6.555	0.109
2.101	-6.546	0.108
2.404	-6.614	-0.213
2.411	-6.611	-0.207
2.417	-6.614	-0.201
2.420	-6.622	-0.197
2.419	-6.631	-0.196
2.414	-6.638	-0.199
2.407	-6.641	-0.204
2.401	-6.638	-0.211
2.398	-6.630	-0.215
2.399	-6.621	-0.216
1.623	-6.519	0.822
1.627	-6.511	0.825
1.626	-6.502	0.825
1.620	-6.495	0.824
1.612	-6.493	0.821
1.604	-6.496	0.818
1.599	-6.504	0.816
1.600	-6.513	0.815
1.606	-6.520	0.816
1.615	-6.522	0.819
1.334	-6.613	1.659
1.339	-6.606	1.662
1.338	-6.596	1.662
1.333	-6.589	1.660
1.325	-6.587	1.657
1.317	-6.590	1.653
1.312	-6.597	1.651
1.313	-6.607	1.650
1.318	-6.614	1.652
1.326	-6.617	1.656
1.308	-6.615	1.707
1.313	-6.607	1.710
1.313	-6.598	1.710
1.308	-6.591	1.708
1.300	-6.588	1.704
1.292	-6.591	1.699
1.288	-6.598	1.697
1.288	-6.608	1.696
1.293	-6.615	1.699
1.301	-6.618	1.703
1.704	-6.639	0.854
1.707	-6.631	0.858
1.704	-6.623	0.862
1.697	-6.617	0.863
1.688	-6.616	0.862
1.681	-6.620	0.859
1.677	-6.628	0.855
1.680	-6.636	0.851
1.687	-6.642	0.850
1.696	-6.643	0.851
1.575	-6.981	1.603
1.579	-6.973	1.607
1.576	-6.965	1.611
1.569	-6.960	1.613
1.560	-6.959	1.612
1.552	-6.963	1.608
1.549	-6.970	1.604
1.551	-6.978	1.600
1.559	-6.984	1.598
1.568	-6.985	1.599
1.554	-7.070	1.752
1.557	-7.063	1.757
1.555	-7.055	1.761
1.547	-7.050	1.763
1.538	-7.049	1.762
1.531	-7.053	1.759
1.528	-7.061	1.754
1.530	-7.068	1.749
1.538	-7.074	1.747
1.547	-7.074	1.748
1.762	-6.742	0.884
1.770	-6.739	0.889
1.777	-6.742	0.894
1.782	-6.749	0.897
1.781	-6.759	0.897
1.777	-6.766	0.895
1.769	-6.769	0.890
1.762	-6.766	0.885
1.757	-6.758	0.882
1.758	-6.749	0.882
2.247	-6.795	0.158
2.247	-6.787	0.162
2.248	-6.778	0.161
2.248	-6.771	0.154
2.248	-6.770	0.145
2.248	-6.775	0.137
2.247	-6.783	0.133
2.247	-6.792	0.134
2.246	-6.798	0.141
2.246	-6.800	0.150
1.854	-6.892	0.923
1.858	-6.884	0.926
1.858	-6.875	0.927
1.852	-6.867	0.924
1.844	-6.865	0.921
1.837	-6.868	0.916
1.832	-6.875	0.913
1.833	-6.885	0.913
1.838	-6.892	0.915
1.846	-6.895	0.919
1.455	-6.960	1.679
1.459	-6.952	1.682
1.459	-6.943	1.683
1.454	-6.936	1.680
1.447	-6.933	1.675
1.439	-6.936	1.671
1.435	-6.943	1.667
1.435	-6.953	1.667
1.440	-6.960	1.669
1.448	-6.963	1.674
1.338	-6.968	1.830
1.342	-6.961	1.834
1.342	-6.951	1.834
1.337	-6.944	1.831
1.330	-6.941	1.826
1.323	-6.944	1.820
1.319	-6.951	1.817
1.319	-6.960	1.816
1.324	-6.968	1.819
1.331	-6.971	1.825
1.926	-7.002	0.934
1.925	-6.995	0.940
1.922	-6.993	0.949
1.918	-6.996	0.956
1.914	-7.004	0.960
1.913	-7.013	0.958
1.914	-7.020	0.952
1.917	-7.022	0.944
1.921	-7.019	0.936
1.924	-7.011	0.932
2.689	-7.181	1.261
2.688	-7.174	1.267
2.684	-7.171	1.275
2.680	-7.174	1.282
2.676	-7.182	1.286
2.674	-7.191	1.285
2.675	-7.198	1.279
2.678	-7.200	1.271
2.683	-7.197	1.263
2.687	-7.190	1.259
2.737	-7.198	1.287
2.736	-7.191	1.292
2.733	-7.188	1.301
2.728	-7.190	1.308
2.723	-7.197	1.312
2.721	-7.206	1.311
2.721	-7.214	1.305
2.725	-7.217	1.297
2.730	-7.214	1.290
2.734	-7.207	1.286
0.360	-5.152	0.187
0.367	-5.150	0.193
0.372	-5.153	0.200
0.375	-5.160	0.205
0.374	-5.169	0.205
0.369	-5.177	0.202
0.363	-5.179	0.196
0.358	-5.177	0.189
0.355	-5.169	0.184
0.356	-5.160	0.183
1.016	-5.270	-0.394
1.022	-5.268	-0.388
1.027	-5.270	-0.381
1.029	-5.278	-0.375
1.028	-5.287	-0.374
1.023	-5.294	-0.377
1.017	-5.297	-0.384
1.012	-5.294	-0.391
1.009	-5.287	-0.396
1.011	-5.278	-0.397
1.650	-5.514	-0.892
1.656	-5.511	-0.885
1.660	-5.514	-0.878
1.662	-5.521	-0.872
1.660	-5.530	-0.871
1.655	-5.537	-0.874
1.649	-5.540	-0.880
1.644	-5.537	-0.888
1.642	-5.530	-0.893
1.644	-5.521	-0.895
2.003	-7.147	0.972
2.000	-7.145	0.980
1.994	-7.141	0.986
1.987	-7.134	0.985
1.983	-7.128	0.980
1.982	-7.125	0.971
1.985	-7.126	0.962
1.991	-7.131	0.957
1.998	-7.138	0.957
2.002	-7.144	0.963
1.410	-7.722	0.832
1.406	-7.721	0.841
1.400	-7.716	0.846
1.394	-7.710	0.846
1.389	-7.704	0.841
1.389	-7.700	0.832
1.392	-7.701	0.823
1.398	-7.706	0.818
1.404	-7.712	0.818
1.409	-7.718	0.823
1.195	-7.899	0.771
1.203	-7.895	0.771
1.212	-7.896	0.771
1.219	-7.903	0.771
1.220	-7.912	0.771
1.216	-7.920	0.771
1.208	-7.924	0.771
1.199	-7.923	0.771
1.192	-7.916	0.771
1.191	-7.907	0.771
2.069	-7.279	0.994
2.073	-7.272	0.998
2.071	-7.263	1.000
2.065	-7.256	0.999
2.056	-7.254	0.997
2.049	-7.257	0.993
2.045	-7.265	0.989
2.047	-7.274	0.987
2.053	-7.281	0.988
2.062	-7.283	0.990
1.782	-7.485	1.742
1.786	-7.485	1.750
1.785	-7.485	1.759
1.778	-7.485	1.766
1.769	-7.485	1.767
1.761	-7.485	1.763
1.757	-7.485	1.755
1.758	-7.485	1.745
1.765	-7.485	1.739
1.774	-7.485	1.737
2.127	-7.393	1.004
2.126	-7.387	1.011
2.124	-7.388	1.020
2.122	-7.393	1.027
2.122	-7.402	1.030
2.122	-7.411	1.027
2.123	-7.416	1.019
2.125	-7.416	1.010
2.126	-7.410	1.003
2.127	-7.401	1.000
2.995	-7.420	1.167
2.993	-7.415	1.175
2.991	-7.415	1.184
2.989	-7.420	1.191
2.988	-7.429	1.194
2.988	-7.438	1.191
2.990	-7.443	1.184
2.992	-7.443	1.175
2.994	-7.438	1.167
2.995	-7.429	1.165
3.056	-7.425	1.184
3.054	-7.420	1.191
3.052	-7.419	1.200
3.050	-7.424	1.207
3.048	-7.433	1.210
3.048	-7.442	1.208
3.050	-7.447	1.201
3.052	-7.448	1.192
3.055	-7.443	1.185
3.056	-7.434	1.181
2.187	-7.530	1.024
2.185	-7.524	1.031
2.183	-7.524	1.040
2.181	-7.529	1.047
2.180	-7.538	1.050
2.180	-7.547	1.048
2.182	-7.552	1.041
2.184	-7.552	1.032
2.186	-7.547	1.024
2.187	-7.538	1.021
2.991	-7.548	1.236
2.989	-7.542	1.243
2.986	-7.541	1.251
2.983	-7.546	1.259
2.982	-7.554	1.262
2.982	-7.563	1.260
2.984	-7.569	1.253
2.987	-7.570	1.245
2.990	-7.565	1.237
2.991	-7.557	1.234
3.189	-7.552	1.318
3.187	-7.546	1.324
3.183	-7.545	1.333
3.180	-7.549	1.340
3.178	-7.557	1.344
3.179	-7.566	1.343
3.181	-7.573	1.336
3.185	-7.574	1.328
3.188	-7.570	1.320
3.190	-7.561	1.317
2.254	-7.683	1.053
2.251	-7.685	1.061
2.245	-7.683	1.068
2.238	-7.678	1.070
2.232	-7.672	1.068
2.230	-7.667	1.060
2.232	-7.664	1.052
[...]
         <CellData>
           <DataArray type="Float32" Name="aerenchymaFormation" NumberOfComponents="1" format="ascii">
 0.000e+00 0.000e+00 0.000e+00 0.000e+00 0.000e+00 0.000e+00 0.000e+00 0.000e+00 0.000e+00 0.000e+00 0.000e+00 0.000e+00 0.000e+00 0.000e+00 0.000e+00 0.000e+00 0.000e+00 0.000e+00 0.000e+00 0.000e+00 0.000e+00 0.000e+00 0.000e+00 0.000e+00 0.000e+00 0.000e+00 0.000e+00 0.000e+00 0.000e+00 0.000e+00 0.000e+00 0.000e+00 0.000e+00 0.000e+00 0.000e+00 0.000e+00 0.000e+00 0.000e+00 0.000e+00 0.000e+00 0.000e+00 0.000e+00 0.000e+00 0.000e+00 0.000e+00 0.000e+00 0.000e+00 0.000e+00 0.000e+00 0.000e+00 0.000e+00 0.000e+00 0.000e+00 0.000e+00 0.000e+00 0.000e+00 0.000e+00 0.000e+00 0.000e+00 0.000e+00 0.000e+00 0.000e+00 0.000e+00 0.000e+00 0.000e+00 0.000e+00 0.000e+00 0.000e+00 0.000e+00 0.000e+00 0.000e+00 0.000e+00 0.000e+00 0.000e+00 0.000e+00 0.000e+00 0.000e+00 0.000e+00 0.000e+00 0.000e+00 0.000e+00 0.000e+00 0.000e+00 0.000e+00 0.000e+00 0.000e+00 0.000e+00 5.833e-02 4.500e-02 3.250e-02 2.500e-02 1.750e-02 1.250e-02 7.500e-03 2.500e-03 0.000e+00 0.000e+00 0.000e+00 0.000e+00 0.000e+00 0.000e+00 0.000e+00 0.000e+00 0.000e+00 0.000e+00 0.000e+00 0.000e+00 0.000e+00 0.000e+00 0.000e+00 0.000e+00 0.000e+00 0.000e+00 0.000e+00 0.000e+00 0.000e+00 0.000e+00 0.000e+00 0.000e+00 0.000e+00 0.000e+00 0.000e+00 0.000e+00 0.000e+00 0.000e+00 0.000e+00 0.000e+00 0.000e+00 0.000e+00 0.000e+00 0.000e+00 0.000e+00 0.000e+00 0.000e+00 0.000e+00 0.000e+00 0.000e+00 0.000e+00 0.000e+00 0.000e+00 0.000e+00 0.000e+00 0.000e+00 0.000e+00 0.000e+00 0.000e+00 0.000e+00 0.000e+00 0.000e+00 0.000e+00 0.000e+00 0.000e+00 0.000e+00 0.000e+00 0.000e+00 0.000e+00 0.000e+00 0.000e+00 0.000e+00 0.000e+00 0.000e+00 0.000e+00 0.000e+00 0.000e+00 0.000e+00 0.000e+00 0.000e+00 0.000e+00 0.000e+00 0.000e+00 0.000e+00 0.000e+00 0.000e+00 0.000e+00 0.000e+00 0.000e+00 0.000e+00 0.000e+00 0.000e+00 0.000e+00 0.000e+00 0.000e+00 0.000e+00 0.000e+00 0.000e+00 0.000e+00 0.000e+00 0.000e+00 0.000e+00 0.000e+00 0.000e+00 0.000e+00 0.000e+00 0.000e+00 0.000e+00 0.000e+00 0.000e+00 5.833e-02 4.500e-02 3.250e-02 2.500e-02 1.750e-02 1.250e-02 7.500e-03 2.500e-03 0.000e+00 0.000e+00 0.000e+00 0.000e+00 0.000e+00 0.000e+00 0.000e+00 0.000e+00 0.000e+00 0.000e+00 0.000e+00 0.000e+00 0.000e+00 0.000e+00 0.000e+00 0.000e+00 0.000e+00 0.000e+00 0.000e+00 0.000e+00 0.000e+00 0.000e+00 0.000e+00 0.000e+00 0.000e+00 0.000e+00 0.000e+00 0.000e+00 0.000e+00 0.000e+00 0.000e+00 0.000e+00 0.000e+00 0.000e+00 0.000e+00 0.000e+00 0.000e+00 0.000e+00 0.000e+00 0.000e+00 0.000e+00 0.000e+00 0.000e+00 0.000e+00 0.000e+00 0.000e+00 0.000e+00 0.000e+00 0.000e+00 0.000e+00 0.000e+00 0.000e+00 0.000e+00 0.000e+00 0.000e+00 0.000e+00 0.000e+00 0.000e+00 0.000e+00 0.000e+00 0.000e+00 0.000e+00 0.000e+00 0.000e+00 0.000e+00 0.000e+00 0.000e+00 0.000e+00 0.000e+00 0.000e+00 0.000e+00 0.000e+00 0.000e+00 0.000e+00 0.000e+00 0.000e+00 0.000e+00 0.000e+00 0.000e+00 0.000e+00 0.000e+00 0.000e+00 0.000e+00 0.000e+00 0.000e+00 0.000e+00 0.000e+00 0.000e+00 0.000e+00 0.000e+00 0.000e+00 0.000e+00 0.000e+00 0.000e+00 0.000e+00 0.000e+00 0.000e+00 0.000e+00 0.000e+00 0.000e+00 0.000e+00 0.000e+00 0.000e+00 5.833e-02 4.500e-02 3.250e-02 2.500e-02 1.750e-02 1.250e-02 7.500e-03 2.500e-03 0.000e+00 0.000e+00 0.000e+00 0.000e+00 0.000e+00 0.000e+00 0.000e+00 0.000e+00 0.000e+00 0.000e+00 0.000e+00 0.000e+00 0.000e+00 0.000e+00 0.000e+00 0.000e+00 0.000e+00 0.000e+00 0.000e+00 0.000e+00 0.000e+00 0.000e+00 0.000e+00 0.000e+00 0.000e+00 0.000e+00 0.000e+00 0.000e+00 0.000e+00 0.000e+00 0.000e+00 0.000e+00 0.000e+00 0.000e+00 0.000e+00 0.000e+00 0.000e+00 0.000e+00 0.000e+00 0.000e+00 0.000e+00 0.000e+00 0.000e+00 0.000e+00 0.000e+00 0.000e+00 0.000e+00 0.000e+00 0.000e+00 0.000e+00 0.000e+00 0.000e+00 0.000e+00 0.000e+00 0.000e+00 0.000e+00 0.000e+00 0.000e+00 0.000e+00 0.000e+00 0.000e+00 0.000e+00 0.000e+00 0.000e+00 0.000e+00 0.000e+00 0.000e+00 0.000e+00 0.000e+00 0.000e+00 0.000e+00 0.000e+00 0.000e+00 0.000e+00 0.000e+00 0.000e+00 0.000e+00 0.000e+00 0.000e+00 0.000e+00 0.000e+00 0.000e+00 0.000e+00 0.000e+00 0.000e+00 0.000e+00 0.000e+00 0.000e+00 0.000e+00 0.000e+00 0.000e+00 0.000e+00 0.000e+00 0.000e+00 0.000e+00 0.000e+00 0.000e+00 0.000e+00 0.000e+00 0.000e+00 0.000e+00 0.000e+00 5.833e-02 4.500e-02 3.250e-02 2.500e-02 1.750e-02 1.250e-02 7.500e-03 2.500e-03 0.000e+00 0.000e+00 0.000e+00 0.000e+00 0.000e+00 0.000e+00 0.000e+00 0.000e+00 0.000e+00 0.000e+00 0.000e+00 0.000e+00 0.000e+00 0.000e+00 0.000e+00 1.875e-02 0.000e+00 0.000e+00 0.000e+00 0.000e+00 0.000e+00 0.000e+00 0.000e+00 0.000e+00 0.000e+00 0.000e+00 0.000e+00 1.875e-02 0.000e+00 0.000e+00 0.000e+00 0.000e+00 0.000e+00 0.000e+00 0.000e+00 0.000e+00 0.000e+00 0.000e+00 0.000e+00 1.875e-02 0.000e+00 0.000e+00 0.000e+00 0.000e+00 0.000e+00 0.000e+00 0.000e+00 0.000e+00 0.000e+00 0.000e+00 0.000e+00 1.875e-02 0.000e+00 0.000e+00 0.000e+00 0.000e+00 0.000e+00 0.000e+00 0.000e+00 0.000e+00 0.000e+00 0.000e+00 0.000e+00 0.000e+00 0.000e+00 0.000e+00 0.000e+00 0.000e+00 0.000e+00 0.000e+00 0.000e+00 0.000e+00 0.000e+00 5.715e-02 4.000e-02 1.000e-02 0.000e+00 0.000e+00 0.000e+00 5.672e-02 4.000e-02 1.250e-02 0.000e+00 0.000e+00 0.000e+00 5.291e-02 2.750e-02 0.000e+00 0.000e+00 0.000e+00 0.000e+00 0.000e+00 0.000e+00 0.000e+00 0.000e+00 0.000e+00 0.000e+00 0.000e+00 0.000e+00 0.000e+00 0.000e+00 0.000e+00 0.000e+00 0.000e+00 5.248e-02 2.750e-02 0.000e+00 0.000e+00 0.000e+00 0.000e+00 0.000e+00 0.000e+00 0.000e+00 0.000e+00 0.000e+00 0.000e+00 0.000e+00 0.000e+00 0.000e+00 5.206e-02 2.500e-02 0.000e+00 0.000e+00 0.000e+00 0.000e+00 0.000e+00 0.000e+00 0.000e+00 0.000e+00 0.000e+00 0.000e+00 0.000e+00 0.000e+00 0.000e+00 5.163e-02 2.500e-02 0.000e+00 0.000e+00 0.000e+00 0.000e+00 0.000e+00 0.000e+00 0.000e+00 0.000e+00 5.121e-02 2.500e-02 0.000e+00 0.000e+00 0.000e+00 0.000e+00 5.078e-02 3.000e-02 5.000e-03 0.000e+00 0.000e+00 0.000e+00 5.036e-02 1.750e-02 0.000e+00 0.000e+00 4.984e-02 1.500e-02 0.000e+00 0.000e+00 4.878e-02 2.500e-02 0.000e+00 0.000e+00 0.000e+00 4.772e-02 2.000e-02 0.000e+00 0.000e+00 0.000e+00 5.630e-02 3.500e-02 5.000e-03 0.000e+00 0.000e+00 4.666e-02 2.000e-02 0.000e+00 0.000e+00 0.000e+00 4.560e-02 1.500e-02 0.000e+00 0.000e+00 4.454e-02 1.500e-02 0.000e+00 0.000e+00 4.348e-02 1.000e-02 0.000e+00 0.000e+00 4.242e-02 1.000e-02 0.000e+00 0.000e+00 4.136e-02 7.500e-03 0.000e+00 0.000e+00 4.029e-02 1.500e-02 0.000e+00 0.000e+00 0.000e+00 3.923e-02 5.000e-03 0.000e+00 0.000e+00 3.817e-02 1.000e-02 0.000e+00 0.000e+00 0.000e+00 3.711e-02 1.000e-02 0.000e+00 0.000e+00 0.000e+00 0.000e+00 5.588e-02 3.750e-02 1.000e-02 0.000e+00 0.000e+00 0.000e+00 3.605e-02 1.000e-02 0.000e+00 0.000e+00 0.000e+00 3.499e-02 1.000e-02 0.000e+00 0.000e+00 0.000e+00 3.393e-02 1.000e-02 0.000e+00 0.000e+00 0.000e+00 3.287e-02 2.500e-03 0.000e+00 0.000e+00 3.181e-02 0.000e+00 0.000e+00 0.000e+00 3.075e-02 0.000e+00 0.000e+00 0.000e+00 2.969e-02 5.000e-03 0.000e+00 0.000e+00 0.000e+00 2.863e-02 0.000e+00 0.000e+00 0.000e+00 2.757e-02 0.000e+00 0.000e+00 2.651e-02 0.000e+00 0.000e+00 0.000e+00 0.000e+00 5.545e-02 4.000e-02 1.500e-02 0.000e+00 0.000e+00 0.000e+00 2.545e-02 0.000e+00 0.000e+00 0.000e+00 2.438e-02 0.000e+00 0.000e+00 0.000e+00 2.332e-02 0.000e+00 0.000e+00 0.000e+00 2.226e-02 0.000e+00 0.000e+00 2.120e-02 0.000e+00 0.000e+00 0.000e+00 2.014e-02 0.000e+00 0.000e+00 0.000e+00 1.908e-02 0.000e+00 0.000e+00 1.802e-02 0.000e+00 0.000e+00 0.000e+00 1.696e-02 0.000e+00 0.000e+00 1.590e-02 0.000e+00 0.000e+00 5.503e-02 3.500e-02 7.500e-03 0.000e+00 0.000e+00 1.484e-02 0.000e+00 0.000e+00 1.378e-02 0.000e+00 0.000e+00 0.000e+00 1.272e-02 0.000e+00 0.000e+00 0.000e+00 1.166e-02 0.000e+00 0.000e+00 0.000e+00 1.060e-02 0.000e+00 0.000e+00 0.000e+00 9.535e-03 0.000e+00 0.000e+00 8.475e-03 0.000e+00 0.000e+00 7.414e-03 0.000e+00 0.000e+00 6.353e-03 0.000e+00 0.000e+00 5.293e-03 0.000e+00 0.000e+00 5.460e-02 3.500e-02 5.000e-03 0.000e+00 0.000e+00 4.232e-03 0.000e+00 0.000e+00 3.171e-03 0.000e+00 0.000e+00 2.111e-03 0.000e+00 0.000e+00 0.000e+00 1.050e-03 0.000e+00 0.000e+00 0.000e+00 0.000e+00 0.000e+00 0.000e+00 0.000e+00 0.000e+00 0.000e+00 0.000e+00 0.000e+00 0.000e+00 0.000e+00 0.000e+00 0.000e+00 0.000e+00 0.000e+00 0.000e+00 0.000e+00 0.000e+00 5.418e-02 3.000e-02 0.000e+00 0.000e+00 0.000e+00 0.000e+00 0.000e+00 0.000e+00 0.000e+00 0.000e+00 0.000e+00 0.000e+00 0.000e+00 0.000e+00 0.000e+00 0.000e+00 0.000e+00 0.000e+00 0.000e+00 0.000e+00 0.000e+00 0.000e+00 0.000e+00 0.000e+00 0.000e+00 0.000e+00 0.000e+00 0.000e+00 0.000e+00 0.000e+00 0.000e+00 0.000e+00 0.000e+00 5.375e-02 2.500e-02 0.000e+00 0.000e+00 0.000e+00 0.000e+00 0.000e+00 0.000e+00 0.000e+00 0.000e+00 0.000e+00 0.000e+00 0.000e+00 0.000e+00 0.000e+00 0.000e+00 0.000e+00 0.000e+00 0.000e+00 0.000e+00 0.000e+00 0.000e+00 0.000e+00 0.000e+00 0.000e+00 0.000e+00 0.000e+00 5.333e-02 3.250e-02 5.000e-03 0.000e+00 0.000e+00 0.000e+00 0.000e+00 0.000e+00 0.000e+00 0.000e+00 0.000e+00 0.000e+00 0.000e+00 0.000e+00 0.000e+00 0.000e+00 0.000e+00 0.000e+00 0.000e+00 0.000e+00 0.000e+00 0.000e+00 0.000e+00 0.000e+00 0.000e+00 0.000e+00 0.000e+00 0.000e+00 0.000e+00 0.000e+00 0.000e+00 5.216e-02 4.000e-02 2.500e-02 1.000e-02 0.000e+00 0.000e+00 0.000e+00 0.000e+00 0.000e+00 0.000e+00 2.907e-02 1.000e-02 0.000e+00 0.000e+00 0.000e+00 0.000e+00 2.224e-03 0.000e+00 0.000e+00 0.000e+00 0.000e+00 0.000e+00 0.000e+00 0.000e+00 1.000e-01 9.700e-02 9.400e-02 9.100e-02 8.800e-02 8.500e-02 8.100e-02 7.800e-02 7.500e-02 7.100e-02 6.800e-02 6.500e-02 6.100e-02 5.800e-02 5.500e-02 5.200e-02 4.750e-02 4.000e-02 3.250e-02 2.500e-02 1.750e-02 1.000e-02 2.500e-03 0.000e+00 0.000e+00 0.000e+00 0.000e+00 0.000e+00 0.000e+00 0.000e+00 0.000e+00 0.000e+00
           </DataArray>
           <DataArray type="Float32" Name="combinedRootClassID" NumberOfComponents="1" format="ascii">
 -1.300e+01 -1.300e+01 -1.300e+01 -1.300e+01 -1.300e+01 -1.300e+01 -1.300e+01 -1.300e+01 -1.300e+01 -1.300e+01 -1.300e+01 -1.300e+01 -1.300e+01 -1.300e+01 -1.300e+01 -1.300e+01 -1.300e+01 -1.300e+01 -1.300e+01 -1.300e+01 -1.300e+01 -1.300e+01 -1.300e+01 -1.300e+01 -1.300e+01 -1.300e+01 -1.300e+01 -1.300e+01 -1.300e+01 -1.300e+01 -1.300e+01 -1.300e+01 -1.300e+01 -1.300e+01 -1.300e+01 -1.300e+01 -1.300e+01 -1.300e+01 -1.300e+01 -1.300e+01 -1.300e+01 -1.300e+01 -1.300e+01 -1.300e+01 -1.300e+01 -1.300e+01 -1.300e+01 -1.300e+01 -1.300e+01 -1.300e+01 -1.300e+01 -1.300e+01 -1.300e+01 -1.300e+01 -1.300e+01 -1.300e+01 -1.300e+01 -1.300e+01 -1.300e+01 -1.300e+01 -1.300e+01 -1.300e+01 -1.300e+01 -1.300e+01 -1.300e+01 -1.300e+01 -1.300e+01 -1.300e+01 -1.300e+01 -1.300e+01 -1.300e+01 -1.300e+01 -1.300e+01 -1.300e+01 -1.300e+01 -1.300e+01 -1.300e+01 -1.300e+01 -1.300e+01 -1.300e+01 -1.300e+01 -1.300e+01 -1.300e+01 -1.300e+01 -1.300e+01 -1.300e+01 -1.300e+01 -5.000e+00 -5.000e+00 -5.000e+00 -5.000e+00 -5.000e+00 -5.000e+00 -5.000e+00 -5.000e+00 -5.000e+00 -5.000e+00 -5.000e+00 -5.000e+00 -5.000e+00 -5.000e+00 -5.000e+00 -5.000e+00 -5.000e+00 -5.000e+00 -5.000e+00 -5.000e+00 -5.000e+00 -5.000e+00 -5.000e+00 -1.300e+01 -1.300e+01 -1.300e+01 -1.300e+01 -1.300e+01 -1.300e+01 -1.300e+01 -1.300e+01 -1.300e+01 -1.300e+01 -1.300e+01 -1.300e+01 -1.300e+01 -1.300e+01 -1.300e+01 -1.300e+01 -1.300e+01 -1.300e+01 -1.300e+01 -1.300e+01 -1.300e+01 -1.300e+01 -1.300e+01 -1.300e+01 -1.300e+01 -1.300e+01 -1.300e+01 -1.300e+01 -1.300e+01 -1.300e+01 -1.300e+01 -1.300e+01 -1.300e+01 -1.300e+01 -1.300e+01 -1.300e+01 -1.300e+01 -1.300e+01 -1.300e+01 -1.300e+01 -1.300e+01 -1.300e+01 -1.300e+01 -1.300e+01 -1.300e+01 -1.300e+01 -1.300e+01 -1.300e+01 -1.300e+01 -1.300e+01 -1.300e+01 -1.300e+01 -1.300e+01 -1.300e+01 -1.300e+01 -1.300e+01 -1.300e+01 -1.300e+01 -1.300e+01 -1.300e+01 -1.300e+01 -1.300e+01 -1.300e+01 -1.300e+01 -1.300e+01 -1.300e+01 -1.300e+01 -1.300e+01 -1.300e+01 -1.300e+01 -1.300e+01 -1.300e+01 -1.300e+01 -1.300e+01 -1.300e+01 -1.300e+01 -1.300e+01 -1.300e+01 -1.300e+01 -1.300e+01 -1.300e+01 -1.300e+01 -1.300e+01 -1.300e+01 -1.300e+01 -1.300e+01 -1.300e+01 -5.000e+00 -5.000e+00 -5.000e+00 -5.000e+00 -5.000e+00 -5.000e+00 -5.000e+00 -5.000e+00 -5.000e+00 -5.000e+00 -5.000e+00 -5.000e+00 -5.000e+00 -5.000e+00 -5.000e+00 -5.000e+00 -5.000e+00 -5.000e+00 -5.000e+00 -5.000e+00 -5.000e+00 -5.000e+00 -5.000e+00 -1.300e+01 -1.300e+01 -1.300e+01 -1.300e+01 -1.300e+01 -1.300e+01 -1.300e+01 -1.300e+01 -1.300e+01 -1.300e+01 -1.300e+01 -1.300e+01 -1.300e+01 -1.300e+01 -1.300e+01 -1.300e+01 -1.300e+01 -1.300e+01 -1.300e+01 -1.300e+01 -1.300e+01 -1.300e+01 -1.300e+01 -1.300e+01 -1.300e+01 -1.300e+01 -1.300e+01 -1.300e+01 -1.300e+01 -1.300e+01 -1.300e+01 -1.300e+01 -1.300e+01 -1.300e+01 -1.300e+01 -1.300e+01 -1.300e+01 -1.300e+01 -1.300e+01 -1.300e+01 -1.300e+01 -1.300e+01 -1.300e+01 -1.300e+01 -1.300e+01 -1.300e+01 -1.300e+01 -1.300e+01 -1.300e+01 -1.300e+01 -1.300e+01 -1.300e+01 -1.300e+01 -1.300e+01 -1.300e+01 -1.300e+01 -1.300e+01 -1.300e+01 -1.300e+01 -1.300e+01 -1.300e+01 -1.300e+01 -1.300e+01 -1.300e+01 -1.300e+01 -1.300e+01 -1.300e+01 -1.300e+01 -1.300e+01 -1.300e+01 -1.300e+01 -1.300e+01 -1.300e+01 -1.300e+01 -1.300e+01 -1.300e+01 -1.300e+01 -1.300e+01 -1.300e+01 -1.300e+01 -1.300e+01 -1.300e+01 -1.300e+01 -1.300e+01 -1.300e+01 -1.300e+01 -1.300e+01 -1.300e+01 -5.000e+00 -5.000e+00 -5.000e+00 -5.000e+00 -5.000e+00 -5.000e+00 -5.000e+00 -5.000e+00 -5.000e+00 -5.000e+00 -5.000e+00 -5.000e+00 -5.000e+00 -5.000e+00 -5.000e+00 -5.000e+00 -5.000e+00 -5.000e+00 -5.000e+00 -5.000e+00 -5.000e+00 -5.000e+00 -5.000e+00 -1.300e+01 -1.300e+01 -1.300e+01 -1.300e+01 -1.300e+01 -1.300e+01 -1.300e+01 -1.300e+01 -1.300e+01 -1.300e+01 -1.300e+01 -1.300e+01 -1.300e+01 -1.300e+01 -1.300e+01 -1.300e+01 -1.300e+01 -1.300e+01 -1.300e+01 -1.300e+01 -1.300e+01 -1.300e+01 -1.300e+01 -1.300e+01 -1.300e+01 -1.300e+01 -1.300e+01 -1.300e+01 -1.300e+01 -1.300e+01 -1.300e+01 -1.300e+01 -1.300e+01 -1.300e+01 -1.300e+01 -1.300e+01 -1.300e+01 -1.300e+01 -1.300e+01 -1.300e+01 -1.300e+01 -1.300e+01 -1.300e+01 -1.300e+01 -1.300e+01 -1.300e+01 -1.300e+01 -1.300e+01 -1.300e+01 -1.300e+01 -1.300e+01 -1.300e+01 -1.300e+01 -1.300e+01 -1.300e+01 -1.300e+01 -1.300e+01 -1.300e+01 -1.300e+01 -1.300e+01 -1.300e+01 -1.300e+01 -1.300e+01 -1.300e+01 -1.300e+01 -1.300e+01 -1.300e+01 -1.300e+01 -1.300e+01 -1.300e+01 -1.300e+01 -1.300e+01 -1.300e+01 -1.300e+01 -1.300e+01 -1.300e+01 -1.300e+01 -1.300e+01 -1.300e+01 -1.300e+01 -1.300e+01 -1.300e+01 -1.300e+01 -1.300e+01 -1.300e+01 -1.300e+01 -1.300e+01 -5.000e+00 -5.000e+00 -5.000e+00 -5.000e+00 -5.000e+00 -5.000e+00 -5.000e+00 -5.000e+00 -5.000e+00 -5.000e+00 -5.000e+00 -5.000e+00 -5.000e+00 -5.000e+00 -5.000e+00 -5.000e+00 -5.000e+00 -5.000e+00 -5.000e+00 -5.000e+00 -5.000e+00 -5.000e+00 -5.000e+00 -1.100e+01 -1.100e+01 -1.100e+01 -1.100e+01 -1.100e+01 -1.100e+01 -1.100e+01 -1.100e+01 -1.100e+01 -1.100e+01 -1.100e+01 -1.100e+01 -1.100e+01 -1.100e+01 -1.100e+01 -1.100e+01 -1.100e+01 -1.100e+01 -1.100e+01 -1.100e+01 -1.100e+01 -1.100e+01 -1.100e+01 -1.100e+01 -1.100e+01 -1.100e+01 -1.100e+01 -1.100e+01 -1.100e+01 -1.100e+01 -1.100e+01 -1.100e+01 -1.100e+01 -1.100e+01 -1.100e+01 -1.100e+01 -1.100e+01 -1.100e+01 -1.100e+01 -1.100e+01 -1.100e+01 -1.100e+01 -1.100e+01 -1.100e+01 -1.100e+01 -1.100e+01 -1.100e+01 -1.100e+01 -2.000e+00 -2.000e+00 -2.000e+00 -2.000e+00 -2.000e+00 -2.000e+00 -2.000e+00 -2.000e+00 -2.000e+00 -2.000e+00 -7.000e+00 -7.000e+00 -7.000e+00 -7.000e+00 -7.000e+00 -1.700e+01 -7.000e+00 -7.000e+00 -7.000e+00 -7.000e+00 -7.000e+00 -7.000e+00 -7.000e+00 -7.000e+00 -7.000e+00 -7.000e+00 -7.000e+00 -7.000e+00 -7.000e+00 -7.000e+00 -7.000e+00 -7.000e+00 -7.000e+00 -7.000e+00 -7.000e+00 -7.000e+00 -7.000e+00 -7.000e+00 -7.000e+00 -7.000e+00 -7.000e+00 -7.000e+00 -7.000e+00 -7.000e+00 -7.000e+00 -7.000e+00 -7.000e+00 -7.000e+00 -7.000e+00 -7.000e+00 -7.000e+00 -7.000e+00 -7.000e+00 -7.000e+00 -7.000e+00 -7.000e+00 -7.000e+00 -7.000e+00 -7.000e+00 -7.000e+00 -7.000e+00 -7.000e+00 -7.000e+00 -7.000e+00 -7.000e+00 -7.000e+00 -7.000e+00 -7.000e+00 -7.000e+00 -7.000e+00 -7.000e+00 -7.000e+00 -7.000e+00 -7.000e+00 -7.000e+00 -7.000e+00 -7.000e+00 -7.000e+00 -7.000e+00 -7.000e+00 -7.000e+00 -7.000e+00 -7.000e+00 -7.000e+00 -7.000e+00 -7.000e+00 -1.700e+01 -7.000e+00 -7.000e+00 -7.000e+00 -7.000e+00 -7.000e+00 -7.000e+00 -7.000e+00 -7.000e+00 -7.000e+00 -7.000e+00 -7.000e+00 -7.000e+00 -7.000e+00 -7.000e+00 -7.000e+00 -7.000e+00 -7.000e+00 -7.000e+00 -7.000e+00 -7.000e+00 -7.000e+00 -7.000e+00 -7.000e+00 -7.000e+00 -7.000e+00 -7.000e+00 -7.000e+00 -7.000e+00 -7.000e+00 -7.000e+00 -7.000e+00 -7.000e+00 -7.000e+00 -7.000e+00 -7.000e+00 -7.000e+00 -7.000e+00 -7.000e+00 -7.000e+00 -7.000e+00 -7.000e+00 -7.000e+00 -7.000e+00 -7.000e+00 -7.000e+00 -7.000e+00 -7.000e+00 -7.000e+00 -7.000e+00 -7.000e+00 -7.000e+00 -7.000e+00 -7.000e+00 -7.000e+00 -7.000e+00 -7.000e+00 -7.000e+00 -7.000e+00 -7.000e+00 -7.000e+00 -7.000e+00 -7.000e+00 -7.000e+00 -7.000e+00 -7.000e+00 -7.000e+00 -7.000e+00 -7.000e+00 -7.000e+00 -7.000e+00 -7.000e+00 -7.000e+00 -7.000e+00 -1.700e+01 -7.000e+00 -7.000e+00 -7.000e+00 -7.000e+00 -7.000e+00 -7.000e+00 -7.000e+00 -7.000e+00 -7.000e+00 -7.000e+00 -7.000e+00 -7.000e+00 -7.000e+00 -7.000e+00 -7.000e+00 -7.000e+00 -7.000e+00 -7.000e+00 -7.000e+00 -7.000e+00 -7.000e+00 -7.000e+00 -7.000e+00 -7.000e+00 -7.000e+00 -7.000e+00 -7.000e+00 -7.000e+00 -7.000e+00 -7.000e+00 -7.000e+00 -7.000e+00 -7.000e+00 -7.000e+00 -7.000e+00 -7.000e+00 -7.000e+00 -7.000e+00 -7.000e+00 -7.000e+00 -7.000e+00 -7.000e+00 -7.000e+00 -7.000e+00 -7.000e+00 -7.000e+00 -7.000e+00 -7.000e+00 -7.000e+00 -1.700e+01 -7.000e+00 -7.000e+00 -7.000e+00 -7.000e+00 -7.000e+00 -7.000e+00 -7.000e+00 -7.000e+00 -7.000e+00 -7.000e+00 -7.000e+00 -7.000e+00 -7.000e+00 -7.000e+00 -7.000e+00 -7.000e+00 -7.000e+00 -7.000e+00 -7.000e+00 -7.000e+00 -7.000e+00 -7.000e+00 -7.000e+00 -7.000e+00 -7.000e+00 -7.000e+00 -7.000e+00 -7.000e+00 -7.000e+00 -7.000e+00 -7.000e+00 -7.000e+00 -7.000e+00 -7.000e+00 -7.000e+00 -7.000e+00 -7.000e+00 -7.000e+00 -7.000e+00 -7.000e+00 -7.000e+00 -7.000e+00 -7.000e+00 -7.000e+00 -7.000e+00 -7.000e+00 -7.000e+00 -7.000e+00 -7.000e+00 -7.000e+00 -7.000e+00 -7.000e+00 -7.000e+00 -7.000e+00 -7.000e+00 -7.000e+00 -7.000e+00 -7.000e+00 -7.000e+00 -7.000e+00 -7.000e+00 -7.000e+00 -7.000e+00 -7.000e+00 -7.000e+00 -7.000e+00 -7.000e+00 -7.000e+00 -7.000e+00 -7.000e+00 -7.000e+00 -7.000e+00 -7.000e+00 -7.000e+00 -7.000e+00 -7.000e+00 -7.000e+00 -7.000e+00 -7.000e+00 -7.000e+00 -7.000e+00 -7.000e+00 -7.000e+00 -7.000e+00 -7.000e+00 -7.000e+00 -7.000e+00 -7.000e+00 -7.000e+00 -7.000e+00 -7.000e+00 -7.000e+00 -7.000e+00 -7.000e+00 -7.000e+00 -7.000e+00 -7.000e+00 -7.000e+00 -7.000e+00 -7.000e+00 -7.000e+00 -7.000e+00 -7.000e+00 -7.000e+00 -7.000e+00 -7.000e+00 -7.000e+00 -7.000e+00 -7.000e+00 -7.000e+00 -7.000e+00 -7.000e+00 -7.000e+00 -7.000e+00 -7.000e+00 -7.000e+00 -7.000e+00 -7.000e+00 -7.000e+00 -7.000e+00 -7.000e+00 -7.000e+00 -7.000e+00 -7.000e+00 -7.000e+00 -7.000e+00 -7.000e+00 -7.000e+00 -7.000e+00 -7.000e+00 -7.000e+00 -7.000e+00 -7.000e+00 -7.000e+00 -7.000e+00 -7.000e+00 -7.000e+00 -7.000e+00 -7.000e+00 -7.000e+00 -7.000e+00 -7.000e+00 -7.000e+00 -7.000e+00 -7.000e+00 -7.000e+00 -7.000e+00 -7.000e+00 -7.000e+00 -7.000e+00 -7.000e+00 -7.000e+00 -7.000e+00 -7.000e+00 -7.000e+00 -7.000e+00 -7.000e+00 -7.000e+00 -7.000e+00 -7.000e+00 -7.000e+00 -7.000e+00 -7.000e+00 -7.000e+00 -7.000e+00 -7.000e+00 -7.000e+00 -7.000e+00 -7.000e+00 -7.000e+00 -7.000e+00 -7.000e+00 -7.000e+00 -7.000e+00 -7.000e+00 -7.000e+00 -1.700e+01 -7.000e+00 -7.000e+00 -7.000e+00 -7.000e+00 -7.000e+00 -7.000e+00 -7.000e+00 -7.000e+00 -7.000e+00 -7.000e+00 -7.000e+00 -7.000e+00 -7.000e+00 -7.000e+00 -7.000e+00 -7.000e+00 -7.000e+00 -7.000e+00 -7.000e+00 -7.000e+00 -7.000e+00 -7.000e+00 -7.000e+00 -7.000e+00 -7.000e+00 -7.000e+00 -1.500e+01 -1.500e+01 -1.500e+01 -1.500e+01 -1.500e+01 -9.000e+00 -9.000e+00 -9.000e+00 -9.000e+00 -9.000e+00 -9.000e+00 -9.000e+00 -9.000e+00 -9.000e+00 -1.500e+01 -9.000e+00