<?xml version="1.0"?>
<VTKFile type="UnstructuredGrid" version="0.1" byte_order="LittleEndian">
   <UnstructuredGrid>
      <Piece NumberOfPoints="8450" NumberOfCells="575">
         <Points>
            <DataArray type="Float32" Name="Position" NumberOfComponents="3" format="ascii">
0.140	-5.037	-0.072
0.140	-5.028	-0.071
0.135	-5.021	-0.068
0.128	-5.019	-0.063
0.120	-5.022	-0.058
0.116	-5.030	-0.056
0.116	-5.039	-0.056
0.121	-5.046	-0.060
0.128	-5.049	-0.065
0.136	-5.045	-0.070
0.515	-5.075	0.482
0.515	-5.066	0.483
0.510	-5.058	0.487
0.503	-5.056	0.492
0.495	-5.060	0.497
0.491	-5.068	0.499
0.491	-5.077	0.498
0.496	-5.084	0.495
0.503	-5.086	0.489
0.511	-5.083	0.485
0.259	-5.095	-0.137
0.259	-5.087	-0.133
0.255	-5.083	-0.125
0.249	-5.084	-0.118
0.243	-5.090	-0.114
0.239	-5.098	-0.115
0.239	-5.106	-0.119
0.243	-5.111	-0.126
0.249	-5.110	-0.133
0.255	-5.104	-0.137
0.894	-5.378	0.386
0.893	-5.370	0.391
0.889	-5.366	0.398
0.883	-5.367	0.405
0.877	-5.373	0.409
0.874	-5.381	0.409
0.874	-5.389	0.404
0.878	-5.394	0.397
0.884	-5.393	0.390
0.890	-5.387	0.386
1.239	-5.924	-0.547
1.238	-5.915	-0.545
1.234	-5.908	-0.541
1.226	-5.906	-0.536
1.219	-5.910	-0.531
1.215	-5.918	-0.529
1.215	-5.927	-0.530
1.220	-5.934	-0.534
1.227	-5.936	-0.540
1.234	-5.932	-0.545
1.557	-5.973	-0.098
1.557	-5.963	-0.097
1.552	-5.956	-0.093
1.545	-5.955	-0.087
1.538	-5.958	-0.083
1.534	-5.966	-0.080
1.534	-5.976	-0.082
1.539	-5.982	-0.086
1.546	-5.984	-0.091
1.553	-5.981	-0.096
1.313	-6.023	-0.586
1.317	-6.020	-0.578
1.320	-6.022	-0.570
1.322	-6.030	-0.564
1.322	-6.039	-0.564
1.319	-6.046	-0.568
1.316	-6.050	-0.576
1.313	-6.047	-0.585
1.311	-6.040	-0.590
1.311	-6.031	-0.591
1.871	-6.049	-0.814
1.874	-6.045	-0.806
1.877	-6.048	-0.798
1.879	-6.055	-0.792
1.879	-6.064	-0.792
1.877	-6.072	-0.797
1.873	-6.075	-0.805
1.870	-6.073	-0.813
1.868	-6.065	-0.818
1.868	-6.056	-0.819
1.392	-6.140	-0.618
1.401	-6.136	-0.620
1.410	-6.138	-0.621
1.416	-6.145	-0.620
1.417	-6.154	-0.618
1.412	-6.162	-0.616
1.404	-6.165	-0.614
1.395	-6.163	-0.614
1.389	-6.156	-0.614
1.388	-6.147	-0.616
1.353	-6.271	-1.187
1.357	-6.271	-1.179
1.355	-6.271	-1.170
1.349	-6.271	-1.163
1.340	-6.271	-1.162
1.331	-6.271	-1.166
1.327	-6.271	-1.174
1.329	-6.271	-1.183
1.335	-6.271	-1.190
1.344	-6.271	-1.191
1.484	-6.257	-0.668
1.487	-6.253	-0.660
1.491	-6.256	-0.652
1.492	-6.263	-0.646
1.491	-6.272	-0.645
1.488	-6.280	-0.649
1.484	-6.283	-0.657
1.481	-6.281	-0.666
1.480	-6.274	-0.671
1.481	-6.264	-0.672
1.915	-6.319	-0.850
1.919	-6.315	-0.842
1.922	-6.318	-0.834
1.923	-6.325	-0.828
1.923	-6.334	-0.827
1.920	-6.342	-0.831
1.916	-6.345	-0.839
1.913	-6.343	-0.847
1.911	-6.335	-0.853
1.912	-6.326	-0.854
1.577	-6.395	-0.702
1.578	-6.386	-0.702
1.574	-6.379	-0.699
1.566	-6.375	-0.694
1.558	-6.378	-0.690
1.553	-6.385	-0.688
1.552	-6.394	-0.689
1.556	-6.402	-0.692
1.564	-6.405	-0.696
1.572	-6.403	-0.700
1.786	-6.438	-0.308
1.787	-6.429	-0.307
1.783	-6.421	-0.304
1.775	-6.418	-0.300
1.767	-6.420	-0.296
1.762	-6.427	-0.294
1.761	-6.437	-0.294
1.765	-6.444	-0.297
1.773	-6.447	-0.302
1.781	-6.445	-0.306
1.638	-6.502	-0.738
1.643	-6.499	-0.730
1.647	-6.502	-0.723
1.649	-6.509	-0.718
1.649	-6.519	-0.717
1.646	-6.526	-0.722
1.642	-6.529	-0.730
1.638	-6.526	-0.737
1.635	-6.519	-0.742
1.635	-6.510	-0.743
2.064	-6.521	-0.976
2.068	-6.518	-0.968
2.072	-6.521	-0.961
2.075	-6.529	-0.956
2.074	-6.538	-0.955
2.071	-6.545	-0.960
2.067	-6.548	-0.967
2.063	-6.546	-0.975
2.060	-6.538	-0.980
2.061	-6.529	-0.981
1.728	-6.643	-0.771
1.729	-6.634	-0.768
1.725	-6.628	-0.763
1.718	-6.626	-0.757
1.710	-6.630	-0.753
1.705	-6.638	-0.753
1.704	-6.647	-0.756
1.708	-6.653	-0.762
1.715	-6.654	-0.767
1.723	-6.651	-0.771
1.929	-6.767	-0.479
1.929	-6.758	-0.476
1.925	-6.751	-0.470
1.918	-6.750	-0.465
1.911	-6.754	-0.461
1.905	-6.761	-0.461
1.905	-6.770	-0.464
1.909	-6.776	-0.469
1.916	-6.778	-0.475
1.923	-6.774	-0.479
1.779	-6.757	-0.791
1.787	-6.753	-0.795
1.795	-6.753	-0.797
1.802	-6.759	-0.799
1.805	-6.768	-0.798
1.802	-6.777	-0.795
1.795	-6.781	-0.792
1.786	-6.781	-0.789
1.779	-6.775	-0.788
1.776	-6.766	-0.789
1.683	-6.816	-1.091
1.690	-6.811	-1.094
1.699	-6.812	-1.097
1.706	-6.818	-1.098
1.709	-6.827	-1.097
1.706	-6.835	-1.094
1.699	-6.840	-1.091
1.690	-6.839	-1.088
1.683	-6.833	-1.087
1.680	-6.824	-1.088
1.875	-6.905	-0.822
1.875	-6.900	-0.815
1.872	-6.892	-0.810
1.866	-6.885	-0.811
1.859	-6.882	-0.817
1.855	-6.882	-0.825
1.855	-6.887	-0.833
1.858	-6.895	-0.837
1.865	-6.902	-0.836
1.871	-6.905	-0.831
1.565	-7.158	-0.649
1.566	-7.153	-0.642
1.562	-7.145	-0.637
1.556	-7.138	-0.638
1.550	-7.135	-0.644
1.546	-7.135	-0.652
1.545	-7.140	-0.660
1.549	-7.148	-0.664
1.555	-7.155	-0.663
1.561	-7.159	-0.658
1.952	-7.026	-0.859
1.954	-7.017	-0.856
1.951	-7.010	-0.852
1.943	-7.006	-0.847
1.934	-7.008	-0.845
1.928	-7.015	-0.845
1.926	-7.024	-0.848
1.930	-7.031	-0.852
1.937	-7.034	-0.857
1.946	-7.032	-0.859
2.094	-7.180	-0.492
2.096	-7.172	-0.489
2.092	-7.164	-0.485
2.085	-7.161	-0.481
2.076	-7.163	-0.478
2.070	-7.170	-0.478
2.068	-7.178	-0.481
2.071	-7.186	-0.486
2.079	-7.189	-0.490
2.087	-7.187	-0.493
0.366	-5.159	-0.193
0.367	-5.156	-0.185
0.369	-5.157	-0.176
0.369	-5.164	-0.170
0.369	-5.173	-0.169
0.367	-5.181	-0.173
0.365	-5.185	-0.181
0.364	-5.183	-0.190
0.363	-5.177	-0.196
0.364	-5.167	-0.198
1.107	-5.230	-0.330
1.109	-5.226	-0.321
1.110	-5.228	-0.312
1.111	-5.235	-0.306
1.110	-5.244	-0.305
1.108	-5.252	-0.309
1.106	-5.256	-0.318
1.105	-5.254	-0.327
1.104	-5.247	-0.333
1.105	-5.238	-0.334
2.005	-7.137	-0.879
2.012	-7.133	-0.882
2.021	-7.134	-0.884
2.028	-7.141	-0.885
2.030	-7.150	-0.883
2.026	-7.158	-0.880
2.018	-7.162	-0.876
2.010	-7.160	-0.874
2.003	-7.153	-0.874
2.001	-7.145	-0.876
1.927	-7.209	-1.155
1.935	-7.205	-1.158
1.944	-7.207	-1.160
1.951	-7.213	-1.160
1.952	-7.222	-1.158
1.949	-7.230	-1.155
1.941	-7.234	-1.152
1.932	-7.233	-1.150
1.925	-7.226	-1.150
1.924	-7.217	-1.152
2.096	-7.289	-0.901
2.095	-7.285	-0.893
2.091	-7.278	-0.888
2.084	-7.271	-0.889
2.079	-7.267	-0.894
2.076	-7.267	-0.903
2.076	-7.271	-0.912
2.080	-7.277	-0.916
2.087	-7.284	-0.916
2.092	-7.289	-0.910
1.875	-7.482	-0.826
1.874	-7.478	-0.818
1.870	-7.471	-0.813
1.864	-7.464	-0.814
1.858	-7.460	-0.820
1.855	-7.460	-0.828
1.855	-7.464	-0.837
1.860	-7.470	-0.841
1.866	-7.477	-0.841
1.872	-7.481	-0.835
2.165	-7.420	-0.923
2.164	-7.416	-0.915
2.160	-7.409	-0.910
2.154	-7.402	-0.911
2.148	-7.398	-0.916
2.145	-7.398	-0.925
2.145	-7.402	-0.933
2.149	-7.409	-0.938
2.156	-7.416	-0.938
2.162	-7.420	-0.932
1.937	-7.588	-0.850
1.941	-7.585	-0.842
1.945	-7.587	-0.834
1.947	-7.595	-0.829
1.947	-7.604	-0.829
1.945	-7.612	-0.834
1.941	-7.615	-0.842
1.937	-7.612	-0.850
1.935	-7.604	-0.855
1.935	-7.595	-0.855
2.213	-7.534	-0.950
2.215	-7.531	-0.941
2.217	-7.533	-0.932
2.218	-7.540	-0.926
2.218	-7.549	-0.926
2.216	-7.557	-0.930
2.215	-7.560	-0.939
2.213	-7.558	-0.948
2.212	-7.551	-0.954
2.212	-7.542	-0.954
2.492	-7.552	-0.985
2.500	-7.552	-0.980
2.509	-7.552	-0.982
2.516	-7.552	-0.988
2.517	-7.552	-0.998
2.513	-7.552	-1.006
2.505	-7.552	-1.010
2.496	-7.552	-1.009
2.489	-7.552	-1.002
2.488	-7.552	-0.993
2.272	-7.671	-0.964
2.274	-7.668	-0.956
2.277	-7.670	-0.948
2.279	-7.677	-0.942
2.278	-7.686	-0.941
2.276	-7.694	-0.946
2.273	-7.697	-0.954
2.271	-7.695	-0.963
2.269	-7.688	-0.968
2.270	-7.679	-0.969
2.486	-7.683	-1.035
2.489	-7.680	-1.027
2.492	-7.682	-1.019
2.493	-7.689	-1.013
2.493	-7.699	-1.012
2.491	-7.706	-1.017
2.488	-7.710	-1.025
2.485	-7.707	-1.034
2.484	-7.700	-1.039
2.484	-7.691	-1.040
2.334	-7.808	-0.979
2.336	-7.804	-0.971
2.338	-7.806	-0.962
2.338	-7.813	-0.956
2.338	-7.822	-0.954
2.335	-7.830	-0.959
2.333	-7.834	-0.967
2.331	-7.832	-0.976
2.331	-7.825	-0.982
2.332	-7.816	-0.983
2.608	-7.844	-1.044
2.611	-7.841	-1.036
2.613	-7.843	-1.027
2.613	-7.849	-1.021
2.612	-7.859	-1.019
2.610	-7.866	-1.024
2.608	-7.870	-1.032
2.606	-7.868	-1.041
2.605	-7.862	-1.047
2.606	-7.852	-1.048
2.386	-7.944	-0.985
2.395	-7.941	-0.985
2.404	-7.944	-0.985
2.410	-7.951	-0.983
2.410	-7.960	-0.981
2.404	-7.967	-0.979
2.396	-7.970	-0.979
2.387	-7.967	-0.979
2.381	-7.960	-0.980
2.381	-7.951	-0.983
2.381	-7.991	-1.181
2.390	-7.988	-1.182
2.399	-7.990	-1.182
2.404	-7.997	-1.180
2.405	-8.006	-1.178
2.399	-8.014	-1.176
2.391	-8.017	-1.176
2.382	-8.014	-1.176
2.376	-8.007	-1.177
2.376	-7.998	-1.180
2.465	-8.102	-0.995
2.468	-8.093	-0.994
2.466	-8.085	-0.993
2.458	-8.079	-0.991
2.449	-8.079	-0.989
2.442	-8.085	-0.989
2.439	-8.093	-0.990
2.441	-8.102	-0.991
2.449	-8.108	-0.993
2.458	-8.108	-0.995
2.471	-8.118	-0.804
2.479	-8.118	-0.799
2.488	-8.118	-0.801
2.495	-8.118	-0.808
2.496	-8.118	-0.817
2.492	-8.118	-0.825
2.484	-8.118	-0.829
2.475	-8.118	-0.828
2.468	-8.118	-0.821
2.467	-8.118	-0.812
2.508	-8.220	-1.010
2.510	-8.217	-1.002
2.512	-8.219	-0.993
2.513	-8.226	-0.987
2.513	-8.236	-0.986
2.512	-8.243	-0.991
2.510	-8.247	-1.000
2.508	-8.245	-1.008
2.507	-8.238	-1.014
2.507	-8.228	-1.015
2.678	-8.222	-1.049
2.680	-8.219	-1.040
2.682	-8.221	-1.032
2.683	-8.228	-1.026
2.683	-8.237	-1.025
2.682	-8.245	-1.030
2.680	-8.249	-1.038
2.678	-8.246	-1.047
2.677	-8.239	-1.053
2.677	-8.230	-1.053
2.556	-8.359	-1.014
2.565	-8.357	-1.015
2.574	-8.360	-1.014
2.579	-8.367	-1.012
2.579	-8.376	-1.009
2.573	-8.383	-1.007
2.564	-8.386	-1.007
2.555	-8.383	-1.008
2.550	-8.375	-1.010
2.550	-8.366	-1.012
2.558	-8.408	-1.183
2.567	-8.405	-1.183
2.575	-8.408	-1.182
2.581	-8.416	-1.180
2.580	-8.425	-1.178
2.575	-8.432	-1.176
2.566	-8.434	-1.175
2.557	-8.431	-1.176
2.552	-8.424	-1.178
2.552	-8.415	-1.181
0.498	-5.252	-0.238
0.501	-5.251	-0.229
0.498	-5.248	-0.221
0.490	-5.246	-0.216
0.481	-5.244	-0.216
0.474	-5.244	-0.222
0.471	-5.246	-0.230
0.474	-5.248	-0.239
0.481	-5.251	-0.244
0.490	-5.252	-0.244
0.402	-5.845	-0.105
0.405	-5.843	-0.097
0.402	-5.841	-0.088
0.395	-5.839	-0.083
0.385	-5.837	-0.083
0.378	-5.837	-0.089
0.375	-5.839	-0.098
0.378	-5.841	-0.106
0.385	-5.844	-0.111
0.395	-5.845	-0.111
2.625	-8.523	-1.019
2.624	-8.519	-1.011
2.619	-8.512	-1.008
2.614	-8.504	-1.009
2.609	-8.500	-1.016
2.608	-8.500	-1.025
[...]
         <CellData>
           <DataArray type="Float32" Name="aerenchymaFormation" NumberOfComponents="1" format="ascii">
 0.000e+00 0.000e+00 0.000e+00 0.000e+00 0.000e+00 0.000e+00 0.000e+00 0.000e+00 0.000e+00 0.000e+00 0.000e+00 0.000e+00 0.000e+00 0.000e+00 0.000e+00 0.000e+00 0.000e+00 0.000e+00 0.000e+00 0.000e+00 0.000e+00 0.000e+00 0.000e+00 0.000e+00 0.000e+00 0.000e+00 0.000e+00 0.000e+00 0.000e+00 0.000e+00 0.000e+00 0.000e+00 0.000e+00 0.000e+00 0.000e+00 0.000e+00 4.583e-02 2.000e-02 7.500e-03 0.000e+00 0.000e+00 0.000e+00 0.000e+00 0.000e+00 0.000e+00 0.000e+00 0.000e+00 0.000e+00 0.000e+00 0.000e+00 0.000e+00 0.000e+00 0.000e+00 0.000e+00 0.000e+00 0.000e+00 0.000e+00 0.000e+00 0.000e+00 0.000e+00 0.000e+00 0.000e+00 0.000e+00 0.000e+00 0.000e+00 0.000e+00 0.000e+00 0.000e+00 0.000e+00 0.000e+00 0.000e+00 0.000e+00 0.000e+00 0.000e+00 0.000e+00 0.000e+00 0.000e+00 0.000e+00 0.000e+00 0.000e+00 0.000e+00 0.000e+00 0.000e+00 0.000e+00 0.000e+00 0.000e+00 0.000e+00 0.000e+00 0.000e+00 0.000e+00 4.583e-02 2.000e-02 7.500e-03 0.000e+00 0.000e+00 0.000e+00 0.000e+00 0.000e+00 0.000e+00 0.000e+00 0.000e+00 0.000e+00 0.000e+00 0.000e+00 0.000e+00 0.000e+00 0.000e+00 0.000e+00 0.000e+00 0.000e+00 0.000e+00 0.000e+00 0.000e+00 0.000e+00 0.000e+00 0.000e+00 0.000e+00 0.000e+00 0.000e+00 0.000e+00 0.000e+00 0.000e+00 0.000e+00 0.000e+00 0.000e+00 0.000e+00 0.000e+00 0.000e+00 0.000e+00 0.000e+00 0.000e+00 0.000e+00 0.000e+00 0.000e+00 0.000e+00 0.000e+00 0.000e+00 0.000e+00 0.000e+00 0.000e+00 0.000e+00 0.000e+00 0.000e+00 0.000e+00 0.000e+00 4.583e-02 2.000e-02 7.500e-03 0.000e+00 0.000e+00 0.000e+00 0.000e+00 0.000e+00 0.000e+00 0.000e+00 0.000e+00 0.000e+00 0.000e+00 0.000e+00 0.000e+00 0.000e+00 0.000e+00 0.000e+00 0.000e+00 0.000e+00 0.000e+00 0.000e+00 0.000e+00 0.000e+00 0.000e+00 0.000e+00 0.000e+00 0.000e+00 0.000e+00 0.000e+00 0.000e+00 0.000e+00 0.000e+00 0.000e+00 0.000e+00 0.000e+00 0.000e+00 0.000e+00 0.000e+00 0.000e+00 0.000e+00 0.000e+00 0.000e+00 0.000e+00 0.000e+00 0.000e+00 0.000e+00 0.000e+00 0.000e+00 0.000e+00 0.000e+00 0.000e+00 0.000e+00 0.000e+00 4.583e-02 2.000e-02 7.500e-03 0.000e+00 0.000e+00 0.000e+00 0.000e+00 0.000e+00 0.000e+00 0.000e+00 0.000e+00 0.000e+00 0.000e+00 0.000e+00 0.000e+00 0.000e+00 0.000e+00 0.000e+00 0.000e+00 0.000e+00 0.000e+00 0.000e+00 0.000e+00 0.000e+00 0.000e+00 0.000e+00 0.000e+00 0.000e+00 0.000e+00 0.000e+00 0.000e+00 0.000e+00 0.000e+00 0.000e+00 0.000e+00 0.000e+00 0.000e+00 0.000e+00 0.000e+00 0.000e+00 0.000e+00 0.000e+00 0.000e+00 0.000e+00 0.000e+00 0.000e+00 0.000e+00 0.000e+00 0.000e+00 0.000e+00 0.000e+00 0.000e+00 0.000e+00 0.000e+00 0.000e+00 0.000e+00 4.287e-02 1.500e-02 0.000e+00 0.000e+00 4.181e-02 1.250e-02 0.000e+00 0.000e+00 3.227e-02 5.000e-03 0.000e+00 0.000e+00 0.000e+00 0.000e+00 0.000e+00 0.000e+00 0.000e+00 0.000e+00 0.000e+00 0.000e+00 0.000e+00 0.000e+00 3.120e-02 2.500e-03 0.000e+00 0.000e+00 0.000e+00 0.000e+00 3.014e-02 0.000e+00 0.000e+00 0.000e+00 2.908e-02 0.000e+00 0.000e+00 0.000e+00 2.802e-02 0.000e+00 0.000e+00 0.000e+00 2.696e-02 0.000e+00 0.000e+00 0.000e+00 2.590e-02 0.000e+00 0.000e+00 0.000e+00 2.484e-02 0.000e+00 0.000e+00 0.000e+00 2.378e-02 0.000e+00 0.000e+00 0.000e+00 2.272e-02 0.000e+00 0.000e+00 0.000e+00 4.075e-02 1.500e-02 0.000e+00 0.000e+00 0.000e+00 2.166e-02 0.000e+00 0.000e+00 0.000e+00 2.060e-02 0.000e+00 0.000e+00 0.000e+00 1.954e-02 0.000e+00 0.000e+00 0.000e+00 1.848e-02 0.000e+00 0.000e+00 1.742e-02 0.000e+00 0.000e+00 0.000e+00 1.636e-02 0.000e+00 0.000e+00 0.000e+00 1.529e-02 0.000e+00 0.000e+00 1.423e-02 0.000e+00 0.000e+00 1.317e-02 0.000e+00 0.000e+00 0.000e+00 1.211e-02 0.000e+00 0.000e+00 3.969e-02 1.000e-02 0.000e+00 0.000e+00 1.105e-02 0.000e+00 0.000e+00 0.000e+00 9.992e-03 0.000e+00 0.000e+00 8.931e-03 0.000e+00 0.000e+00 7.870e-03 0.000e+00 0.000e+00 0.000e+00 6.810e-03 0.000e+00 0.000e+00 5.749e-03 0.000e+00 0.000e+00 4.688e-03 0.000e+00 0.000e+00 3.627e-03 0.000e+00 0.000e+00 2.567e-03 0.000e+00 0.000e+00 1.506e-03 0.000e+00 0.000e+00 3.863e-02 1.250e-02 0.000e+00 0.000e+00 0.000e+00 4.455e-04 0.000e+00 0.000e+00 0.000e+00 0.000e+00 0.000e+00 0.000e+00 0.000e+00 0.000e+00 0.000e+00 0.000e+00 0.000e+00 0.000e+00 0.000e+00 0.000e+00 0.000e+00 0.000e+00 0.000e+00 0.000e+00 0.000e+00 0.000e+00 0.000e+00 0.000e+00 0.000e+00 0.000e+00 0.000e+00 0.000e+00 0.000e+00 0.000e+00 0.000e+00 3.757e-02 1.000e-02 0.000e+00 0.000e+00 0.000e+00 0.000e+00 0.000e+00 0.000e+00 0.000e+00 0.000e+00 0.000e+00 0.000e+00 0.000e+00 0.000e+00 0.000e+00 0.000e+00 0.000e+00 0.000e+00 0.000e+00 0.000e+00 0.000e+00 0.000e+00 0.000e+00 0.000e+00 0.000e+00 0.000e+00 0.000e+00 0.000e+00 0.000e+00 3.651e-02 1.000e-02 0.000e+00 0.000e+00 0.000e+00 0.000e+00 0.000e+00 0.000e+00 0.000e+00 0.000e+00 0.000e+00 0.000e+00 0.000e+00 0.000e+00 0.000e+00 0.000e+00 0.000e+00 0.000e+00 0.000e+00 0.000e+00 0.000e+00 0.000e+00 0.000e+00 0.000e+00 0.000e+00 0.000e+00 3.545e-02 5.000e-03 0.000e+00 0.000e+00 0.000e+00 0.000e+00 0.000e+00 0.000e+00 0.000e+00 0.000e+00 0.000e+00 0.000e+00 0.000e+00 0.000e+00 0.000e+00 0.000e+00 0.000e+00 0.000e+00 0.000e+00 0.000e+00 0.000e+00 0.000e+00 0.000e+00 3.439e-02 5.000e-03 0.000e+00 0.000e+00 0.000e+00 0.000e+00 0.000e+00 0.000e+00 0.000e+00 0.000e+00 0.000e+00 0.000e+00 0.000e+00 0.000e+00 0.000e+00 3.333e-02 0.000e+00 0.000e+00 0.000e+00 0.000e+00 0.000e+00 0.000e+00 0.000e+00 0.000e+00 0.000e+00 0.000e+00 0.000e+00 0.000e+00 0.000e+00 2.693e-03 0.000e+00 0.000e+00 0.000e+00 0.000e+00 0.000e+00 0.000e+00 0.000e+00 0.000e+00 0.000e+00 0.000e+00 0.000e+00 9.000e-02 8.700e-02 8.400e-02 8.100e-02 7.800e-02 7.500e-02 7.100e-02 6.800e-02 6.500e-02 6.100e-02 5.800e-02 5.500e-02 5.100e-02 4.500e-02 3.750e-02 3.000e-02 2.250e-02 1.500e-02 7.500e-03 0.000e+00 0.000e+00 0.000e+00 0.000e+00 0.000e+00 0.000e+00 0.000e+00 0.000e+00 0.000e+00 0.000e+00
           </DataArray>
           <DataArray type="Float32" Name="combinedRootClassID" NumberOfComponents="1" format="ascii">
 -1.300e+01 -1.300e+01 -1.300e+01 -1.300e+01 -1.300e+01 -1.300e+01 -1.300e+01 -1.300e+01 -1.300e+01 -1.300e+01 -1.300e+01 -1.300e+01 -1.300e+01 -1.300e+01 -1.300e+01 -1.300e+01 -1.300e+01 -1.300e+01 -1.300e+01 -1.300e+01 -1.300e+01 -1.300e+01 -1.300e+01 -1.300e+01 -1.300e+01 -1.300e+01 -1.300e+01 -1.300e+01 -1.300e+01 -1.300e+01 -1.300e+01 -1.300e+01 -1.300e+01 -1.300e+01 -1.300e+01 -1.300e+01 -5.000e+00 -5.000e+00 -5.000e+00 -5.000e+00 -5.000e+00 -5.000e+00 -5.000e+00 -5.000e+00 -5.000e+00 -5.000e+00 -5.000e+00 -5.000e+00 -5.000e+00 -5.000e+00 -5.000e+00 -5.000e+00 -5.000e+00 -5.000e+00 -1.300e+01 -1.300e+01 -1.300e+01 -1.300e+01 -1.300e+01 -1.300e+01 -1.300e+01 -1.300e+01 -1.300e+01 -1.300e+01 -1.300e+01 -1.300e+01 -1.300e+01 -1.300e+01 -1.300e+01 -1.300e+01 -1.300e+01 -1.300e+01 -1.300e+01 -1.300e+01 -1.300e+01 -1.300e+01 -1.300e+01 -1.300e+01 -1.300e+01 -1.300e+01 -1.300e+01 -1.300e+01 -1.300e+01 -1.300e+01 -1.300e+01 -1.300e+01 -1.300e+01 -1.300e+01 -1.300e+01 -1.300e+01 -5.000e+00 -5.000e+00 -5.000e+00 -5.000e+00 -5.000e+00 -5.000e+00 -5.000e+00 -5.000e+00 -5.000e+00 -5.000e+00 -5.000e+00 -5.000e+00 -5.000e+00 -5.000e+00 -5.000e+00 -5.000e+00 -5.000e+00 -5.000e+00 -1.300e+01 -1.300e+01 -1.300e+01 -1.300e+01 -1.300e+01 -1.300e+01 -1.300e+01 -1.300e+01 -1.300e+01 -1.300e+01 -1.300e+01 -1.300e+01 -1.300e+01 -1.300e+01 -1.300e+01 -1.300e+01 -1.300e+01 -1.300e+01 -1.300e+01 -1.300e+01 -1.300e+01 -1.300e+01 -1.300e+01 -1.300e+01 -1.300e+01 -1.300e+01 -1.300e+01 -1.300e+01 -1.300e+01 -1.300e+01 -1.300e+01 -1.300e+01 -1.300e+01 -1.300e+01 -1.300e+01 -1.300e+01 -1.300e+01 -5.000e+00 -5.000e+00 -5.000e+00 -5.000e+00 -5.000e+00 -5.000e+00 -5.000e+00 -5.000e+00 -5.000e+00 -5.000e+00 -5.000e+00 -5.000e+00 -5.000e+00 -5.000e+00 -5.000e+00 -5.000e+00 -5.000e+00 -5.000e+00 -1.300e+01 -1.300e+01 -1.300e+01 -1.300e+01 -1.300e+01 -1.300e+01 -1.300e+01 -1.300e+01 -1.300e+01 -1.300e+01 -1.300e+01 -1.300e+01 -1.300e+01 -1.300e+01 -1.300e+01 -1.300e+01 -1.300e+01 -1.300e+01 -1.300e+01 -1.300e+01 -1.300e+01 -1.300e+01 -1.300e+01 -1.300e+01 -1.300e+01 -1.300e+01 -1.300e+01 -1.300e+01 -1.300e+01 -1.300e+01 -1.300e+01 -1.300e+01 -1.300e+01 -1.300e+01 -1.300e+01 -1.300e+01 -5.000e+00 -5.000e+00 -5.000e+00 -5.000e+00 -5.000e+00 -5.000e+00 -5.000e+00 -5.000e+00 -5.000e+00 -5.000e+00 -5.000e+00 -5.000e+00 -5.000e+00 -5.000e+00 -5.000e+00 -5.000e+00 -5.000e+00 -5.000e+00 -1.100e+01 -1.100e+01 -1.100e+01 -1.100e+01 -1.100e+01 -1.100e+01 -1.100e+01 -1.100e+01 -1.100e+01 -1.100e+01 -1.100e+01 -1.100e+01 -1.100e+01 -1.100e+01 -1.100e+01 -1.100e+01 -1.100e+01 -1.100e+01 -1.100e+01 -1.100e+01 -1.100e+01 -1.100e+01 -1.100e+01 -1.100e+01 -1.100e+01 -1.100e+01 -1.100e+01 -1.100e+01 -2.000e+00 -2.000e+00 -2.000e+00 -2.000e+00 -2.000e+00 -2.000e+00 -2.000e+00 -2.000e+00 -2.000e+00 -2.000e+00 -7.000e+00 -7.000e+00 -7.000e+00 -7.000e+00 -7.000e+00 -7.000e+00 -7.000e+00 -7.000e+00 -7.000e+00 -7.000e+00 -7.000e+00 -7.000e+00 -7.000e+00 -7.000e+00 -7.000e+00 -7.000e+00 -7.000e+00 -7.000e+00 -7.000e+00 -7.000e+00 -7.000e+00 -7.000e+00 -7.000e+00 -7.000e+00 -7.000e+00 -7.000e+00 -7.000e+00 -7.000e+00 -7.000e+00 -7.000e+00 -7.000e+00 -7.000e+00 -7.000e+00 -7.000e+00 -7.000e+00 -7.000e+00 -7.000e+00 -7.000e+00 -7.000e+00 -7.000e+00 -7.000e+00 -7.000e+00 -7.000e+00 -7.000e+00 -7.000e+00 -7.000e+00 -7.000e+00 -7.000e+00 -7.000e+00 -7.000e+00 -7.000e+00 -7.000e+00 -7.000e+00 -7.000e+00 -7.000e+00 -7.000e+00 -7.000e+00 -7.000e+00 -7.000e+00 -7.000e+00 -7.000e+00 -7.000e+00 -7.000e+00 -7.000e+00 -7.000e+00 -7.000e+00 -7.000e+00 -7.000e+00 -7.000e+00 -7.000e+00 -7.000e+00 -7.000e+00 -7.000e+00 -7.000e+00 -7.000e+00 -7.000e+00 -7.000e+00 -7.000e+00 -7.000e+00 -7.000e+00 -7.000e+00 -7.000e+00 -7.000e+00 -7.000e+00 -7.000e+00 -7.000e+00 -7.000e+00 -7.000e+00 -7.000e+00 -7.000e+00 -7.000e+00 -7.000e+00 -7.000e+00 -7.000e+00 -7.000e+00 -7.000e+00 -7.000e+00 -7.000e+00 -7.000e+00 -7.000e+00 -7.000e+00 -7.000e+00 -7.000e+00 -7.000e+00 -7.000e+00 -7.000e+00 -7.000e+00 -7.000e+00 -7.000e+00 -7.000e+00 -7.000e+00 -7.000e+00 -7.000e+00 -7.000e+00 -7.000e+00 -7.000e+00 -7.000e+00 -7.000e+00 -7.000e+00 -7.000e+00 -7.000e+00 -7.000e+00 -7.000e+00 -7.000e+00 -7.000e+00 -7.000e+00 -7.000e+00 -7.000e+00 -7.000e+00 -7.000e+00 -7.000e+00 -7.000e+00 -7.000e+00 -7.000e+00 -7.000e+00 -7.000e+00 -7.000e+00 -7.000e+00 -7.000e+00 -7.000e+00 -7.000e+00 -7.000e+00 -7.000e+00 -7.000e+00 -7.000e+00 -7.000e+00 -7.000e+00 -7.000e+00 -7.000e+00 -7.000e+00 -7.000e+00 -7.000e+00 -7.000e+00 -7.000e+00 -7.000e+00 -7.000e+00 -7.000e+00 -7.000e+00 -7.000e+00 -7.000e+00 -7.000e+00 -7.000e+00 -7.000e+00 -7.000e+00 -7.000e+00 -7.000e+00 -7.000e+00 -7.000e+00 -7.000e+00 -7.000e+00 -7.000e+00 -7.000e+00 -7.000e+00 -7.000e+00 -7.000e+00 -7.000e+00 -7.000e+00 -7.000e+00 -7.000e+00 -7.000e+00 -7.000e+00 -7.000e+00 -7.000e+00 -7.000e+00 -7.000e+00 -7.000e+00 -7.000e+00 -7.000e+00 -7.000e+00 -7.000e+00 -7.000e+00 -7.000e+00 -7.000e+00 -7.000e+00 -7.000e+00 -7.000e+00 -7.000e+00 -7.000e+00 -7.000e+00 -7.000e+00 -7.000e+00 -7.000e+00 -7.000e+00 -7.000e+00 -7.000e+00 -7.000e+00 -7.000e+00 -7.000e+00 -7.000e+00 -7.000e+00 -7.000e+00 -7.000e+00 -7.000e+00 -7.000e+00 -7.000e+00 -7.000e+00 -7.000e+00 -7.000e+00 -7.000e+00 -7.000e+00 -7.000e+00 -7.000e+00 -7.000e+00 -7.000e+00 -7.000e+00 -7.000e+00 -7.000e+00 -7.000e+00 -7.000e+00 -7.000e+00 -7.000e+00 -7.000e+00 -7.000e+00 -7.000e+00 -7.000e+00 -7.000e+00 -7.000e+00 -7.000e+00 -7.000e+00 -7.000e+00 -7.000e+00 -7.000e+00 -7.000e+00 -7.000e+00 -7.000e+00 -7.000e+00 -7.000e+00 -7.000e+00 -7.000e+00 -7.000e+00 -7.000e+00 -7.000e+00 -7.000e+00 -7.000e+00 -7.000e+00 -7.000e+00 -7.000e+00 -7.000e+00 -7.000e+00 -7.000e+00 -7.000e+00 -7.000e+00 -7.000e+00 -7.000e+00 -7.000e+00 -7.000e+00 -7.000e+00 -7.000e+00 -7.000e+00 -7.000e+00 -7.000e+00 -7.000e+00 -7.000e+00 -7.000e+00 -7.000e+00 -7.000e+00 -7.000e+00 -7.000e+00 -7.000e+00 -9.000e+00 -9.000e+00 -9.000e+00 -9.000e+00 -9.000e+00 -9.000e+00 -9.000e+00 -9.000e+00 -9.000e+00 -9.000e+00 -9.000e+00 -9.000e+00 -4.000e+00 -4.000e+00 -4.000e+00 -4.000e+00 -4.000e+00 -4.000e+00 -4.000e+00 -4.000e+00 -4.000e+00 -4.000e+00 -4.000e+00 -4.000e+00 -4.000e+00 -4.000e+00 -4.000e+00 -4.000e+00 -4.000e+00 -4.000e+00 -4.000e+00 -4.000e+00 -4.000e+00 -4.000e+00 -4.000e+00 -4.000e+00 -4.000e+00 -4.000e+00 -4.000e+00 -4.000e+00 -4.000e+00
           </DataArray>
           <DataArray type="Float32" Name="nitrate/Cmin" NumberOfComponents="1" format="ascii">
 1.000e-03 1.000e-03 1.000e-03 1.000e-03 1.000e-03 1.000e-03 1.000e-03 1.000e-03 1.000e-03 1.000e-03 1.000e-03 1.000e-03 1.000e-03 1.000e-03 1.000e-03 1.000e-03 1.000e-03 1.000e-03 1.000e-03 1.000e-03 1.000e-03 1.000e-03 1.000e-03 1.000e-03 1.000e-03 1.000e-03 1.000e-03 1.000e-03 1.000e-03 1.000e-03 1.000e-03 1.000e-03 1.000e-03 1.000e-03 1.000e-03 1.000e-03 1.000e-03 1.000e-03 1.000e-03 1.000e-03 1.000e-03 1.000e-03 1.000e-03 1.000e-03 1.000e-03 1.000e-03 1.000e-03 1.000e-03 1.000e-03 1.000e-03 1.000e-03 1.000e-03 1.000e-03 1.000e-03 1.000e-03 1.000e-03 1.000e-03 1.000e-03 1.000e-03 1.000e-03 1.000e-03 1.000e-03 1.000e-03 1.000e-03 1.000e-03 1.000e-03 1.000e-03 1.000e-03 1.000e-03 1.000e-03 1.000e-03 1.000e-03 1.000e-03 1.000e-03 1.000e-03 1.000e-03 1.000e-03 1.000e-03 1.000e-03 1.000e-03 1.000e-03 1.000e-03 1.000e-03 1.000e-03 1.000e-03 1.000e-03 1.000e-03 1.000e-03 1.000e-03 1.000e-03 1.000e-03 1.000e-03 1.000e-03 1.000e-03 1.000e-03 1.000e-03 1.000e-03 1.000e-03 1.000e-03 1.000e-03 1.000e-03 1.000e-03 1.000e-03 1.000e-03 1.000e-03 1.000e-03 1.000e-03 1.000e-03 1.000e-03 1.000e-03 1.000e-03 1.000e-03 1.000e-03 1.000e-03 1.000e-03 1.000e-03 1.000e-03 1.000e-03 1.000e-03 1.000e-03 1.000e-03 1.000e-03 1.000e-03 1.000e-03 1.000e-03 1.000e-03 1.000e-03 1.000e-03 1.000e-03 1.000e-03 1.000e-03 1.000e-03 1.000e-03 1.000e-03 1.000e-03 1.000e-03 1.000e-03 1.000e-03 1.000e-03 1.000e-03 1.000e-03 1.000e-03 1.000e-03 1.000e-03 1.000e-03 1.000e-03 1.000e-03 1.000e-03 1.000e-03 1.000e-03 1.000e-03 1.000e-03 1.000e-03 1.000e-03 1.000e-03 1.000e-03 1.000e-03 1.000e-03 1.000e-03 1.000e-03 1.000e-03 1.000e-03 1.000e-03 1.000e-03 1.000e-03 1.000e-03 1.000e-03 1.000e-03 1.000e-03 1.000e-03 1.000e-03 1.000e-03 1.000e-03 1.000e-03 1.000e-03 1.000e-03 1.000e-03 1.000e-03 1.000e-03 1.000e-03 1.000e-03 1.000e-03 1.000e-03 1.000e-03 1.000e-03 1.000e-03 1.000e-03 1.000e-03 1.000e-03 1.000e-03 1.000e-03 1.000e-03 1.000e-03 1.000e-03 1.000e-03 1.000e-03 1.000e-03 1.000e-03 1.000e-03 1.000e-03 1.000e-03 1.000e-03 1.000e-03 1.000e-03 1.000e-03 1.000e-03 1.000e-03 1.000e-03 1.000e-03 1.000e-03 1.000e-03 1.000e-03 1.000e-03 1.000e-03 1.000e-03 1.000e-03 1.000e-03 1.000e-03 1.000e-03 1.000e-03 1.000e-03 1.000e-03 1.000e-03 1.000e-03 1.000e-03 1.000e-03 1.000e-03 1.000e-03 1.000e-03 1.000e-03 1.000e-03 1.000e-03 1.000e-03 1.000e-03 1.000e-03 1.000e-03 1.000e-03 1.000e-03 1.000e-03 1.000e-03 1.000e-03 1.000e-03 1.000e-03 1.000e-03 1.000e-03 1.000e-03 1.000e-03 1.000e-03 1.000e-03 1.000e-03 1.000e-03 1.000e-03 1.000e-03 1.000e-03 1.000e-03 1.000e-03 1.000e-03 1.000e-03 1.000e-03 1.000e-03 1.000e-03 1.000e-03 1.000e-03 1.000e-03 1.000e-03 1.000e-03 1.000e-03 1.000e-03 1.000e-03 1.000e-03 1.000e-03 1.000e-03 1.000e-03 1.000e-03 1.000e-03 1.000e-03 1.000e-03 1.000e-03 1.000e-03 1.000e-03 1.000e-03 1.000e-03 1.000e-03 1.000e-03 1.000e-03 1.000e-03 1.000e-03 1.000e-03 1.000e-03 1.000e-03 1.000e-03 1.000e-03 1.000e-03 1.000e-03 1.000e-03 1.000e-03 1.000e-03 1.000e-03 1.000e-03 1.000e-03 1.000e-03 1.000e-03 1.000e-03 1.000e-03 1.000e-03 1.000e-03 1.000e-03 1.000e-03 1.000e-03 1.000e-03 1.000e-03 1.000e-03 1.000e-03 1.000e-03 1.000e-03 1.000e-03 1.000e-03 1.000e-03 1.000e-03 1.000e-03 1.000e-03 1.000e-03 1.000e-03 1.000e-03 1.000e-03 1.000e-03 1.000e-03 1.000e-03 1.000e-03 1.000e-03 1.000e-03 1.000e-03 1.000e-03 1.000e-03 1.000e-03 1.000e-03 1.000e-03 1.000e-03 1.000e-03 1.000e-03 1.000e-03 1.000e-03 1.000e-03 1.000e-03 1.000e-03 1.000e-03 1.000e-03 1.000e-03 1.000e-03 1.000e-03 1.000e-03 1.000e-03 1.000e-03 1.000e-03 1.000e-03 1.000e-03 1.000e-03 1.000e-03 1.000e-03 1.000e-03 1.000e-03 1.000e-03 1.000e-03 1.000e-03 1.000e-03 1.000e-03 1.000e-03 1.000e-03 1.000e-03 1.000e-03 1.000e-03 1.000e-03 1.000e-03 1.000e-03 1.000e-03 1.000e-03 1.000e-03 1.000e-03 1.000e-03 1.000e-03 1.000e-03 1.000e-03 1.000e-03 1.000e-03 1.000e-03 1.000e-03 1.000e-03 1.000e-03 1.000e-03 1.000e-03 1.000e-03 1.000e-03 1.000e-03 1.000e-03 1.000e-03 1.000e-03 1.000e-03 1.000e-03 1.000e-03 1.000e-03 1.000e-03 1.000e-03 1.000e-03 1.000e-03 1.000e-03 1.000e-03 1.000e-03 1.000e-03 1.000e-03 1.000e-03 1.000e-03 1.000e-03 1.000e-03 1.000e-03 1.000e-03 1.000e-03 1.000e-03 1.000e-03 1.000e-03 1.000e-03 1.000e-03 1.000e-03 1.000e-03 1.000e-03 1.000e-03 1.000e-03 1.000e-03 1.000e-03 1.000e-03 1.000e-03 1.000e-03 1.000e-03 1.000e-03 1.000e-03 1.000e-03 1.000e-03 1.000e-03 1.000e-03 1.000e-03 1.000e-03 1.000e-03 1.000e-03 1.000e-03 1.000e-03 1.000e-03 1.000e-03 1.000e-03 1.000e-03 1.000e-03 1.000e-03 1.000e-03 1.000e-03 1.000e-03 1.000e-03 1.000e-03 1.000e-03 1.000e-03 1.000e-03 1.000e-03 1.000e-03 1.000e-03 1.000e-03 1.000e-03 1.000e-03 1.000e-03 1.000e-03 1.000e-03 1.000e-03 1.000e-03 1.000e-03 1.000e-03 1.000e-03 1.000e-03 1.000e-03 1.000e-03 1.000e-03 1.000e-03 1.000e-03 1.000e-03 1.000e-03 1.000e-03 1.000e-03 1.000e-03 1.000e-03 1.000e-03 1.000e-03 1.000e-03 1.000e-03 1.000e-03 1.000e-03 1.000e-03 1.000e-03 1.000e-03 1.000e-03 1.000e-03 1.000e-03 1.000e-03 1.000e-03 1.000e-03 1.000e-03 1.000e-03 1.000e-03 1.000e-03 1.000e-03 1.000e-03 1.000e-03 1.000e-03 1.000e-03 1.000e-03 1.000e-03 1.000e-03 1.000e-03 1.000e-03 1.000e-03 1.000e-03 1.000e-03 1.000e-03 1.000e-03 1.000e-03 1.000e-03 1.000e-03 1.000e-03 1.000e-03 1.000e-03 1.000e-03 1.000e-03 1.000e-03 1.000e-03 1.000e-03 1.000e-03 1.000e-03 1.000e-03 1.000e-03 1.000e-03 1.000e-03 1.000e-03 1.000e-03 1.000e-03 1.000e-03 1.000e-03 1.000e-03 1.000e-03 1.000e-03 1.000e-03 1.000e-03 1.000e-03 1.000e-03 1.000e-03 1.000e-03 1.000e-03 1.000e-03 1.000e-03 1.000e-03 1.000e-03 1.000e-03 1.000e-03 1.000e-03 1.000e-03 1.000e-03 1.000e-03 1.000e-03 1.000e-03 1.000e-03 1.000e-03 1.000e-03 1.000e-03 1.000e-03 1.000e-03 1.000e-03 1.000e-03 1.000e-03 1.000e-03 1.000e-03 1.000e-03 1.000e-03
           </DataArray>
           <DataArray type="Float32" Name="nitrate/Imax" NumberOfComponents="1" format="ascii">