<?xml version="1.0"?>
<VTKFile type="UnstructuredGrid" version="0.1" byte_order="LittleEndian">
   <UnstructuredGrid>
      <Piece NumberOfPoints="32540" NumberOfCells="2298">
         <Points>
            <DataArray type="Float32" Name="Position" NumberOfComponents="3" format="ascii">
0.140	-5.038	-0.072
0.140	-5.029	-0.071
0.136	-5.021	-0.068
0.128	-5.019	-0.063
0.121	-5.022	-0.059
0.116	-5.029	-0.056
0.116	-5.039	-0.057
0.120	-5.046	-0.060
0.128	-5.049	-0.065
0.135	-5.046	-0.069
0.598	-5.084	0.669
0.600	-5.075	0.670
0.596	-5.067	0.671
0.589	-5.062	0.674
0.580	-5.063	0.677
0.573	-5.070	0.679
0.571	-5.079	0.679
0.575	-5.087	0.677
0.582	-5.092	0.674
0.591	-5.091	0.671
0.684	-5.185	1.504
0.688	-5.177	1.505
0.686	-5.168	1.506
0.679	-5.162	1.506
0.670	-5.161	1.507
0.662	-5.165	1.506
0.658	-5.174	1.506
0.660	-5.183	1.505
0.667	-5.189	1.504
0.676	-5.190	1.504
0.654	-5.222	1.945
0.658	-5.214	1.946
0.656	-5.205	1.946
0.650	-5.198	1.946
0.641	-5.197	1.946
0.632	-5.201	1.945
0.628	-5.210	1.944
0.630	-5.219	1.943
0.637	-5.225	1.943
0.646	-5.227	1.944
0.259	-5.095	-0.137
0.259	-5.087	-0.133
0.255	-5.083	-0.125
0.249	-5.084	-0.118
0.243	-5.090	-0.114
0.239	-5.098	-0.115
0.239	-5.106	-0.119
0.243	-5.111	-0.126
0.249	-5.110	-0.133
0.255	-5.104	-0.137
0.894	-5.379	0.386
0.894	-5.371	0.391
0.889	-5.366	0.397
0.883	-5.366	0.404
0.877	-5.372	0.408
0.873	-5.380	0.408
0.874	-5.389	0.404
0.878	-5.394	0.397
0.884	-5.393	0.391
0.890	-5.388	0.387
1.487	-5.593	0.988
1.486	-5.585	0.992
1.482	-5.581	0.999
1.476	-5.582	1.006
1.471	-5.588	1.011
1.468	-5.597	1.011
1.468	-5.605	1.006
1.472	-5.609	0.999
1.478	-5.608	0.992
1.484	-5.602	0.988
2.203	-5.823	1.438
2.203	-5.815	1.443
2.199	-5.812	1.450
2.193	-5.813	1.458
2.188	-5.819	1.462
2.185	-5.828	1.461
2.185	-5.836	1.456
2.188	-5.840	1.448
2.194	-5.838	1.441
2.200	-5.832	1.437
2.391	-5.932	1.580
2.392	-5.925	1.585
2.388	-5.920	1.593
2.382	-5.922	1.600
2.376	-5.927	1.604
2.372	-5.936	1.603
2.372	-5.943	1.597
2.375	-5.947	1.590
2.381	-5.946	1.583
2.387	-5.940	1.579
1.238	-5.923	-0.547
1.238	-5.914	-0.546
1.233	-5.908	-0.541
1.226	-5.906	-0.535
1.219	-5.911	-0.530
1.215	-5.919	-0.529
1.216	-5.928	-0.530
1.221	-5.934	-0.535
1.228	-5.936	-0.541
1.234	-5.931	-0.545
1.754	-6.013	0.107
1.753	-6.004	0.110
1.748	-5.998	0.115
1.741	-5.998	0.121
1.735	-6.003	0.126
1.732	-6.011	0.128
1.733	-6.020	0.125
1.738	-6.026	0.120
1.745	-6.027	0.114
1.751	-6.022	0.109
2.375	-6.080	0.705
2.373	-6.072	0.707
2.368	-6.066	0.712
2.361	-6.066	0.719
2.356	-6.071	0.724
2.353	-6.079	0.726
2.354	-6.088	0.724
2.360	-6.094	0.718
2.366	-6.094	0.712
2.372	-6.089	0.707
2.754	-6.105	1.142
2.753	-6.096	1.144
2.748	-6.090	1.149
2.741	-6.089	1.155
2.735	-6.094	1.160
2.732	-6.102	1.162
2.733	-6.111	1.160
2.738	-6.118	1.155
2.745	-6.118	1.149
2.751	-6.114	1.144
4.053	-18.883	-1.229
4.055	-18.877	-1.223
4.053	-18.868	-1.220
4.048	-18.861	-1.222
4.041	-18.858	-1.228
4.036	-18.860	-1.235
4.034	-18.867	-1.241
4.036	-18.875	-1.244
4.041	-18.883	-1.242
4.048	-18.886	-1.236
3.838	-18.982	-1.049
3.842	-18.982	-1.040
3.841	-18.982	-1.031
3.834	-18.982	-1.025
3.825	-18.982	-1.023
3.817	-18.982	-1.027
3.813	-18.982	-1.036
3.814	-18.982	-1.045
3.821	-18.982	-1.051
3.830	-18.982	-1.053
4.069	-19.032	-1.240
4.070	-19.026	-1.233
4.066	-19.019	-1.229
4.060	-19.012	-1.230
4.054	-19.008	-1.235
4.049	-19.009	-1.243
4.049	-19.015	-1.251
4.052	-19.023	-1.255
4.058	-19.030	-1.254
4.064	-19.033	-1.248
3.846	-19.202	-1.086
3.846	-19.196	-1.079
3.843	-19.188	-1.075
3.837	-19.181	-1.076
3.831	-19.178	-1.081
3.826	-19.179	-1.089
3.825	-19.185	-1.097
3.829	-19.192	-1.101
3.835	-19.199	-1.100
3.841	-19.203	-1.094
4.062	-19.163	-1.245
4.066	-19.157	-1.250
4.073	-19.155	-1.256
4.081	-19.159	-1.259
4.086	-19.167	-1.260
4.086	-19.176	-1.257
4.082	-19.182	-1.252
4.074	-19.184	-1.246
4.067	-19.180	-1.243
4.062	-19.172	-1.242
3.900	-19.258	-1.483
3.908	-19.258	-1.479
3.917	-19.258	-1.480
3.924	-19.258	-1.487
3.925	-19.258	-1.496
3.921	-19.258	-1.504
3.913	-19.258	-1.508
3.904	-19.258	-1.507
3.897	-19.258	-1.500
3.896	-19.258	-1.491
4.081	-19.307	-1.256
4.090	-19.304	-1.258
4.099	-19.307	-1.259
4.104	-19.314	-1.258
4.105	-19.323	-1.255
4.100	-19.330	-1.252
4.091	-19.333	-1.250
4.082	-19.330	-1.249
4.077	-19.323	-1.251
4.076	-19.314	-1.253
4.040	-19.394	-1.534
4.049	-19.391	-1.536
4.058	-19.393	-1.536
4.063	-19.401	-1.535
4.064	-19.409	-1.532
4.059	-19.417	-1.529
4.050	-19.419	-1.527
4.041	-19.417	-1.527
4.036	-19.410	-1.528
4.035	-19.401	-1.531
4.109	-19.479	-1.245
4.106	-19.471	-1.241
4.104	-19.462	-1.242
4.104	-19.455	-1.249
4.105	-19.453	-1.258
4.107	-19.457	-1.266
4.110	-19.465	-1.270
4.112	-19.474	-1.269
4.112	-19.480	-1.263
4.111	-19.482	-1.254
3.864	-19.532	-1.287
3.862	-19.524	-1.283
3.860	-19.515	-1.284
3.859	-19.509	-1.290
3.861	-19.507	-1.299
3.863	-19.510	-1.307
3.865	-19.518	-1.312
3.867	-19.527	-1.311
3.867	-19.534	-1.304
3.866	-19.536	-1.295
4.117	-19.605	-1.260
4.126	-19.602	-1.260
4.135	-19.605	-1.260
4.140	-19.612	-1.258
4.140	-19.621	-1.256
4.135	-19.628	-1.254
4.126	-19.631	-1.253
4.117	-19.628	-1.254
4.112	-19.621	-1.256
4.112	-19.612	-1.258
4.116	-19.667	-1.514
4.125	-19.664	-1.514
4.133	-19.667	-1.514
4.139	-19.674	-1.512
4.139	-19.683	-1.510
4.134	-19.691	-1.508
4.125	-19.694	-1.507
4.116	-19.691	-1.508
4.111	-19.684	-1.510
4.110	-19.675	-1.512
4.141	-19.753	-1.261
4.150	-19.750	-1.261
4.158	-19.753	-1.259
4.163	-19.761	-1.256
4.163	-19.770	-1.254
4.157	-19.777	-1.253
4.148	-19.779	-1.253
4.139	-19.776	-1.255
4.134	-19.769	-1.257
4.135	-19.760	-1.260
4.165	-19.817	-1.494
4.174	-19.815	-1.493
4.182	-19.818	-1.492
4.187	-19.825	-1.489
4.187	-19.834	-1.487
4.181	-19.841	-1.485
4.172	-19.844	-1.486
4.163	-19.841	-1.487
4.158	-19.833	-1.490
4.159	-19.824	-1.492
4.172	-19.903	-1.268
4.173	-19.898	-1.260
4.174	-19.900	-1.250
4.173	-19.906	-1.244
4.172	-19.915	-1.242
4.171	-19.923	-1.246
4.170	-19.928	-1.254
4.169	-19.926	-1.263
4.170	-19.920	-1.270
4.171	-19.911	-1.272
4.373	-19.930	-1.279
4.374	-19.925	-1.271
4.374	-19.927	-1.262
4.374	-19.933	-1.255
4.373	-19.942	-1.254
4.372	-19.950	-1.257
4.370	-19.955	-1.266
4.370	-19.953	-1.275
4.371	-19.947	-1.281
4.372	-19.938	-1.283
4.208	-20.068	-1.263
4.211	-20.060	-1.260
4.208	-20.052	-1.256
4.200	-20.047	-1.253
4.191	-20.048	-1.252
4.184	-20.054	-1.252
4.181	-20.062	-1.255
4.184	-20.070	-1.259
4.192	-20.075	-1.263
4.201	-20.074	-1.264
4.213	-20.120	-1.103
4.222	-20.120	-1.099
4.231	-20.120	-1.100
4.237	-20.120	-1.107
4.239	-20.120	-1.116
4.234	-20.120	-1.124
4.226	-20.120	-1.129
4.217	-20.120	-1.127
4.210	-20.120	-1.121
4.209	-20.120	-1.111
4.222	-20.198	-1.270
4.223	-20.194	-1.262
4.224	-20.195	-1.253
4.223	-20.202	-1.247
4.223	-20.211	-1.245
4.222	-20.219	-1.249
4.221	-20.223	-1.257
4.220	-20.222	-1.266
4.221	-20.216	-1.273
4.221	-20.206	-1.275
4.344	-20.208	-1.279
4.345	-20.204	-1.270
4.345	-20.205	-1.261
4.345	-20.212	-1.255
4.344	-20.221	-1.253
4.343	-20.229	-1.257
4.342	-20.234	-1.265
4.342	-20.232	-1.275
4.342	-20.226	-1.281
4.343	-20.217	-1.283
1.313	-6.023	-0.586
1.317	-6.020	-0.578
1.321	-6.022	-0.570
1.322	-6.030	-0.564
1.322	-6.039	-0.564
1.319	-6.047	-0.568
1.316	-6.050	-0.576
1.312	-6.047	-0.584
1.310	-6.040	-0.590
1.310	-6.031	-0.590
2.095	-6.080	-0.944
2.100	-6.078	-0.937
2.104	-6.080	-0.929
2.107	-6.088	-0.924
2.106	-6.097	-0.924
2.103	-6.105	-0.928
2.098	-6.107	-0.935
2.093	-6.105	-0.943
2.091	-6.097	-0.948
2.091	-6.088	-0.948
2.738	-6.147	-1.484
2.743	-6.144	-1.476
2.748	-6.147	-1.469
2.751	-6.155	-1.464
2.750	-6.164	-1.464
2.747	-6.171	-1.468
2.742	-6.174	-1.475
2.737	-6.171	-1.483
2.734	-6.164	-1.488
2.734	-6.155	-1.488
3.480	-6.181	-1.891
3.484	-6.178	-1.883
3.489	-6.181	-1.875
3.491	-6.188	-1.870
3.491	-6.198	-1.870
3.488	-6.205	-1.874
3.484	-6.208	-1.882
3.479	-6.206	-1.890
3.477	-6.198	-1.895
3.477	-6.189	-1.895
4.260	-20.366	-1.264
4.263	-20.357	-1.263
4.261	-20.348	-1.261
4.254	-20.343	-1.260
4.244	-20.342	-1.259
4.237	-20.347	-1.260
4.233	-20.356	-1.261
4.235	-20.364	-1.263
4.243	-20.370	-1.264
4.252	-20.371	-1.265
4.265	-20.387	-1.146
4.268	-20.378	-1.145
4.266	-20.370	-1.143
4.259	-20.364	-1.142
4.249	-20.363	-1.142
4.242	-20.368	-1.142
4.238	-20.377	-1.143
4.240	-20.386	-1.145
4.248	-20.391	-1.147
4.257	-20.392	-1.147
4.268	-20.494	-1.277
4.271	-20.490	-1.268
4.273	-20.492	-1.260
4.273	-20.499	-1.254
4.273	-20.508	-1.253
4.271	-20.516	-1.257
4.269	-20.520	-1.265
4.267	-20.518	-1.274
4.266	-20.511	-1.280
4.267	-20.501	-1.281
4.335	-20.511	-1.274
4.343	-20.511	-1.270
4.353	-20.511	-1.271
4.359	-20.511	-1.278
4.361	-20.511	-1.287
4.356	-20.511	-1.295
4.348	-20.511	-1.300
4.339	-20.511	-1.298
4.332	-20.511	-1.292
4.331	-20.511	-1.282
4.281	-20.642	-1.275
4.290	-20.639	-1.277
4.298	-20.642	-1.277
4.304	-20.649	-1.276
4.305	-20.658	-1.273
4.299	-20.665	-1.270
4.291	-20.668	-1.268
4.282	-20.665	-1.268
4.276	-20.658	-1.269
4.276	-20.649	-1.272
4.271	-20.663	-1.342
4.280	-20.661	-1.345
4.289	-20.663	-1.345
4.294	-20.670	-1.343
4.295	-20.679	-1.341
4.290	-20.686	-1.338
4.281	-20.689	-1.336
4.272	-20.686	-1.335
4.267	-20.679	-1.337
4.266	-20.670	-1.339
4.323	-20.810	-1.282
4.326	-20.801	-1.280
4.323	-20.793	-1.277
4.316	-20.788	-1.275
4.307	-20.788	-1.274
4.299	-20.793	-1.275
4.296	-20.802	-1.277
4.299	-20.810	-1.279
4.306	-20.815	-1.282
4.316	-20.815	-1.283
4.329	-20.826	-1.226
4.332	-20.817	-1.224
4.330	-20.809	-1.221
4.322	-20.804	-1.219
4.313	-20.804	-1.218
4.306	-20.809	-1.219
4.303	-20.818	-1.221
4.305	-20.826	-1.223
4.313	-20.831	-1.226
4.322	-20.831	-1.227
4.341	-20.962	-1.277
4.340	-20.956	-1.270
4.337	-20.947	-1.268
4.333	-20.940	-1.272
4.330	-20.936	-1.280
4.329	-20.937	-1.289
4.330	-20.944	-1.296
4.333	-20.952	-1.297
4.336	-20.960	-1.294
4.340	-20.964	-1.286
4.308	-20.975	-1.270
4.306	-20.969	-1.263
4.303	-20.960	-1.261
4.300	-20.953	-1.265
4.297	-20.949	-1.273
4.295	-20.951	-1.282
4.296	-20.957	-1.289
4.299	-20.965	-1.291
4.303	-20.973	-1.287
4.306	-20.977	-1.279
4.349	-21.086	-1.290
4.358	-21.084	-1.292
4.367	-21.086	-1.293
4.372	-21.094	-1.291
4.372	-21.102	-1.288
[...]
         <CellData>
           <DataArray type="Float32" Name="aerenchymaFormation" NumberOfComponents="1" format="ascii">
 3.332e-02 0.000e+00 0.000e+00 3.238e-02 0.000e+00 0.000e+00 0.000e+00 2.394e-02 0.000e+00 0.000e+00 0.000e+00 0.000e+00 0.000e+00 0.000e+00 0.000e+00 0.000e+00 0.000e+00 0.000e+00 0.000e+00 0.000e+00 2.300e-02 0.000e+00 0.000e+00 0.000e+00 0.000e+00 0.000e+00 0.000e+00 0.000e+00 0.000e+00 2.207e-02 0.000e+00 0.000e+00 2.113e-02 0.000e+00 0.000e+00 2.019e-02 0.000e+00 0.000e+00 1.925e-02 0.000e+00 0.000e+00 1.832e-02 0.000e+00 0.000e+00 1.738e-02 0.000e+00 1.644e-02 0.000e+00 0.000e+00 1.550e-02 0.000e+00 0.000e+00 3.144e-02 0.000e+00 0.000e+00 1.457e-02 0.000e+00 0.000e+00 1.363e-02 0.000e+00 0.000e+00 1.269e-02 0.000e+00 0.000e+00 1.175e-02 0.000e+00 0.000e+00 1.082e-02 0.000e+00 0.000e+00 9.879e-03 0.000e+00 0.000e+00 8.941e-03 0.000e+00 0.000e+00 8.004e-03 0.000e+00 0.000e+00 7.066e-03 0.000e+00 0.000e+00 6.129e-03 0.000e+00 0.000e+00 3.050e-02 0.000e+00 0.000e+00 5.191e-03 0.000e+00 4.254e-03 0.000e+00 0.000e+00 3.316e-03 0.000e+00 0.000e+00 2.379e-03 0.000e+00 1.441e-03 0.000e+00 0.000e+00 5.035e-04 0.000e+00 0.000e+00 0.000e+00 0.000e+00 0.000e+00 0.000e+00 0.000e+00 0.000e+00 0.000e+00 0.000e+00 0.000e+00 0.000e+00 0.000e+00 2.957e-02 0.000e+00 0.000e+00 0.000e+00 0.000e+00 0.000e+00 0.000e+00 0.000e+00 0.000e+00 0.000e+00 0.000e+00 0.000e+00 0.000e+00 0.000e+00 0.000e+00 0.000e+00 0.000e+00 0.000e+00 0.000e+00 0.000e+00 0.000e+00 0.000e+00 0.000e+00 0.000e+00 0.000e+00 2.863e-02 0.000e+00 0.000e+00 0.000e+00 0.000e+00 0.000e+00 0.000e+00 0.000e+00 0.000e+00 0.000e+00 0.000e+00 0.000e+00 0.000e+00 0.000e+00 0.000e+00 0.000e+00 0.000e+00 0.000e+00 0.000e+00 0.000e+00 0.000e+00 0.000e+00 0.000e+00 2.769e-02 0.000e+00 0.000e+00 0.000e+00 0.000e+00 0.000e+00 0.000e+00 0.000e+00 0.000e+00 0.000e+00 0.000e+00 0.000e+00 0.000e+00 0.000e+00 0.000e+00 0.000e+00 0.000e+00 0.000e+00 0.000e+00 0.000e+00 0.000e+00 0.000e+00 0.000e+00 2.675e-02 0.000e+00 0.000e+00 0.000e+00 0.000e+00 0.000e+00 0.000e+00 0.000e+00 0.000e+00 0.000e+00 0.000e+00 0.000e+00 0.000e+00 0.000e+00 0.000e+00 0.000e+00 0.000e+00 0.000e+00 0.000e+00 2.582e-02 0.000e+00 0.000e+00 0.000e+00 0.000e+00 0.000e+00 0.000e+00 0.000e+00 0.000e+00 0.000e+00 0.000e+00 0.000e+00 0.000e+00 0.000e+00 2.488e-02 0.000e+00 0.000e+00 0.000e+00 0.000e+00 0.000e+00 0.000e+00 0.000e+00 0.000e+00 0.000e+00 0.000e+00 0.000e+00 0.000e+00 0.000e+00 7.833e-02 6.800e-02 6.300e-02 6.000e-02 5.700e-02 5.500e-02 5.300e-02 5.100e-02 4.750e-02 4.250e-02 3.750e-02 3.250e-02 2.750e-02 2.250e-02 1.750e-02 1.250e-02 7.500e-03 2.500e-03 0.000e+00 0.000e+00 0.000e+00 0.000e+00 0.000e+00 0.000e+00 0.000e+00 0.000e+00 0.000e+00 0.000e+00 0.000e+00 0.000e+00 0.000e+00 0.000e+00 0.000e+00 3.332e-02 0.000e+00 0.000e+00 0.000e+00 3.238e-02 0.000e+00 0.000e+00 2.394e-02 0.000e+00 0.000e+00 0.000e+00 0.000e+00 0.000e+00 0.000e+00 0.000e+00 0.000e+00 0.000e+00 0.000e+00 0.000e+00 0.000e+00 2.300e-02 0.000e+00 0.000e+00 0.000e+00 0.000e+00 0.000e+00 0.000e+00 0.000e+00 0.000e+00 0.000e+00 2.207e-02 0.000e+00 0.000e+00 2.113e-02 0.000e+00 0.000e+00 0.000e+00 2.019e-02 0.000e+00 0.000e+00 1.925e-02 0.000e+00 0.000e+00 1.832e-02 0.000e+00 0.000e+00 1.738e-02 0.000e+00 0.000e+00 1.644e-02 0.000e+00 0.000e+00 1.550e-02 0.000e+00 0.000e+00 3.144e-02 0.000e+00 0.000e+00 1.457e-02 0.000e+00 0.000e+00 1.363e-02 0.000e+00 0.000e+00 1.269e-02 0.000e+00 0.000e+00 1.175e-02 0.000e+00 0.000e+00 1.082e-02 0.000e+00 0.000e+00 0.000e+00 9.879e-03 0.000e+00 0.000e+00 8.941e-03 0.000e+00 0.000e+00 8.004e-03 0.000e+00 0.000e+00 7.066e-03 0.000e+00 0.000e+00 6.129e-03 0.000e+00 0.000e+00 3.050e-02 0.000e+00 0.000e+00 0.000e+00 5.191e-03 0.000e+00 4.254e-03 0.000e+00 0.000e+00 3.316e-03 0.000e+00 0.000e+00 2.379e-03 0.000e+00 0.000e+00 1.441e-03 0.000e+00 5.035e-04 0.000e+00 0.000e+00 0.000e+00 0.000e+00 0.000e+00 0.000e+00 0.000e+00 0.000e+00 0.000e+00 0.000e+00 0.000e+00 2.957e-02 0.000e+00 0.000e+00 0.000e+00 0.000e+00 0.000e+00 0.000e+00 0.000e+00 0.000e+00 0.000e+00 0.000e+00 0.000e+00 0.000e+00 0.000e+00 0.000e+00 0.000e+00 0.000e+00 0.000e+00 0.000e+00 0.000e+00 0.000e+00 0.000e+00 0.000e+00 0.000e+00 0.000e+00 0.000e+00 2.863e-02 0.000e+00 0.000e+00 0.000e+00 0.000e+00 0.000e+00 0.000e+00 0.000e+00 0.000e+00 0.000e+00 0.000e+00 0.000e+00 0.000e+00 0.000e+00 0.000e+00 0.000e+00 0.000e+00 0.000e+00 0.000e+00 0.000e+00 0.000e+00 0.000e+00 0.000e+00 0.000e+00 2.769e-02 0.000e+00 0.000e+00 0.000e+00 0.000e+00 0.000e+00 0.000e+00 0.000e+00 0.000e+00 0.000e+00 0.000e+00 0.000e+00 0.000e+00 0.000e+00 0.000e+00 0.000e+00 0.000e+00 0.000e+00 0.000e+00 0.000e+00 0.000e+00 0.000e+00 0.000e+00 0.000e+00 2.675e-02 0.000e+00 0.000e+00 0.000e+00 0.000e+00 0.000e+00 0.000e+00 0.000e+00 0.000e+00 0.000e+00 0.000e+00 0.000e+00 0.000e+00 0.000e+00 0.000e+00 0.000e+00 0.000e+00 0.000e+00 0.000e+00 0.000e+00 0.000e+00 2.582e-02 0.000e+00 0.000e+00 0.000e+00 0.000e+00 0.000e+00 0.000e+00 0.000e+00 0.000e+00 0.000e+00 0.000e+00 0.000e+00 0.000e+00 2.488e-02 0.000e+00 0.000e+00 0.000e+00 0.000e+00 0.000e+00 0.000e+00 0.000e+00 0.000e+00 0.000e+00 0.000e+00 0.000e+00 0.000e+00 7.833e-02 6.800e-02 6.300e-02 6.000e-02 5.700e-02 5.500e-02 5.300e-02 5.100e-02 4.750e-02 4.250e-02 3.750e-02 3.250e-02 2.750e-02 2.250e-02 1.750e-02 1.250e-02 7.500e-03 2.500e-03 0.000e+00 0.000e+00 0.000e+00 0.000e+00 0.000e+00 0.000e+00 0.000e+00 0.000e+00 0.000e+00 0.000e+00 0.000e+00 0.000e+00 0.000e+00 0.000e+00 0.000e+00 3.332e-02 0.000e+00 0.000e+00 0.000e+00 3.238e-02 0.000e+00 0.000e+00 0.000e+00 2.394e-02 0.000e+00 0.000e+00 0.000e+00 0.000e+00 0.000e+00 0.000e+00 0.000e+00 0.000e+00 0.000e+00 0.000e+00 0.000e+00 0.000e+00 0.000e+00 2.300e-02 0.000e+00 0.000e+00 0.000e+00 0.000e+00 0.000e+00 0.000e+00 0.000e+00 0.000e+00 2.207e-02 0.000e+00 0.000e+00 2.113e-02 0.000e+00 0.000e+00 2.019e-02 0.000e+00 0.000e+00 0.000e+00 1.925e-02 0.000e+00 1.832e-02 0.000e+00 0.000e+00 0.000e+00 1.738e-02 0.000e+00 0.000e+00 1.644e-02 0.000e+00 0.000e+00 1.550e-02 0.000e+00 3.144e-02 2.500e-03 0.000e+00 0.000e+00 1.457e-02 0.000e+00 0.000e+00 1.363e-02 0.000e+00 0.000e+00 1.269e-02 0.000e+00 0.000e+00 1.175e-02 0.000e+00 0.000e+00 1.082e-02 0.000e+00 0.000e+00 9.879e-03 0.000e+00 8.941e-03 0.000e+00 0.000e+00 8.004e-03 0.000e+00 0.000e+00 7.066e-03 0.000e+00 0.000e+00 6.129e-03 0.000e+00 0.000e+00 3.050e-02 0.000e+00 0.000e+00 0.000e+00 5.191e-03 0.000e+00 0.000e+00 4.254e-03 0.000e+00 3.316e-03 0.000e+00 0.000e+00 2.379e-03 0.000e+00 0.000e+00 1.441e-03 0.000e+00 0.000e+00 5.035e-04 0.000e+00 0.000e+00 0.000e+00 0.000e+00 0.000e+00 0.000e+00 0.000e+00 0.000e+00 0.000e+00 0.000e+00 0.000e+00 0.000e+00 0.000e+00 2.957e-02 0.000e+00 0.000e+00 0.000e+00 0.000e+00 0.000e+00 0.000e+00 0.000e+00 0.000e+00 0.000e+00 0.000e+00 0.000e+00 0.000e+00 0.000e+00 0.000e+00 0.000e+00 0.000e+00 0.000e+00 0.000e+00 0.000e+00 0.000e+00 0.000e+00 0.000e+00 0.000e+00 2.863e-02 0.000e+00 0.000e+00 0.000e+00 0.000e+00 0.000e+00 0.000e+00 0.000e+00 0.000e+00 0.000e+00 0.000e+00 0.000e+00 0.000e+00 0.000e+00 0.000e+00 0.000e+00 0.000e+00 0.000e+00 0.000e+00 0.000e+00 0.000e+00 0.000e+00 0.000e+00 0.000e+00 2.769e-02 0.000e+00 0.000e+00 0.000e+00 0.000e+00 0.000e+00 0.000e+00 0.000e+00 0.000e+00 0.000e+00 0.000e+00 0.000e+00 0.000e+00 0.000e+00 0.000e+00 0.000e+00 0.000e+00 0.000e+00 0.000e+00 0.000e+00 0.000e+00 0.000e+00 0.000e+00 2.675e-02 0.000e+00 0.000e+00 0.000e+00 0.000e+00 0.000e+00 0.000e+00 0.000e+00 0.000e+00 0.000e+00 0.000e+00 0.000e+00 0.000e+00 0.000e+00 0.000e+00 0.000e+00 0.000e+00 0.000e+00 0.000e+00 0.000e+00 0.000e+00 0.000e+00 0.000e+00 2.582e-02 0.000e+00 0.000e+00 0.000e+00 0.000e+00 0.000e+00 0.000e+00 0.000e+00 0.000e+00 0.000e+00 0.000e+00 0.000e+00 0.000e+00 0.000e+00 2.488e-02 0.000e+00 0.000e+00 0.000e+00 0.000e+00 0.000e+00 0.000e+00 0.000e+00 0.000e+00 0.000e+00 0.000e+00 0.000e+00 0.000e+00 7.833e-02 6.800e-02 6.300e-02 6.000e-02 5.700e-02 5.500e-02 5.300e-02 5.100e-02 4.750e-02 4.250e-02 3.750e-02 3.250e-02 2.750e-02 2.250e-02 1.750e-02 1.250e-02 7.500e-03 2.500e-03 0.000e+00 0.000e+00 0.000e+00 0.000e+00 0.000e+00 0.000e+00 0.000e+00 0.000e+00 0.000e+00 0.000e+00 0.000e+00 0.000e+00 0.000e+00 0.000e+00 0.000e+00 3.332e-02 0.000e+00 0.000e+00 3.238e-02 0.000e+00 0.000e+00 0.000e+00 2.394e-02 0.000e+00 0.000e+00 0.000e+00 0.000e+00 0.000e+00 0.000e+00 0.000e+00 0.000e+00 0.000e+00 0.000e+00 0.000e+00 0.000e+00 0.000e+00 2.300e-02 0.000e+00 0.000e+00 0.000e+00 0.000e+00 0.000e+00 0.000e+00 0.000e+00 0.000e+00 2.207e-02 0.000e+00 0.000e+00 0.000e+00 2.113e-02 0.000e+00 0.000e+00 2.019e-02 0.000e+00 0.000e+00 1.925e-02 0.000e+00 0.000e+00 1.832e-02 0.000e+00 0.000e+00 1.738e-02 0.000e+00 0.000e+00 1.644e-02 0.000e+00 0.000e+00 1.550e-02 0.000e+00 0.000e+00 3.144e-02 0.000e+00 0.000e+00 1.457e-02 0.000e+00 0.000e+00 1.363e-02 0.000e+00 0.000e+00 1.269e-02 0.000e+00 0.000e+00 1.175e-02 0.000e+00 0.000e+00 1.082e-02 0.000e+00 0.000e+00 9.879e-03 0.000e+00 0.000e+00 8.941e-03 0.000e+00 0.000e+00 8.004e-03 0.000e+00 0.000e+00 7.066e-03 0.000e+00 0.000e+00 6.129e-03 0.000e+00 0.000e+00 3.050e-02 0.000e+00 0.000e+00 0.000e+00 5.191e-03 0.000e+00 0.000e+00 4.254e-03 0.000e+00 0.000e+00 3.316e-03 0.000e+00 0.000e+00 2.379e-03 0.000e+00 1.441e-03 0.000e+00 0.000e+00 5.035e-04 0.000e+00 0.000e+00 0.000e+00 0.000e+00 0.000e+00 0.000e+00 0.000e+00 0.000e+00 0.000e+00 0.000e+00 2.957e-02 0.000e+00 0.000e+00 0.000e+00 0.000e+00 0.000e+00 0.000e+00 0.000e+00 0.000e+00 0.000e+00 0.000e+00 0.000e+00 0.000e+00 0.000e+00 0.000e+00 0.000e+00 0.000e+00 0.000e+00 0.000e+00 0.000e+00 0.000e+00 0.000e+00 0.000e+00 0.000e+00 0.000e+00 0.000e+00 0.000e+00 2.863e-02 0.000e+00 0.000e+00 0.000e+00 0.000e+00 0.000e+00 0.000e+00 0.000e+00 0.000e+00 0.000e+00 0.000e+00 0.000e+00 0.000e+00 0.000e+00 0.000e+00 0.000e+00 0.000e+00 0.000e+00 0.000e+00 0.000e+00 0.000e+00 0.000e+00 0.000e+00 0.000e+00 2.769e-02 0.000e+00 0.000e+00 0.000e+00 0.000e+00 0.000e+00 0.000e+00 0.000e+00 0.000e+00 0.000e+00 0.000e+00 0.000e+00 0.000e+00 0.000e+00 0.000e+00 0.000e+00 0.000e+00 0.000e+00 0.000e+00 0.000e+00 0.000e+00 0.000e+00 0.000e+00 0.000e+00 2.675e-02 0.000e+00 0.000e+00 0.000e+00 0.000e+00 0.000e+00 0.000e+00 0.000e+00 0.000e+00 0.000e+00 0.000e+00 0.000e+00 0.000e+00 0.000e+00 0.000e+00 0.000e+00 0.000e+00 0.000e+00 0.000e+00 0.000e+00 2.582e-02 0.000e+00 0.000e+00 0.000e+00 0.000e+00 0.000e+00 0.000e+00 0.000e+00 0.000e+00 0.000e+00 0.000e+00 0.000e+00 0.000e+00 0.000e+00 2.488e-02 0.000e+00 0.000e+00 0.000e+00 0.000e+00 0.000e+00 0.000e+00 0.000e+00 0.000e+00 0.000e+00 0.000e+00 0.000e+00 0.000e+00 0.000e+00 7.833e-02 6.800e-02 6.300e-02 6.000e-02 5.700e-02 5.500e-02 5.300e-02 5.100e-02 4.750e-02 4.250e-02 3.750e-02 3.250e-02 2.750e-02 2.250e-02 1.750e-02 1.250e-02 7.500e-03 2.500e-03 0.000e+00 0.000e+00 0.000e+00 0.000e+00 0.000e+00 0.000e+00 0.000e+00 0.000e+00 0.000e+00 0.000e+00 0.000e+00 0.000e+00 0.000e+00 0.000e+00 0.000e+00 0.000e+00 0.000e+00 0.000e+00 0.000e+00 0.000e+00 0.000e+00 0.000e+00 0.000e+00 0.000e+00 0.000e+00 0.000e+00 0.000e+00 0.000e+00 0.000e+00 0.000e+00 0.000e+00 0.000e+00 0.000e+00 0.000e+00 0.000e+00 0.000e+00 0.000e+00 0.000e+00 0.000e+00 0.000e+00 0.000e+00 0.000e+00 0.000e+00 0.000e+00 0.000e+00 0.000e+00 0.000e+00 0.000e+00 0.000e+00 0.000e+00 0.000e+00 0.000e+00 0.000e+00 0.000e+00 0.000e+00 0.000e+00 0.000e+00 0.000e+00 0.000e+00 0.000e+00 0.000e+00 0.000e+00 0.000e+00 0.000e+00 0.000e+00 0.000e+00 0.000e+00 0.000e+00 0.000e+00 0.000e+00 5.750e-02 4.250e-02 3.000e-02 2.250e-02 1.500e-02 1.000e-02 5.000e-03 0.000e+00 0.000e+00 0.000e+00 0.000e+00 0.000e+00 0.000e+00 0.000e+00 0.000e+00 0.000e+00 0.000e+00 0.000e+00 0.000e+00 0.000e+00 0.000e+00 0.000e+00 0.000e+00 0.000e+00 0.000e+00 0.000e+00 0.000e+00 0.000e+00 0.000e+00 0.000e+00 0.000e+00 0.000e+00 0.000e+00 0.000e+00 0.000e+00 0.000e+00 0.000e+00 0.000e+00 0.000e+00 0.000e+00 0.000e+00 0.000e+00 0.000e+00 0.000e+00 0.000e+00 0.000e+00 0.000e+00 0.000e+00 0.000e+00 0.000e+00 0.000e+00 0.000e+00 0.000e+00 0.000e+00 0.000e+00 0.000e+00 0.000e+00 0.000e+00 0.000e+00 0.000e+00 0.000e+00 0.000e+00 0.000e+00 0.000e+00 0.000e+00 0.000e+00 0.000e+00 0.000e+00 0.000e+00 0.000e+00 0.000e+00 0.000e+00 0.000e+00 0.000e+00 0.000e+00 0.000e+00 0.000e+00 5.750e-02 4.250e-02 3.000e-02 2.250e-02 1.500e-02 1.000e-02 5.000e-03 0.000e+00 0.000e+00 0.000e+00 0.000e+00 0.000e+00 0.000e+00 0.000e+00 0.000e+00 0.000e+00 0.000e+00 0.000e+00 0.000e+00 0.000e+00 0.000e+00 0.000e+00 0.000e+00 0.000e+00 0.000e+00 0.000e+00 0.000e+00 0.000e+00 0.000e+00 0.000e+00 0.000e+00 0.000e+00 0.000e+00 0.000e+00 0.000e+00 0.000e+00 0.000e+00 0.000e+00 0.000e+00 0.000e+00 0.000e+00 0.000e+00 0.000e+00 0.000e+00 0.000e+00 0.000e+00 0.000e+00 0.000e+00 0.000e+00 0.000e+00 0.000e+00 0.000e+00 0.000e+00 0.000e+00 0.000e+00 0.000e+00 0.000e+00 0.000e+00 0.000e+00 0.000e+00 0.000e+00 0.000e+00 0.000e+00 0.000e+00 0.000e+00 0.000e+00 0.000e+00 0.000e+00 0.000e+00 0.000e+00 0.000e+00 0.000e+00 0.000e+00 0.000e+00 0.000e+00 0.000e+00 0.000e+00 5.750e-02 4.250e-02 3.000e-02 2.250e-02 1.500e-02 1.000e-02 5.000e-03 0.000e+00 0.000e+00 0.000e+00 0.000e+00 0.000e+00 0.000e+00 0.000e+00 0.000e+00 0.000e+00 0.000e+00 0.000e+00 0.000e+00 0.000e+00 0.000e+00 0.000e+00 0.000e+00 0.000e+00 0.000e+00 0.000e+00 0.000e+00 0.000e+00 0.000e+00 0.000e+00 0.000e+00 0.000e+00 0.000e+00 0.000e+00 0.000e+00 0.000e+00 0.000e+00 0.000e+00 0.000e+00 0.000e+00 0.000e+00 0.000e+00 0.000e+00 0.000e+00 0.000e+00 0.000e+00 0.000e+00 0.000e+00 0.000e+00 0.000e+00 0.000e+00 0.000e+00 0.000e+00 0.000e+00 0.000e+00 0.000e+00 0.000e+00 0.000e+00 0.000e+00 0.000e+00 0.000e+00 0.000e+00 0.000e+00 0.000e+00 0.000e+00 0.000e+00 0.000e+00 0.000e+00 0.000e+00 0.000e+00 0.000e+00 0.000e+00 0.000e+00 0.000e+00 0.000e+00 0.000e+00 0.000e+00 0.000e+00 5.750e-02 4.250e-02 3.000e-02 2.250e-02 1.500e-02 1.000e-02 5.000e-03 0.000e+00 0.000e+00 0.000e+00 0.000e+00 0.000e+00 0.000e+00 0.000e+00 0.000e+00 0.000e+00 0.000e+00 0.000e+00 0.000e+00 0.000e+00 0.000e+00 0.000e+00 0.000e+00 0.000e+00 0.000e+00 0.000e+00 0.000e+00 0.000e+00 0.000e+00 0.000e+00 0.000e+00 0.000e+00 0.000e+00 0.000e+00 0.000e+00 0.000e+00 0.000e+00 0.000e+00 0.000e+00 0.000e+00 0.000e+00 0.000e+00 0.000e+00 0.000e+00 0.000e+00 0.000e+00 0.000e+00 0.000e+00 0.000e+00 0.000e+00 0.000e+00 0.000e+00 0.000e+00 0.000e+00 0.000e+00 0.000e+00 0.000e+00 0.000e+00 0.000e+00 0.000e+00 0.000e+00 0.000e+00 0.000e+00 7.715e-02 6.600e-02 5.400e-02 3.000e-02 0.000e+00 0.000e+00 0.000e+00 0.000e+00 0.000e+00 0.000e+00 7.672e-02 6.500e-02 5.400e-02 3.000e-02 0.000e+00 0.000e+00 0.000e+00 0.000e+00 0.000e+00 0.000e+00 7.291e-02 6.200e-02 5.100e-02 2.500e-02 0.000e+00 0.000e+00 0.000e+00 1.181e-02 0.000e+00 0.000e+00 0.000e+00 1.074e-02 0.000e+00 0.000e+00 9.684e-03 0.000e+00 0.000e+00 8.623e-03 0.000e+00 0.000e+00 7.563e-03 0.000e+00 0.000e+00 6.502e-03 0.000e+00 0.000e+00 0.000e+00 5.441e-03 0.000e+00 0.000e+00 0.000e+00 4.381e-03 0.000e+00 0.000e+00 0.000e+00 3.320e-03 0.000e+00 0.000e+00 2.259e-03 0.000e+00 0.000e+00 0.000e+00 0.000e+00 7.248e-02 6.100e-02 5.000e-02 2.250e-02 0.000e+00 0.000e+00 0.000e+00 1.199e-03 0.000e+00 0.000e+00 1.379e-04 0.000e+00 0.000e+00 0.000e+00 0.000e+00 0.000e+00 0.000e+00 0.000e+00 0.000e+00 0.000e+00 0.000e+00 0.000e+00 0.000e+00 0.000e+00 0.000e+00 0.000e+00 0.000e+00 0.000e+00 0.000e+00 0.000e+00 0.000e+00 0.000e+00 0.000e+00 0.000e+00 0.000e+00 0.000e+00 0.000e+00 7.206e-02 5.900e-02 4.000e-02 7.500e-03 0.000e+00 0.000e+00 0.000e+00 0.000e+00 0.000e+00 0.000e+00 0.000e+00 0.000e+00 0.000e+00 0.000e+00 0.000e+00 0.000e+00 0.000e+00 0.000e+00 0.000e+00 0.000e+00 0.000e+00 0.000e+00 0.000e+00 0.000e+00 0.000e+00 0.000e+00 0.000e+00 0.000e+00 0.000e+00 0.000e+00 0.000e+00 0.000e+00 0.000e+00 0.000e+00 0.000e+00 7.163e-02 6.000e-02 4.750e-02 2.000e-02 0.000e+00 0.000e+00 0.000e+00 0.000e+00 0.000e+00 0.000e+00 0.000e+00 0.000e+00 0.000e+00 0.000e+00 0.000e+00 0.000e+00 0.000e+00 0.000e+00 0.000e+00 0.000e+00 0.000e+00 0.000e+00 0.000e+00 0.000e+00 0.000e+00 0.000e+00 0.000e+00 0.000e+00 0.000e+00 7.121e-02 6.000e-02 4.500e-02 1.500e-02 0.000e+00 0.000e+00 0.000e+00 0.000e+00 0.000e+00 0.000e+00 0.000e+00 0.000e+00 0.000e+00 0.000e+00 0.000e+00 0.000e+00 0.000e+00 0.000e+00 0.000e+00 0.000e+00 0.000e+00 0.000e+00 0.000e+00 0.000e+00 0.000e+00 0.000e+00 0.000e+00 7.078e-02 5.800e-02 4.000e-02 1.000e-02 0.000e+00 0.000e+00 0.000e+00 0.000e+00 0.000e+00 0.000e+00 0.000e+00 0.000e+00 0.000e+00 0.000e+00 0.000e+00 0.000e+00 0.000e+00 0.000e+00 0.000e+00 0.000e+00 0.000e+00 0.000e+00 7.036e-02 5.900e-02 4.500e-02 1.500e-02 0.000e+00 0.000e+00 0.000e+00 0.000e+00 0.000e+00 0.000e+00 0.000e+00 0.000e+00 0.000e+00 0.000e+00 0.000e+00 0.000e+00 0.000e+00 0.000e+00 0.000e+00 6.994e-02 6.000e-02 5.000e-02 2.500e-02 0.000e+00 0.000e+00 0.000e+00 0.000e+00 0.000e+00 0.000e+00 0.000e+00 0.000e+00 0.000e+00 0.000e+00 0.000e+00 0.000e+00 0.000e+00 0.000e+00 6.951e-02 5.800e-02 4.000e-02 1.000e-02 0.000e+00 0.000e+00 0.000e+00 0.000e+00 0.000e+00 0.000e+00 0.000e+00 0.000e+00 6.909e-02 6.000e-02 5.000e-02 2.500e-02 0.000e+00 0.000e+00 0.000e+00 0.000e+00 0.000e+00 0.000e+00 0.000e+00 7.630e-02 6.600e-02 5.600e-02 4.000e-02 1.500e-02 0.000e+00 0.000e+00 0.000e+00 0.000e+00 0.000e+00 6.866e-02 5.800e-02 4.250e-02 1.500e-02 0.000e+00 0.000e+00 0.000e+00 0.000e+00 0.000e+00 6.824e-02 5.700e-02 4.000e-02 1.000e-02 0.000e+00 0.000e+00 0.000e+00 0.000e+00 6.782e-02 5.800e-02 4.250e-02 1.500e-02 0.000e+00 0.000e+00 0.000e+00 6.739e-02 5.400e-02 2.500e-02 0.000e+00 0.000e+00 0.000e+00 0.000e+00 0.000e+00 6.697e-02 5.700e-02 4.250e-02 1.750e-02 0.000e+00 0.000e+00 0.000e+00 0.000e+00 0.000e+00 0.000e+00 0.000e+00 6.654e-02 5.700e-02 4.500e-02 2.250e-02 0.000e+00 0.000e+00 0.000e+00 6.612e-02 5.200e-02 2.000e-02 0.000e+00 0.000e+00 0.000e+00 0.000e+00 6.569e-02 5.400e-02 3.000e-02 0.000e+00 0.000e+00 0.000e+00 0.000e+00 0.000e+00 6.527e-02 5.400e-02 3.250e-02 5.000e-03 0.000e+00 0.000e+00 0.000e+00 6.485e-02 5.400e-02 3.000e-02 0.000e+00 0.000e+00 0.000e+00 0.000e+00 0.000e+00 0.000e+00 7.588e-02 6.400e-02 5.200e-02 2.500e-02 0.000e+00 0.000e+00 0.000e+00 0.000e+00 0.000e+00 6.442e-02 5.400e-02 3.500e-02 1.000e-02 0.000e+00 0.000e+00 0.000e+00 0.000e+00 6.400e-02 5.200e-02 2.500e-02 0.000e+00 0.000e+00 0.000e+00 0.000e+00 6.357e-02 5.200e-02 2.500e-02 0.000e+00 0.000e+00 0.000e+00 0.000e+00 0.000e+00 6.315e-02 5.200e-02 3.000e-02 5.000e-03 0.000e+00 0.000e+00 0.000e+00 6.272e-02 5.000e-02 2.000e-02 0.000e+00 0.000e+00 0.000e+00 6.230e-02 4.500e-02 1.000e-02 0.000e+00 0.000e+00 0.000e+00 6.188e-02 5.000e-02 2.000e-02 0.000e+00 0.000e+00 0.000e+00 0.000e+00 6.145e-02 5.000e-02 2.250e-02 0.000e+00 0.000e+00 0.000e+00 6.103e-02 4.500e-02 1.500e-02 0.000e+00 0.000e+00 6.060e-02 4.500e-02 1.250e-02 0.000e+00 0.000e+00 0.000e+00 0.000e+00 0.000e+00 0.000e+00 7.545e-02 6.500e-02 5.400e-02 3.500e-02 1.000e-02 0.000e+00 0.000e+00 0.000e+00 6.018e-02 4.500e-02 1.500e-02 0.000e+00 0.000e+00 0.000e+00 5.975e-02 4.500e-02 2.000e-02 0.000e+00 0.000e+00 0.000e+00 5.933e-02 4.500e-02 1.500e-02 0.000e+00 0.000e+00 5.891e-02 4.250e-02 1.250e-02 0.000e+00 0.000e+00 5.848e-02 4.000e-02 1.000e-02 0.000e+00 0.000e+00 0.000e+00 5.806e-02 4.500e-02 2.000e-02 0.000e+00 0.000e+00 0.000e+00 0.000e+00 5.763e-02 4.000e-02 1.000e-02 0.000e+00 0.000e+00 5.721e-02 4.000e-02 1.250e-02 0.000e+00 0.000e+00 0.000e+00 5.678e-02 3.500e-02 2.500e-03 0.000e+00 0.000e+00 0.000e+00 5.636e-02 4.000e-02 1.250e-02 0.000e+00 0.000e+00 0.000e+00 0.000e+00 0.000e+00 7.503e-02 6.400e-02 5.200e-02 2.500e-02 0.000e+00 0.000e+00 0.000e+00 5.594e-02 3.500e-02 7.500e-03 0.000e+00 0.000e+00 0.000e+00 5.551e-02 4.000e-02 1.500e-02 0.000e+00 0.000e+00 0.000e+00 5.509e-02 3.250e-02 2.500e-03 0.000e+00 0.000e+00 5.466e-02 3.000e-02 0.000e+00 0.000e+00 0.000e+00 5.424e-02 3.500e-02 1.000e-02 0.000e+00 0.000e+00 0.000e+00 5.381e-02 2.500e-02 0.000e+00 0.000e+00 5.339e-02 2.500e-02 0.000e+00 0.000e