<?xml version="1.0"?>
<VTKFile type="UnstructuredGrid" version="0.1" byte_order="LittleEndian">
   <UnstructuredGrid>
      <Piece NumberOfPoints="21880" NumberOfCells="1529">
         <Points>
            <DataArray type="Float32" Name="Position" NumberOfComponents="3" format="ascii">
0.140	-5.038	-0.072
0.140	-5.029	-0.071
0.136	-5.021	-0.068
0.128	-5.019	-0.063
0.121	-5.022	-0.059
0.116	-5.029	-0.056
0.116	-5.039	-0.057
0.120	-5.046	-0.060
0.128	-5.049	-0.065
0.135	-5.046	-0.069
0.598	-5.084	0.669
0.600	-5.075	0.669
0.596	-5.067	0.671
0.589	-5.062	0.674
0.580	-5.063	0.677
0.573	-5.070	0.679
0.571	-5.079	0.679
0.575	-5.087	0.677
0.582	-5.092	0.674
0.591	-5.091	0.671
0.694	-5.176	1.454
0.697	-5.168	1.454
0.694	-5.159	1.456
0.687	-5.153	1.457
0.678	-5.153	1.458
0.670	-5.158	1.459
0.667	-5.167	1.458
0.670	-5.176	1.457
0.677	-5.181	1.455
0.686	-5.182	1.454
0.259	-5.095	-0.137
0.259	-5.087	-0.133
0.255	-5.083	-0.125
0.249	-5.084	-0.118
0.243	-5.090	-0.114
0.239	-5.098	-0.115
0.239	-5.106	-0.119
0.243	-5.111	-0.126
0.249	-5.110	-0.133
0.255	-5.104	-0.137
0.894	-5.379	0.386
0.894	-5.371	0.391
0.889	-5.366	0.397
0.883	-5.366	0.404
0.877	-5.372	0.408
0.873	-5.380	0.408
0.874	-5.389	0.404
0.878	-5.394	0.397
0.884	-5.393	0.391
0.890	-5.388	0.387
1.487	-5.593	0.988
1.486	-5.585	0.992
1.482	-5.581	0.999
1.476	-5.582	1.006
1.470	-5.588	1.011
1.468	-5.597	1.011
1.469	-5.605	1.006
1.473	-5.609	0.999
1.479	-5.608	0.992
1.484	-5.602	0.988
1.878	-5.698	1.229
1.877	-5.690	1.234
1.873	-5.687	1.242
1.868	-5.689	1.249
1.863	-5.696	1.254
1.861	-5.705	1.253
1.862	-5.713	1.248
1.866	-5.716	1.240
1.871	-5.714	1.233
1.876	-5.707	1.229
1.238	-5.923	-0.547
1.238	-5.914	-0.546
1.233	-5.908	-0.541
1.226	-5.906	-0.535
1.219	-5.911	-0.530
1.215	-5.919	-0.529
1.216	-5.928	-0.530
1.221	-5.934	-0.535
1.228	-5.936	-0.541
1.234	-5.931	-0.545
1.754	-6.013	0.107
1.753	-6.004	0.110
1.748	-5.998	0.115
1.741	-5.998	0.121
1.735	-6.003	0.126
1.732	-6.011	0.128
1.733	-6.020	0.125
1.738	-6.026	0.120
1.745	-6.027	0.114
1.751	-6.022	0.109
2.374	-6.080	0.705
2.373	-6.071	0.707
2.368	-6.066	0.713
2.361	-6.066	0.720
2.356	-6.071	0.725
2.353	-6.080	0.726
2.355	-6.089	0.723
2.360	-6.094	0.718
2.366	-6.094	0.711
2.372	-6.088	0.706
1.313	-6.023	-0.586
1.317	-6.020	-0.578
1.321	-6.022	-0.570
1.322	-6.030	-0.564
1.322	-6.039	-0.564
1.319	-6.047	-0.568
1.316	-6.050	-0.576
1.312	-6.047	-0.584
1.310	-6.040	-0.590
1.310	-6.031	-0.590
2.095	-6.080	-0.944
2.100	-6.078	-0.937
2.104	-6.080	-0.929
2.107	-6.088	-0.924
2.106	-6.097	-0.924
2.103	-6.105	-0.928
2.098	-6.107	-0.935
2.093	-6.105	-0.943
2.091	-6.097	-0.948
2.091	-6.088	-0.948
2.737	-6.147	-1.483
2.743	-6.144	-1.476
2.748	-6.147	-1.469
2.751	-6.155	-1.465
2.751	-6.164	-1.465
2.747	-6.171	-1.469
2.742	-6.174	-1.476
2.736	-6.171	-1.482
2.733	-6.164	-1.487
2.733	-6.154	-1.487
2.907	-6.175	-1.598
2.911	-6.167	-1.598
2.910	-6.158	-1.598
2.903	-6.152	-1.598
2.894	-6.150	-1.598
2.886	-6.154	-1.598
2.882	-6.163	-1.598
2.883	-6.172	-1.598
2.890	-6.178	-1.598
2.899	-6.180	-1.598
1.393	-6.140	-0.619
1.401	-6.136	-0.620
1.410	-6.139	-0.621
1.416	-6.146	-0.620
1.417	-6.155	-0.618
1.412	-6.162	-0.616
1.403	-6.165	-0.614
1.394	-6.163	-0.614
1.388	-6.156	-0.615
1.388	-6.147	-0.617
1.314	-6.324	-1.431
1.322	-6.321	-1.433
1.331	-6.324	-1.433
1.337	-6.331	-1.431
1.337	-6.340	-1.428
1.332	-6.347	-1.426
1.323	-6.350	-1.424
1.314	-6.347	-1.424
1.309	-6.340	-1.426
1.308	-6.331	-1.428
1.252	-6.604	-2.230
1.261	-6.603	-2.232
1.270	-6.606	-2.231
1.275	-6.614	-2.228
1.274	-6.622	-2.224
1.267	-6.628	-2.221
1.258	-6.630	-2.220
1.250	-6.626	-2.221
1.245	-6.619	-2.223
1.246	-6.610	-2.227
1.236	-6.695	-2.404
1.245	-6.695	-2.405
1.253	-6.699	-2.404
1.257	-6.706	-2.400
1.256	-6.714	-2.396
1.249	-6.720	-2.392
1.240	-6.720	-2.391
1.232	-6.716	-2.393
1.228	-6.709	-2.396
1.229	-6.701	-2.401
1.484	-6.257	-0.668
1.487	-6.253	-0.660
1.490	-6.256	-0.652
1.491	-6.263	-0.646
1.491	-6.272	-0.645
1.488	-6.280	-0.649
1.485	-6.283	-0.657
1.482	-6.281	-0.666
1.480	-6.274	-0.671
1.481	-6.264	-0.672
2.284	-6.354	-0.972
2.287	-6.351	-0.964
2.290	-6.353	-0.956
2.291	-6.360	-0.950
2.290	-6.370	-0.949
2.288	-6.377	-0.953
2.286	-6.381	-0.962
2.283	-6.379	-0.970
2.282	-6.372	-0.976
2.282	-6.362	-0.977
2.989	-6.381	-1.144
2.992	-6.378	-1.136
2.994	-6.380	-1.127
2.995	-6.387	-1.121
2.995	-6.396	-1.120
2.993	-6.404	-1.125
2.991	-6.408	-1.133
2.989	-6.405	-1.142
2.988	-6.398	-1.148
2.988	-6.389	-1.149
1.577	-6.397	-0.700
1.579	-6.388	-0.700
1.575	-6.380	-0.698
1.568	-6.376	-0.695
1.559	-6.377	-0.692
1.553	-6.383	-0.690
1.551	-6.392	-0.690
1.555	-6.401	-0.692
1.562	-6.405	-0.695
1.571	-6.404	-0.698
1.866	-6.461	0.079
1.869	-6.452	0.079
1.866	-6.444	0.080
1.858	-6.439	0.083
1.849	-6.439	0.085
1.842	-6.445	0.086
1.840	-6.453	0.086
1.842	-6.462	0.084
1.850	-6.467	0.082
1.859	-6.467	0.080
1.947	-6.528	0.799
1.950	-6.519	0.799
1.948	-6.510	0.800
1.941	-6.504	0.802
1.932	-6.504	0.803
1.924	-6.509	0.803
1.920	-6.518	0.803
1.923	-6.527	0.802
1.930	-6.532	0.800
1.939	-6.533	0.799
1.638	-6.502	-0.738
1.643	-6.499	-0.731
1.648	-6.502	-0.724
1.651	-6.509	-0.719
1.650	-6.519	-0.718
1.646	-6.526	-0.722
1.641	-6.529	-0.729
1.636	-6.526	-0.736
1.634	-6.519	-0.741
1.634	-6.509	-0.742
2.332	-6.593	-1.236
2.338	-6.590	-1.229
2.343	-6.593	-1.222
2.345	-6.601	-1.217
2.343	-6.610	-1.215
2.339	-6.617	-1.219
2.333	-6.620	-1.225
2.328	-6.617	-1.233
2.326	-6.610	-1.238
2.328	-6.601	-1.239
2.983	-6.860	-1.769
2.989	-6.857	-1.762
2.994	-6.860	-1.755
2.996	-6.867	-1.750
2.993	-6.876	-1.748
2.988	-6.883	-1.751
2.982	-6.886	-1.757
2.977	-6.883	-1.764
2.975	-6.876	-1.770
2.978	-6.867	-1.772
1.728	-6.642	-0.772
1.728	-6.633	-0.768
1.724	-6.627	-0.762
1.717	-6.627	-0.756
1.710	-6.631	-0.752
1.705	-6.639	-0.752
1.705	-6.648	-0.756
1.709	-6.654	-0.762
1.716	-6.654	-0.768
1.723	-6.650	-0.772
2.269	-6.927	-0.134
2.269	-6.918	-0.131
2.265	-6.912	-0.125
2.258	-6.912	-0.119
2.251	-6.917	-0.115
2.247	-6.925	-0.114
2.247	-6.934	-0.117
2.251	-6.939	-0.123
2.258	-6.940	-0.129
2.265	-6.935	-0.134
2.604	-7.017	0.242
2.603	-7.009	0.245
2.599	-7.003	0.250
2.592	-7.002	0.257
2.585	-7.007	0.261
2.582	-7.015	0.262
2.582	-7.024	0.260
2.587	-7.030	0.254
2.594	-7.031	0.248
2.600	-7.026	0.243
1.779	-6.758	-0.790
1.786	-6.753	-0.793
1.795	-6.753	-0.796
1.802	-6.758	-0.798
1.805	-6.767	-0.798
1.802	-6.776	-0.796
1.796	-6.781	-0.793
1.787	-6.781	-0.791
1.779	-6.776	-0.789
1.776	-6.767	-0.789
1.507	-6.840	-1.611
1.513	-6.834	-1.614
1.522	-6.834	-1.617
1.529	-6.839	-1.619
1.533	-6.847	-1.620
1.530	-6.856	-1.618
1.524	-6.862	-1.615
1.515	-6.862	-1.612
1.508	-6.857	-1.610
1.504	-6.849	-1.609
1.393	-6.873	-1.965
1.397	-6.873	-1.957
1.395	-6.873	-1.947
1.389	-6.873	-1.941
1.380	-6.873	-1.939
1.371	-6.873	-1.944
1.367	-6.873	-1.952
1.369	-6.873	-1.961
1.375	-6.873	-1.968
1.384	-6.873	-1.969
1.875	-6.905	-0.822
1.875	-6.900	-0.814
1.871	-6.892	-0.810
1.865	-6.885	-0.811
1.859	-6.881	-0.817
1.855	-6.882	-0.826
1.855	-6.887	-0.833
1.859	-6.895	-0.837
1.865	-6.902	-0.836
1.871	-6.906	-0.830
1.256	-7.376	-0.515
1.257	-7.370	-0.508
1.254	-7.362	-0.504
1.248	-7.355	-0.505
1.241	-7.352	-0.510
1.237	-7.353	-0.518
1.236	-7.359	-0.526
1.239	-7.366	-0.530
1.245	-7.373	-0.528
1.251	-7.377	-0.523
0.706	-7.780	0.002
0.709	-7.774	0.008
0.706	-7.766	0.012
0.699	-7.759	0.012
0.691	-7.757	0.008
0.685	-7.759	0.002
0.683	-7.766	-0.004
0.685	-7.774	-0.008
0.692	-7.780	-0.008
0.700	-7.783	-0.004
0.683	-7.813	0.053
0.686	-7.807	0.059
0.683	-7.799	0.063
0.676	-7.792	0.064
0.668	-7.790	0.061
0.661	-7.794	0.056
0.658	-7.800	0.050
0.660	-7.808	0.046
0.667	-7.814	0.046
0.676	-7.816	0.048
1.952	-7.026	-0.858
1.955	-7.018	-0.855
1.951	-7.010	-0.851
1.944	-7.006	-0.848
1.935	-7.008	-0.845
1.928	-7.014	-0.846
1.926	-7.023	-0.849
1.929	-7.031	-0.853
1.937	-7.034	-0.856
1.946	-7.033	-0.859
2.183	-7.319	-0.116
2.186	-7.310	-0.114
2.183	-7.303	-0.110
2.175	-7.298	-0.107
2.166	-7.299	-0.105
2.159	-7.305	-0.106
2.156	-7.313	-0.109
2.159	-7.321	-0.112
2.167	-7.326	-0.116
2.176	-7.325	-0.117
2.255	-7.625	0.714
2.258	-7.617	0.717
2.255	-7.609	0.720
2.248	-7.604	0.723
2.239	-7.604	0.723
2.231	-7.609	0.722
2.228	-7.617	0.719
2.231	-7.625	0.716
2.238	-7.630	0.713
2.247	-7.630	0.713
2.255	-7.649	0.779
2.258	-7.641	0.782
2.256	-7.633	0.785
2.248	-7.628	0.787
2.239	-7.627	0.787
2.232	-7.632	0.785
2.228	-7.640	0.782
2.231	-7.649	0.779
2.238	-7.654	0.777
2.248	-7.654	0.777
0.365	-5.159	-0.193
0.367	-5.156	-0.185
0.369	-5.157	-0.176
0.370	-5.164	-0.170
0.369	-5.174	-0.169
0.368	-5.181	-0.173
0.365	-5.185	-0.181
0.364	-5.183	-0.190
0.363	-5.176	-0.196
0.364	-5.167	-0.198
1.220	-5.233	-0.369
1.222	-5.230	-0.361
1.224	-5.232	-0.352
1.225	-5.239	-0.346
1.225	-5.248	-0.346
1.223	-5.256	-0.350
1.221	-5.260	-0.358
1.218	-5.257	-0.367
1.217	-5.250	-0.373
1.218	-5.241	-0.374
2.021	-5.282	-0.618
2.024	-5.279	-0.610
2.028	-5.281	-0.602
2.030	-5.289	-0.597
2.030	-5.298	-0.596
2.027	-5.306	-0.601
2.024	-5.309	-0.609
2.020	-5.306	-0.617
2.018	-5.299	-0.623
2.018	-5.289	-0.623
2.242	-5.308	-0.732
2.246	-5.299	-0.732
2.245	-5.290	-0.732
2.238	-5.284	-0.732
2.229	-5.282	-0.732
2.221	-5.286	-0.732
2.216	-5.295	-0.732
2.218	-5.304	-0.732
2.224	-5.310	-0.732
2.234	-5.312	-0.732
2.004	-7.137	-0.878
2.012	-7.133	-0.883
2.020	-7.134	-0.886
2.027	-7.141	-0.886
2.029	-7.149	-0.884
2.027	-7.157	-0.880
2.019	-7.161	-0.876
2.011	-7.160	-0.873
2.004	-7.154	-0.872
2.001	-7.145	-0.874
1.700	-7.396	-1.624
1.707	-7.393	-1.629
1.715	-7.395	-1.633
1.722	-7.401	-1.633
1.724	-7.410	-1.630
1.722	-7.417	-1.625
1.715	-7.420	-1.619
1.707	-7.418	-1.616
1.700	-7.411	-1.615
1.697	-7.403	-1.619
1.498	-7.643	-1.954
1.502	-7.643	-1.945
1.501	-7.643	-1.936
1.494	-7.643	-1.930
1.485	-7.643	-1.928
1.477	-7.643	-1.933
1.472	-7.643	-1.941
1.474	-7.643	-1.950
1.480	-7.643	-1.957
1.489	-7.643	-1.958
2.096	-7.289	-0.902
2.095	-7.285	-0.893
2.091	-7.278	-0.888
2.085	-7.271	-0.889
2.079	-7.267	-0.894
2.075	-7.267	-0.903
2.076	-7.271	-0.911
2.080	-7.277	-0.916
2.086	-7.284	-0.916
2.092	-7.288	-0.910
1.490	-7.850	-0.665
1.489	-7.845	-0.657
[...]
         <CellData>
           <DataArray type="Float32" Name="aerenchymaFormation" NumberOfComponents="1" format="ascii">
 8.316e-03 0.000e+00 7.379e-03 0.000e+00 0.000e+00 0.000e+00 0.000e+00 0.000e+00 0.000e+00 0.000e+00 0.000e+00 0.000e+00 0.000e+00 0.000e+00 0.000e+00 0.000e+00 0.000e+00 0.000e+00 0.000e+00 0.000e+00 0.000e+00 0.000e+00 0.000e+00 0.000e+00 0.000e+00 0.000e+00 0.000e+00 0.000e+00 0.000e+00 6.441e-03 0.000e+00 0.000e+00 0.000e+00 0.000e+00 0.000e+00 0.000e+00 0.000e+00 0.000e+00 0.000e+00 0.000e+00 0.000e+00 0.000e+00 0.000e+00 0.000e+00 0.000e+00 0.000e+00 0.000e+00 0.000e+00 0.000e+00 0.000e+00 0.000e+00 0.000e+00 5.504e-03 0.000e+00 0.000e+00 0.000e+00 0.000e+00 0.000e+00 0.000e+00 0.000e+00 0.000e+00 0.000e+00 0.000e+00 0.000e+00 0.000e+00 0.000e+00 0.000e+00 0.000e+00 0.000e+00 0.000e+00 0.000e+00 0.000e+00 0.000e+00 0.000e+00 4.566e-03 0.000e+00 0.000e+00 0.000e+00 0.000e+00 0.000e+00 0.000e+00 0.000e+00 0.000e+00 0.000e+00 0.000e+00 0.000e+00 0.000e+00 0.000e+00 0.000e+00 0.000e+00 0.000e+00 0.000e+00 0.000e+00 0.000e+00 0.000e+00 3.629e-03 0.000e+00 0.000e+00 0.000e+00 0.000e+00 0.000e+00 0.000e+00 0.000e+00 0.000e+00 0.000e+00 0.000e+00 0.000e+00 0.000e+00 0.000e+00 2.691e-03 0.000e+00 0.000e+00 0.000e+00 0.000e+00 0.000e+00 0.000e+00 0.000e+00 0.000e+00 0.000e+00 0.000e+00 0.000e+00 0.000e+00 1.754e-03 0.000e+00 0.000e+00 0.000e+00 0.000e+00 0.000e+00 0.000e+00 0.000e+00 0.000e+00 0.000e+00 0.000e+00 0.000e+00 0.000e+00 8.160e-04 0.000e+00 0.000e+00 0.000e+00 0.000e+00 0.000e+00 0.000e+00 0.000e+00 0.000e+00 0.000e+00 0.000e+00 0.000e+00 0.000e+00 0.000e+00 6.833e-02 5.800e-02 5.300e-02 5.000e-02 4.250e-02 3.750e-02 3.250e-02 2.750e-02 2.250e-02 1.750e-02 1.250e-02 7.500e-03 2.500e-03 0.000e+00 0.000e+00 0.000e+00 0.000e+00 0.000e+00 0.000e+00 0.000e+00 0.000e+00 0.000e+00 0.000e+00 0.000e+00 0.000e+00 0.000e+00 0.000e+00 0.000e+00 8.316e-03 0.000e+00 0.000e+00 7.379e-03 0.000e+00 0.000e+00 0.000e+00 0.000e+00 0.000e+00 0.000e+00 0.000e+00 0.000e+00 0.000e+00 0.000e+00 0.000e+00 0.000e+00 0.000e+00 0.000e+00 0.000e+00 0.000e+00 0.000e+00 0.000e+00 0.000e+00 0.000e+00 0.000e+00 0.000e+00 0.000e+00 0.000e+00 0.000e+00 6.441e-03 0.000e+00 0.000e+00 0.000e+00 0.000e+00 0.000e+00 0.000e+00 0.000e+00 0.000e+00 0.000e+00 0.000e+00 0.000e+00 0.000e+00 0.000e+00 0.000e+00 0.000e+00 0.000e+00 0.000e+00 0.000e+00 0.000e+00 0.000e+00 0.000e+00 0.000e+00 0.000e+00 0.000e+00 5.504e-03 0.000e+00 0.000e+00 0.000e+00 0.000e+00 0.000e+00 0.000e+00 0.000e+00 0.000e+00 0.000e+00 0.000e+00 0.000e+00 0.000e+00 0.000e+00 0.000e+00 0.000e+00 0.000e+00 0.000e+00 0.000e+00 0.000e+00 0.000e+00 0.000e+00 0.000e+00 4.566e-03 0.000e+00 0.000e+00 0.000e+00 0.000e+00 0.000e+00 0.000e+00 0.000e+00 0.000e+00 0.000e+00 0.000e+00 0.000e+00 0.000e+00 0.000e+00 0.000e+00 0.000e+00 0.000e+00 0.000e+00 3.629e-03 0.000e+00 0.000e+00 0.000e+00 0.000e+00 0.000e+00 0.000e+00 0.000e+00 0.000e+00 0.000e+00 0.000e+00 0.000e+00 0.000e+00 2.691e-03 0.000e+00 0.000e+00 0.000e+00 0.000e+00 0.000e+00 0.000e+00 0.000e+00 0.000e+00 0.000e+00 0.000e+00 0.000e+00 0.000e+00 1.754e-03 0.000e+00 0.000e+00 0.000e+00 0.000e+00 0.000e+00 0.000e+00 0.000e+00 0.000e+00 0.000e+00 0.000e+00 0.000e+00 0.000e+00 8.160e-04 0.000e+00 0.000e+00 0.000e+00 0.000e+00 0.000e+00 0.000e+00 0.000e+00 0.000e+00 0.000e+00 0.000e+00 0.000e+00 0.000e+00 6.833e-02 5.800e-02 5.300e-02 5.000e-02 4.250e-02 3.750e-02 3.250e-02 2.750e-02 2.250e-02 1.750e-02 1.250e-02 7.500e-03 2.500e-03 0.000e+00 0.000e+00 0.000e+00 0.000e+00 0.000e+00 0.000e+00 0.000e+00 0.000e+00 0.000e+00 0.000e+00 0.000e+00 0.000e+00 0.000e+00 0.000e+00 0.000e+00 8.316e-03 0.000e+00 0.000e+00 7.379e-03 0.000e+00 0.000e+00 0.000e+00 0.000e+00 0.000e+00 0.000e+00 0.000e+00 0.000e+00 0.000e+00 0.000e+00 0.000e+00 0.000e+00 0.000e+00 0.000e+00 0.000e+00 0.000e+00 0.000e+00 0.000e+00 0.000e+00 0.000e+00 0.000e+00 0.000e+00 0.000e+00 0.000e+00 0.000e+00 0.000e+00 6.441e-03 0.000e+00 0.000e+00 0.000e+00 0.000e+00 0.000e+00 0.000e+00 0.000e+00 0.000e+00 0.000e+00 0.000e+00 0.000e+00 0.000e+00 0.000e+00 0.000e+00 0.000e+00 0.000e+00 0.000e+00 0.000e+00 0.000e+00 0.000e+00 0.000e+00 0.000e+00 5.504e-03 0.000e+00 0.000e+00 0.000e+00 0.000e+00 0.000e+00 0.000e+00 0.000e+00 0.000e+00 0.000e+00 0.000e+00 0.000e+00 0.000e+00 0.000e+00 0.000e+00 0.000e+00 0.000e+00 0.000e+00 0.000e+00 0.000e+00 0.000e+00 0.000e+00 0.000e+00 4.566e-03 0.000e+00 0.000e+00 0.000e+00 0.000e+00 0.000e+00 0.000e+00 0.000e+00 0.000e+00 0.000e+00 0.000e+00 0.000e+00 0.000e+00 0.000e+00 0.000e+00 0.000e+00 0.000e+00 0.000e+00 0.000e+00 0.000e+00 0.000e+00 3.629e-03 0.000e+00 0.000e+00 0.000e+00 0.000e+00 0.000e+00 0.000e+00 0.000e+00 0.000e+00 0.000e+00 0.000e+00 0.000e+00 0.000e+00 0.000e+00 0.000e+00 0.000e+00 2.691e-03 0.000e+00 0.000e+00 0.000e+00 0.000e+00 0.000e+00 0.000e+00 0.000e+00 0.000e+00 0.000e+00 0.000e+00 0.000e+00 0.000e+00 1.754e-03 0.000e+00 0.000e+00 0.000e+00 0.000e+00 0.000e+00 0.000e+00 0.000e+00 0.000e+00 0.000e+00 0.000e+00 0.000e+00 0.000e+00 8.160e-04 0.000e+00 0.000e+00 0.000e+00 0.000e+00 0.000e+00 0.000e+00 0.000e+00 0.000e+00 0.000e+00 0.000e+00 0.000e+00 0.000e+00 6.833e-02 5.800e-02 5.300e-02 5.000e-02 4.250e-02 3.750e-02 3.250e-02 2.750e-02 2.250e-02 1.750e-02 1.250e-02 7.500e-03 2.500e-03 0.000e+00 0.000e+00 0.000e+00 0.000e+00 0.000e+00 0.000e+00 0.000e+00 0.000e+00 0.000e+00 0.000e+00 0.000e+00 0.000e+00 0.000e+00 0.000e+00 0.000e+00 8.316e-03 0.000e+00 0.000e+00 7.379e-03 0.000e+00 0.000e+00 0.000e+00 0.000e+00 0.000e+00 0.000e+00 0.000e+00 0.000e+00 0.000e+00 0.000e+00 0.000e+00 0.000e+00 0.000e+00 0.000e+00 0.000e+00 0.000e+00 0.000e+00 0.000e+00 0.000e+00 0.000e+00 0.000e+00 0.000e+00 0.000e+00 0.000e+00 0.000e+00 0.000e+00 6.441e-03 0.000e+00 0.000e+00 0.000e+00 0.000e+00 0.000e+00 0.000e+00 0.000e+00 0.000e+00 0.000e+00 0.000e+00 0.000e+00 0.000e+00 0.000e+00 0.000e+00 0.000e+00 0.000e+00 0.000e+00 0.000e+00 0.000e+00 0.000e+00 0.000e+00 0.000e+00 0.000e+00 5.504e-03 0.000e+00 0.000e+00 0.000e+00 0.000e+00 0.000e+00 0.000e+00 0.000e+00 0.000e+00 0.000e+00 0.000e+00 0.000e+00 0.000e+00 0.000e+00 0.000e+00 0.000e+00 0.000e+00 0.000e+00 0.000e+00 0.000e+00 0.000e+00 0.000e+00 0.000e+00 4.566e-03 0.000e+00 0.000e+00 0.000e+00 0.000e+00 0.000e+00 0.000e+00 0.000e+00 0.000e+00 0.000e+00 0.000e+00 0.000e+00 0.000e+00 0.000e+00 0.000e+00 0.000e+00 0.000e+00 0.000e+00 0.000e+00 0.000e+00 0.000e+00 3.629e-03 0.000e+00 0.000e+00 0.000e+00 0.000e+00 0.000e+00 0.000e+00 0.000e+00 0.000e+00 0.000e+00 0.000e+00 0.000e+00 0.000e+00 0.000e+00 0.000e+00 2.691e-03 0.000e+00 0.000e+00 0.000e+00 0.000e+00 0.000e+00 0.000e+00 0.000e+00 0.000e+00 0.000e+00 0.000e+00 0.000e+00 0.000e+00 1.754e-03 0.000e+00 0.000e+00 0.000e+00 0.000e+00 0.000e+00 0.000e+00 0.000e+00 0.000e+00 0.000e+00 0.000e+00 0.000e+00 0.000e+00 8.160e-04 0.000e+00 0.000e+00 0.000e+00 0.000e+00 0.000e+00 0.000e+00 0.000e+00 0.000e+00 0.000e+00 0.000e+00 0.000e+00 0.000e+00 0.000e+00 0.000e+00 6.833e-02 5.800e-02 5.300e-02 5.000e-02 4.250e-02 3.750e-02 3.250e-02 2.750e-02 2.250e-02 1.750e-02 1.250e-02 7.500e-03 2.500e-03 0.000e+00 0.000e+00 0.000e+00 0.000e+00 0.000e+00 0.000e+00 0.000e+00 0.000e+00 0.000e+00 0.000e+00 0.000e+00 0.000e+00 0.000e+00 0.000e+00 0.000e+00 0.000e+00 0.000e+00 0.000e+00 0.000e+00 0.000e+00 0.000e+00 0.000e+00 0.000e+00 0.000e+00 0.000e+00 0.000e+00 0.000e+00 0.000e+00 0.000e+00 0.000e+00 0.000e+00 0.000e+00 0.000e+00 0.000e+00 0.000e+00 4.375e-02 1.750e-02 5.000e-03 0.000e+00 0.000e+00 0.000e+00 0.000e+00 0.000e+00 0.000e+00 0.000e+00 0.000e+00 0.000e+00 0.000e+00 0.000e+00 0.000e+00 0.000e+00 0.000e+00 0.000e+00 0.000e+00 0.000e+00 0.000e+00 0.000e+00 0.000e+00 0.000e+00 0.000e+00 0.000e+00 0.000e+00 0.000e+00 0.000e+00 0.000e+00 0.000e+00 0.000e+00 0.000e+00 0.000e+00 0.000e+00 0.000e+00 0.000e+00 4.375e-02 1.750e-02 5.000e-03 0.000e+00 0.000e+00 0.000e+00 0.000e+00 0.000e+00 0.000e+00 0.000e+00 0.000e+00 0.000e+00 0.000e+00 0.000e+00 0.000e+00 0.000e+00 0.000e+00 0.000e+00 0.000e+00 0.000e+00 0.000e+00 0.000e+00 0.000e+00 0.000e+00 0.000e+00 0.000e+00 0.000e+00 0.000e+00 0.000e+00 0.000e+00 0.000e+00 0.000e+00 0.000e+00 0.000e+00 0.000e+00 0.000e+00 0.000e+00 4.375e-02 1.750e-02 5.000e-03 0.000e+00 0.000e+00 0.000e+00 0.000e+00 0.000e+00 0.000e+00 0.000e+00 0.000e+00 0.000e+00 0.000e+00 0.000e+00 0.000e+00 0.000e+00 0.000e+00 0.000e+00 0.000e+00 0.000e+00 0.000e+00 0.000e+00 0.000e+00 0.000e+00 0.000e+00 0.000e+00 0.000e+00 0.000e+00 0.000e+00 0.000e+00 0.000e+00 0.000e+00 0.000e+00 0.000e+00 0.000e+00 0.000e+00 0.000e+00 4.375e-02 1.750e-02 5.000e-03 0.000e+00 0.000e+00 0.000e+00 0.000e+00 0.000e+00 0.000e+00 0.000e+00 0.000e+00 0.000e+00 0.000e+00 0.000e+00 0.000e+00 0.000e+00 0.000e+00 0.000e+00 0.000e+00 0.000e+00 0.000e+00 0.000e+00 0.000e+00 0.000e+00 0.000e+00 0.000e+00 0.000e+00 0.000e+00 0.000e+00 0.000e+00 0.000e+00 0.000e+00 0.000e+00 0.000e+00 0.000e+00 0.000e+00 0.000e+00 0.000e+00 0.000e+00 0.000e+00 0.000e+00 0.000e+00 0.000e+00 0.000e+00 0.000e+00 0.000e+00 0.000e+00 6.715e-02 5.600e-02 3.500e-02 5.000e-03 0.000e+00 0.000e+00 0.000e+00 0.000e+00 6.672e-02 5.500e-02 3.500e-02 5.000e-03 0.000e+00 0.000e+00 0.000e+00 6.291e-02 5.200e-02 2.750e-02 0.000e+00 0.000e+00 0.000e+00 0.000e+00 0.000e+00 0.000e+00 0.000e+00 0.000e+00 0.000e+00 0.000e+00 0.000e+00 0.000e+00 0.000e+00 0.000e+00 0.000e+00 0.000e+00 0.000e+00 0.000e+00 0.000e+00 0.000e+00 0.000e+00 0.000e+00 0.000e+00 0.000e+00 0.000e+00 0.000e+00 0.000e+00 0.000e+00 6.248e-02 5.100e-02 2.500e-02 0.000e+00 0.000e+00 0.000e+00 0.000e+00 0.000e+00 0.000e+00 0.000e+00 0.000e+00 0.000e+00 0.000e+00 0.000e+00 0.000e+00 0.000e+00 0.000e+00 0.000e+00 0.000e+00 0.000e+00 0.000e+00 0.000e+00 0.000e+00 0.000e+00 0.000e+00 0.000e+00 6.206e-02 4.750e-02 1.500e-02 0.000e+00 0.000e+00 0.000e+00 0.000e+00 0.000e+00 0.000e+00 0.000e+00 0.000e+00 0.000e+00 0.000e+00 0.000e+00 0.000e+00 0.000e+00 0.000e+00 0.000e+00 0.000e+00 0.000e+00 0.000e+00 0.000e+00 0.000e+00 0.000e+00 0.000e+00 0.000e+00 6.163e-02 5.000e-02 2.250e-02 0.000e+00 0.000e+00 0.000e+00 0.000e+00 0.000e+00 0.000e+00 0.000e+00 0.000e+00 0.000e+00 0.000e+00 0.000e+00 0.000e+00 0.000e+00 0.000e+00 6.121e-02 5.000e-02 2.000e-02 0.000e+00 0.000e+00 0.000e+00 0.000e+00 0.000e+00 0.000e+00 0.000e+00 0.000e+00 0.000e+00 0.000e+00 0.000e+00 0.000e+00 0.000e+00 6.078e-02 4.500e-02 1.500e-02 0.000e+00 0.000e+00 0.000e+00 0.000e+00 0.000e+00 0.000e+00 0.000e+00 0.000e+00 0.000e+00 0.000e+00 0.000e+00 0.000e+00 6.036e-02 4.750e-02 2.000e-02 0.000e+00 0.000e+00 0.000e+00 0.000e+00 5.994e-02 5.000e-02 2.500e-02 0.000e+00 0.000e+00 0.000e+00 5.951e-02 4.500e-02 1.500e-02 0.000e+00 0.000e+00 0.000e+00 0.000e+00 5.909e-02 5.000e-02 2.500e-02 0.000e+00 0.000e+00 0.000e+00 0.000e+00 0.000e+00 0.000e+00 6.630e-02 5.600e-02 4.000e-02 1.500e-02 0.000e+00 0.000e+00 0.000e+00 0.000e+00 5.866e-02 4.500e-02 1.750e-02 0.000e+00 0.000e+00 0.000e+00 5.824e-02 4.250e-02 1.500e-02 0.000e+00 0.000e+00 0.000e+00 5.782e-02 4.500e-02 1.750e-02 0.000e+00 0.000e+00 0.000e+00 5.739e-02 3.500e-02 0.000e+00 0.000e+00 0.000e+00 0.000e+00 5.697e-02 4.250e-02 1.750e-02 0.000e+00 0.000e+00 0.000e+00 0.000e+00 0.000e+00 5.654e-02 4.250e-02 2.000e-02 0.000e+00 0.000e+00 0.000e+00 5.612e-02 3.000e-02 0.000e+00 0.000e+00 5.569e-02 3.500e-02 5.000e-03 0.000e+00 0.000e+00 5.527e-02 3.500e-02 7.500e-03 0.000e+00 0.000e+00 5.485e-02 3.500e-02 5.000e-03 0.000e+00 0.000e+00 0.000e+00 0.000e+00 6.588e-02 5.400e-02 3.000e-02 0.000e+00 0.000e+00 0.000e+00 0.000e+00 5.442e-02 3.500e-02 1.000e-02 0.000e+00 0.000e+00 0.000e+00 5.400e-02 3.000e-02 0.000e+00 0.000e+00 0.000e+00 5.357e-02 3.000e-02 0.000e+00 0.000e+00 0.000e+00 5.315e-02 3.000e-02 5.000e-03 0.000e+00 0.000e+00 0.000e+00 5.272e-02 2.500e-02 0.000e+00 0.000e+00 0.000e+00 5.230e-02 2.000e-02 0.000e+00 0.000e+00 5.188e-02 2.500e-02 0.000e+00 0.000e+00 0.000e+00 5.145e-02 2.500e-02 0.000e+00 0.000e+00 0.000e+00 5.103e-02 2.000e-02 0.000e+00 0.000e+00 0.000e+00 5.060e-02 2.000e-02 0.000e+00 0.000e+00 0.000e+00 0.000e+00 0.000e+00 6.545e-02 5.500e-02 3.500e-02 1.000e-02 0.000e+00 0.000e+00 0.000e+00 5.018e-02 2.000e-02 0.000e+00 0.000e+00 0.000e+00 4.938e-02 2.000e-02 0.000e+00 0.000e+00 0.000e+00 4.832e-02 2.000e-02 0.000e+00 0.000e+00 0.000e+00 4.726e-02 1.750e-02 0.000e+00 0.000e+00 0.000e+00 4.620e-02 1.500e-02 0.000e+00 0.000e+00 4.514e-02 2.000e-02 0.000e+00 0.000e+00 0.000e+00 4.408e-02 1.500e-02 0.000e+00 0.000e+00 4.302e-02 1.500e-02 0.000e+00 0.000e+00 0.000e+00 4.196e-02 1.000e-02 0.000e+00 0.000e+00 4.090e-02 1.500e-02 0.000e+00 0.000e+00 0.000e+00 0.000e+00 6.503e-02 5.400e-02 3.000e-02 0.000e+00 0.000e+00 0.000e+00 3.984e-02 1.000e-02 0.000e+00 0.000e+00 0.000e+00 3.878e-02 1.500e-02 0.000e+00 0.000e+00 0.000e+00 3.772e-02 7.500e-03 0.000e+00 0.000e+00 3.666e-02 5.000e-03 0.000e+00 0.000e+00 3.560e-02 1.000e-02 0.000e+00 0.000e+00 0.000e+00 3.454e-02 0.000e+00 0.000e+00 0.000e+00 3.347e-02 0.000e+00 0.000e+00 0.000e+00 3.241e-02 5.000e-03 0.000e+00 0.000e+00 3.135e-02 0.000e+00 0.000e+00 0.000e+00 3.029e-02 0.000e+00 0.000e+00 0.000e+00 0.000e+00 0.000e+00 6.460e-02 5.400e-02 3.250e-02 5.000e-03 0.000e+00 0.000e+00 2.923e-02 5.000e-03 0.000e+00 0.000e+00 0.000e+00 2.817e-02 0.000e+00 0.000e+00 0.000e+00 2.711e-02 0.000e+00 0.000e+00 0.000e+00 2.605e-02 0.000e+00 0.000e+00 0.000e+00 2.499e-02 0.000e+00 0.000e+00 0.000e+00 2.393e-02 0.000e+00 0.000e+00 0.000e+00 2.287e-02 0.000e+00 0.000e+00 0.000e+00 2.181e-02 0.000e+00 0.000e+00 0.000e+00 2.075e-02 0.000e+00 0.000e+00 0.000e+00 1.969e-02 0.000e+00 0.000e+00 0.000e+00 0.000e+00 6.418e-02 5.200e-02 2.500e-02 0.000e+00 0.000e+00 0.000e+00 1.863e-02 0.000e+00 0.000e+00 0.000e+00 1.756e-02 0.000e+00 0.000e+00 1.650e-02 0.000e+00 0.000e+00 0.000e+00 1.544e-02 0.000e+00 0.000e+00 1.438e-02 0.000e+00 0.000e+00 0.000e+00 1.332e-02 0.000e+00 0.000e+00 1.226e-02 0.000e+00 0.000e+00 1.120e-02 0.000e+00 0.000e+00 1.014e-02 0.000e+00 0.000e+00 9.079e-03 0.000e+00 0.000e+00 0.000e+00 6.375e-02 5.200e-02 2.500e-02 0.000e+00 0.000e+00 0.000e+00 8.019e-03 0.000e+00 0.000e+00 6.958e-03 0.000e+00 0.000e+00 5.897e-03 0.000e+00 0.000e+00 4.837e-03 0.000e+00 0.000e+00 3.776e-03 0.000e+00 0.000e+00 2.715e-03 0.000e+00 0.000e+00 1.655e-03 0.000e+00 0.000e+00 5.940e-04 0.000e+00 0.000e+00 0.000e+00 0.000e+00 0.000e+00 0.000e+00 0.000e+00 0.000e+00 6.333e-02 5.000e-02 1.750e-02 0.000e+00 0.000e+00 0.000e+00 0.000e+00 0.000e+00 0.000e+00 0.000e+00 0.000e+00 0.000e+00 0.000e+00 0.000e+00 0.000e+00 0.000e+00 0.000e+00 0.000e+00 0.000e+00 0.000e+00 0.000e+00 0.000e+00 0.000e+00 0.000e+00 0.000e+00 0.000e+00 0.000e+00 0.000e+00 0.000e+00 0.000e+00 0.000e+00 0.000e+00 0.000e+00 0.000e+00 0.000e+00 0.000e+00 0.000e+00 0.000e+00 0.000e+00 5.108e-02 3.750e-02 2.000e-02 5.000e-03 0.000e+00 0.000e+00 0.000e+00 0.000e+00 0.000e+00 0.000e+00 0.000e+00 2.627e-02 1.000e-02 0.000e+00 0.000e+00 0.000e+00 0.000e+00 8.973e-03 0.000e+00 0.000e+00 0.000e+00 0.000e+00 0.000e+00 0.000e+00 0.000e+00 0.000e+00 0.000e+00 0.000e+00 0.000e+00 0.000e+00 0.000e+00 1.168e-01 1.118e-01 1.067e-01 1.017e-01 9.800e-02 9.500e-02 9.100e-02 8.800e-02 8.500e-02 8.100e-02 7.800e-02 7.500e-02 7.100e-02 6.800e-02 6.500e-02 6.200e-02 5.900e-02 5.600e-02 5.300e-02 5.000e-02 4.250e-02 3.500e-02 2.750e-02 2.000e-02 1.250e-02 5.000e-03 0.000e+00 0.000e+00 0.000e+00 0.000e+00 0.000e+00 0.000e+00 0.000e+00 0.000e+00 0.000e+00
           </DataArray>
           <DataArray type="Float32" Name="combinedRootClassID" NumberOfComponents="1" format="ascii">