<?xml version="1.0"?>
<VTKFile type="UnstructuredGrid" version="0.1" byte_order="LittleEndian">
   <UnstructuredGrid>
      <Piece NumberOfPoints="45280" NumberOfCells="3244">
         <Points>
            <DataArray type="Float32" Name="Position" NumberOfComponents="3" format="ascii">
0.140	-5.038	-0.072
0.140	-5.029	-0.071
0.136	-5.021	-0.068
0.128	-5.019	-0.063
0.121	-5.022	-0.059
0.116	-5.029	-0.056
0.116	-5.039	-0.057
0.120	-5.046	-0.060
0.128	-5.049	-0.065
0.135	-5.046	-0.069
0.598	-5.084	0.669
0.600	-5.075	0.670
0.596	-5.067	0.671
0.589	-5.062	0.674
0.580	-5.063	0.677
0.573	-5.070	0.679
0.571	-5.079	0.679
0.575	-5.087	0.677
0.582	-5.092	0.674
0.591	-5.091	0.671
0.684	-5.185	1.504
0.688	-5.177	1.504
0.686	-5.168	1.505
0.679	-5.162	1.506
0.670	-5.161	1.507
0.662	-5.166	1.507
0.658	-5.174	1.506
0.660	-5.183	1.505
0.667	-5.189	1.504
0.676	-5.190	1.504
0.690	-5.230	2.290
0.694	-5.222	2.291
0.692	-5.213	2.291
0.685	-5.207	2.292
0.676	-5.205	2.292
0.668	-5.210	2.292
0.664	-5.218	2.291
0.666	-5.227	2.291
0.672	-5.234	2.290
0.682	-5.235	2.290
0.259	-5.095	-0.137
0.259	-5.087	-0.133
0.255	-5.083	-0.125
0.249	-5.084	-0.118
0.243	-5.090	-0.114
0.239	-5.098	-0.115
0.239	-5.106	-0.119
0.243	-5.111	-0.126
0.249	-5.110	-0.133
0.255	-5.104	-0.137
0.894	-5.379	0.386
0.894	-5.371	0.391
0.889	-5.366	0.397
0.883	-5.366	0.404
0.877	-5.372	0.408
0.873	-5.380	0.408
0.874	-5.389	0.404
0.878	-5.394	0.397
0.884	-5.393	0.391
0.890	-5.388	0.387
1.487	-5.593	0.988
1.486	-5.585	0.992
1.482	-5.581	0.999
1.476	-5.582	1.006
1.471	-5.588	1.011
1.468	-5.597	1.011
1.468	-5.605	1.006
1.472	-5.609	0.999
1.478	-5.608	0.992
1.484	-5.602	0.988
2.203	-5.823	1.438
2.203	-5.816	1.443
2.200	-5.812	1.451
2.194	-5.813	1.458
2.188	-5.819	1.462
2.184	-5.828	1.461
2.184	-5.835	1.455
2.188	-5.839	1.448
2.193	-5.838	1.440
2.199	-5.832	1.437
2.688	-6.213	1.822
2.690	-6.206	1.827
2.686	-6.202	1.835
2.680	-6.203	1.842
2.674	-6.208	1.846
2.669	-6.215	1.844
2.667	-6.223	1.838
2.670	-6.227	1.830
2.676	-6.226	1.824
2.683	-6.221	1.820
1.238	-5.923	-0.547
1.238	-5.914	-0.546
1.233	-5.908	-0.541
1.226	-5.906	-0.535
1.219	-5.911	-0.530
1.215	-5.919	-0.529
1.216	-5.928	-0.530
1.221	-5.934	-0.535
1.228	-5.936	-0.541
1.234	-5.931	-0.545
1.754	-6.013	0.107
1.753	-6.004	0.110
1.748	-5.998	0.115
1.741	-5.998	0.121
1.735	-6.003	0.126
1.732	-6.011	0.128
1.733	-6.020	0.125
1.738	-6.026	0.120
1.745	-6.027	0.114
1.751	-6.022	0.109
2.375	-6.081	0.705
2.373	-6.072	0.707
2.368	-6.066	0.712
2.362	-6.065	0.719
2.356	-6.071	0.724
2.353	-6.079	0.726
2.354	-6.088	0.724
2.359	-6.094	0.718
2.366	-6.094	0.712
2.372	-6.089	0.707
2.949	-6.120	1.389
2.948	-6.111	1.390
2.943	-6.104	1.394
2.936	-6.103	1.400
2.929	-6.107	1.405
2.926	-6.116	1.407
2.927	-6.125	1.406
2.932	-6.131	1.402
2.939	-6.132	1.396
2.946	-6.128	1.391
3.050	-6.130	1.520
3.050	-6.121	1.521
3.045	-6.114	1.526
3.038	-6.113	1.531
3.031	-6.117	1.536
3.027	-6.125	1.538
3.028	-6.134	1.537
3.033	-6.141	1.533
3.040	-6.142	1.527
3.047	-6.138	1.522
4.054	-18.883	-1.231
4.057	-18.876	-1.225
4.054	-18.868	-1.221
4.048	-18.861	-1.222
4.041	-18.858	-1.227
4.035	-18.860	-1.234
4.032	-18.867	-1.240
4.035	-18.875	-1.243
4.041	-18.882	-1.242
4.048	-18.885	-1.238
3.553	-19.257	-0.669
3.555	-19.251	-0.663
3.552	-19.242	-0.659
3.546	-19.235	-0.660
3.539	-19.232	-0.665
3.533	-19.235	-0.672
3.531	-19.241	-0.678
3.533	-19.249	-0.681
3.539	-19.256	-0.680
3.547	-19.259	-0.676
4.068	-19.032	-1.239
4.069	-19.026	-1.232
4.067	-19.018	-1.229
4.061	-19.011	-1.231
4.055	-19.007	-1.237
4.050	-19.009	-1.244
4.049	-19.015	-1.251
4.051	-19.023	-1.254
4.057	-19.031	-1.253
4.063	-19.034	-1.247
3.457	-19.400	-0.785
3.459	-19.394	-0.779
3.457	-19.385	-0.776
3.452	-19.378	-0.778
3.445	-19.375	-0.784
3.440	-19.377	-0.791
3.438	-19.383	-0.797
3.440	-19.392	-0.800
3.445	-19.399	-0.798
3.452	-19.402	-0.793
3.419	-19.419	-0.744
3.422	-19.412	-0.739
3.420	-19.404	-0.736
3.415	-19.396	-0.738
3.408	-19.393	-0.743
3.402	-19.396	-0.750
3.399	-19.403	-0.756
3.401	-19.412	-0.758
3.406	-19.419	-0.756
3.413	-19.422	-0.751
4.062	-19.165	-1.243
4.064	-19.158	-1.249
4.071	-19.156	-1.255
4.078	-19.158	-1.260
4.084	-19.165	-1.261
4.086	-19.174	-1.259
4.083	-19.181	-1.253
4.077	-19.184	-1.247
4.069	-19.181	-1.242
4.064	-19.174	-1.241
3.567	-19.454	-1.860
3.569	-19.448	-1.867
3.574	-19.445	-1.874
3.582	-19.448	-1.878
3.588	-19.455	-1.879
3.591	-19.463	-1.876
3.589	-19.470	-1.869
3.583	-19.472	-1.862
3.576	-19.469	-1.858
3.569	-19.462	-1.857
3.556	-19.499	-1.909
3.555	-19.505	-1.902
3.549	-19.506	-1.895
3.542	-19.503	-1.890
3.535	-19.497	-1.890
3.532	-19.490	-1.895
3.533	-19.484	-1.902
3.539	-19.482	-1.909
3.546	-19.486	-1.914
3.553	-19.492	-1.914
4.081	-19.307	-1.256
4.089	-19.304	-1.258
4.098	-19.307	-1.259
4.104	-19.314	-1.258
4.105	-19.323	-1.256
4.100	-19.330	-1.253
4.092	-19.333	-1.250
4.083	-19.331	-1.249
4.077	-19.324	-1.250
4.076	-19.315	-1.253
3.930	-19.550	-2.062
3.939	-19.547	-2.064
3.948	-19.551	-2.064
3.953	-19.558	-2.062
3.953	-19.567	-2.059
3.948	-19.573	-2.056
3.939	-19.576	-2.054
3.930	-19.573	-2.054
3.925	-19.565	-2.055
3.925	-19.557	-2.059
3.925	-19.574	-2.120
3.934	-19.573	-2.122
3.942	-19.576	-2.122
3.947	-19.584	-2.119
3.946	-19.592	-2.115
3.940	-19.598	-2.112
3.931	-19.600	-2.110
3.923	-19.596	-2.111
3.918	-19.589	-2.113
3.919	-19.580	-2.117
4.107	-19.477	-1.244
4.105	-19.469	-1.241
4.104	-19.460	-1.243
4.105	-19.454	-1.250
4.107	-19.453	-1.259
4.110	-19.458	-1.267
4.111	-19.466	-1.270
4.112	-19.475	-1.268
4.111	-19.481	-1.261
4.109	-19.482	-1.252
3.295	-19.566	-1.429
3.294	-19.558	-1.426
3.293	-19.549	-1.428
3.294	-19.543	-1.435
3.296	-19.542	-1.444
3.298	-19.547	-1.451
3.300	-19.555	-1.455
3.300	-19.564	-1.453
3.299	-19.570	-1.446
3.297	-19.571	-1.437
4.118	-19.605	-1.260
4.127	-19.602	-1.262
4.135	-19.606	-1.261
4.141	-19.613	-1.259
4.140	-19.622	-1.256
4.134	-19.628	-1.253
4.126	-19.631	-1.252
4.117	-19.627	-1.253
4.112	-19.620	-1.255
4.112	-19.611	-1.258
4.073	-19.879	-2.066
4.082	-19.878	-2.067
4.090	-19.883	-2.065
4.094	-19.890	-2.062
4.092	-19.898	-2.057
4.085	-19.904	-2.054
4.076	-19.904	-2.053
4.068	-19.900	-2.054
4.064	-19.892	-2.058
4.066	-19.884	-2.063
4.070	-19.920	-2.121
4.080	-19.921	-2.121
4.086	-19.927	-2.117
4.088	-19.934	-2.112
4.084	-19.940	-2.106
4.076	-19.943	-2.103
4.067	-19.942	-2.103
4.060	-19.937	-2.107
4.059	-19.930	-2.112
4.062	-19.923	-2.118
4.141	-19.753	-1.261
4.150	-19.751	-1.263
4.159	-19.755	-1.262
4.163	-19.762	-1.259
4.163	-19.771	-1.255
4.156	-19.777	-1.252
4.147	-19.779	-1.251
4.139	-19.775	-1.252
4.134	-19.767	-1.255
4.135	-19.759	-1.258
4.093	-20.078	-2.036
4.101	-20.076	-2.038
4.110	-20.079	-2.039
4.115	-20.086	-2.037
4.116	-20.095	-2.033
4.110	-20.101	-2.030
4.102	-20.104	-2.027
4.093	-20.100	-2.027
4.088	-20.093	-2.028
4.087	-20.085	-2.032
4.091	-20.113	-2.104
4.095	-20.113	-2.095
4.094	-20.113	-2.086
4.087	-20.113	-2.080
4.078	-20.113	-2.078
4.070	-20.113	-2.082
4.066	-20.113	-2.091
4.067	-20.113	-2.100
4.074	-20.113	-2.106
4.083	-20.113	-2.108
4.173	-19.903	-1.268
4.173	-19.898	-1.260
4.174	-19.900	-1.251
4.173	-19.906	-1.244
4.172	-19.915	-1.242
4.171	-19.923	-1.246
4.170	-19.928	-1.254
4.170	-19.927	-1.263
4.170	-19.920	-1.270
4.171	-19.911	-1.272
4.999	-20.017	-1.294
5.000	-20.012	-1.286
5.000	-20.013	-1.277
4.999	-20.020	-1.270
4.998	-20.029	-1.268
4.997	-20.037	-1.272
4.996	-20.041	-1.280
4.996	-20.040	-1.289
4.996	-20.034	-1.296
4.997	-20.025	-1.298
4.208	-20.067	-1.264
4.210	-20.059	-1.260
4.207	-20.052	-1.255
4.200	-20.048	-1.251
4.191	-20.050	-1.250
4.184	-20.055	-1.251
4.181	-20.063	-1.255
4.184	-20.070	-1.260
4.192	-20.074	-1.264
4.201	-20.072	-1.266
4.370	-20.422	-0.668
4.372	-20.414	-0.663
4.369	-20.407	-0.658
4.361	-20.403	-0.654
4.352	-20.405	-0.653
4.345	-20.411	-0.654
4.343	-20.418	-0.658
4.346	-20.426	-0.663
4.354	-20.429	-0.668
4.363	-20.428	-0.669
4.224	-20.199	-1.271
4.225	-20.195	-1.263
4.225	-20.195	-1.254
4.224	-20.201	-1.247
4.222	-20.210	-1.245
4.220	-20.218	-1.248
4.219	-20.223	-1.256
4.219	-20.222	-1.265
4.220	-20.216	-1.273
4.222	-20.208	-1.275
4.827	-20.333	-1.278
4.828	-20.328	-1.270
4.828	-20.329	-1.261
4.826	-20.335	-1.254
4.825	-20.343	-1.252
4.823	-20.352	-1.255
4.822	-20.357	-1.263
4.822	-20.356	-1.272
4.823	-20.350	-1.279
4.825	-20.341	-1.282
1.313	-6.023	-0.586
1.317	-6.020	-0.578
1.321	-6.022	-0.570
1.322	-6.030	-0.564
1.322	-6.039	-0.564
1.319	-6.047	-0.568
1.316	-6.050	-0.576
1.312	-6.047	-0.584
1.310	-6.040	-0.590
1.310	-6.031	-0.590
2.095	-6.080	-0.944
2.100	-6.078	-0.937
2.104	-6.080	-0.929
2.107	-6.088	-0.924
2.106	-6.097	-0.924
2.103	-6.105	-0.928
2.098	-6.107	-0.935
2.093	-6.105	-0.943
2.091	-6.097	-0.948
2.091	-6.088	-0.948
2.738	-6.147	-1.484
2.743	-6.144	-1.476
2.748	-6.147	-1.469
2.751	-6.155	-1.464
2.750	-6.164	-1.464
2.747	-6.171	-1.468
2.742	-6.174	-1.475
2.737	-6.171	-1.483
2.734	-6.164	-1.488
2.734	-6.155	-1.488
3.481	-6.181	-1.891
3.485	-6.178	-1.883
3.488	-6.181	-1.875
3.490	-6.188	-1.870
3.490	-6.197	-1.869
3.487	-6.205	-1.874
3.483	-6.208	-1.882
3.480	-6.206	-1.890
3.477	-6.198	-1.895
3.478	-6.189	-1.896
3.987	-6.236	-2.103
3.990	-6.233	-2.096
3.993	-6.235	-2.087
3.995	-6.242	-2.082
3.994	-6.251	-2.081
3.992	-6.259	-2.085
3.988	-6.262	-2.093
3.985	-6.260	-2.101
3.983	-6.253	-2.107
3.984	-6.244	-2.108
4.260	-20.366	-1.264
4.263	-20.357	-1.264
4.260	-20.348	-1.263
4.253	-20.342	-1.262
4.244	-20.342	-1.260
4.236	-20.347	-1.259
4.233	-20.356	-1.259
4.236	-20.365	-1.260
4.243	-20.371	-1.262
4.252	-20.371	-1.264
4.369	-20.418	-0.585
4.372	-20.409	-0.585
4.369	-20.400	-0.584
4.362	-20.395	-0.582
4.353	-20.394	-0.581
4.345	-20.400	-0.580
4.342	-20.408	-0.580
4.345	-20.417	-0.581
4.352	-20.423	-0.583
4.361	-20.423	-0.584
4.270	-20.494	-1.277
4.272	-20.490	-1.269
4.274	-20.492	-1.260
4.274	-20.499	-1.254
4.273	-20.508	-1.252
4.270	-20.515	-1.256
4.267	-20.519	-1.264
4.265	-20.518	-1.273
4.265	-20.511	-1.280
4.267	-20.502	-1.281
4.773	-20.610	-1.406
4.776	-20.606	-1.398
4.778	-20.608	-1.389
4.778	-20.614	-1.382
4.776	-20.623	-1.381
4.773	-20.631	-1.385
[...]
         <CellData>
           <DataArray type="Float32" Name="aerenchymaFormation" NumberOfComponents="1" format="ascii">
 5.333e-02 1.500e-02 0.000e+00 5.295e-02 2.500e-02 0.000e+00 0.000e+00 4.894e-02 1.250e-02 0.000e+00 0.000e+00 0.000e+00 0.000e+00 0.000e+00 0.000e+00 0.000e+00 0.000e+00 0.000e+00 0.000e+00 0.000e+00 0.000e+00 0.000e+00 0.000e+00 0.000e+00 0.000e+00 0.000e+00 4.800e-02 1.500e-02 0.000e+00 0.000e+00 0.000e+00 0.000e+00 0.000e+00 0.000e+00 0.000e+00 0.000e+00 0.000e+00 0.000e+00 0.000e+00 0.000e+00 4.707e-02 1.500e-02 0.000e+00 0.000e+00 0.000e+00 0.000e+00 0.000e+00 0.000e+00 0.000e+00 0.000e+00 0.000e+00 0.000e+00 0.000e+00 0.000e+00 4.613e-02 7.500e-03 0.000e+00 0.000e+00 0.000e+00 0.000e+00 0.000e+00 0.000e+00 0.000e+00 0.000e+00 0.000e+00 0.000e+00 0.000e+00 4.519e-02 7.500e-03 0.000e+00 0.000e+00 0.000e+00 0.000e+00 4.425e-02 1.000e-02 0.000e+00 0.000e+00 4.332e-02 0.000e+00 0.000e+00 4.238e-02 0.000e+00 0.000e+00 4.144e-02 1.000e-02 0.000e+00 0.000e+00 4.050e-02 1.000e-02 0.000e+00 0.000e+00 5.258e-02 2.000e-02 0.000e+00 0.000e+00 3.957e-02 0.000e+00 0.000e+00 3.863e-02 0.000e+00 0.000e+00 3.769e-02 0.000e+00 0.000e+00 3.675e-02 2.500e-03 0.000e+00 0.000e+00 3.582e-02 0.000e+00 0.000e+00 3.488e-02 5.000e-03 0.000e+00 0.000e+00 3.394e-02 0.000e+00 0.000e+00 3.300e-02 0.000e+00 0.000e+00 3.207e-02 0.000e+00 0.000e+00 0.000e+00 3.113e-02 0.000e+00 0.000e+00 0.000e+00 5.220e-02 1.250e-02 0.000e+00 3.019e-02 0.000e+00 0.000e+00 2.925e-02 0.000e+00 0.000e+00 0.000e+00 2.832e-02 0.000e+00 0.000e+00 2.738e-02 0.000e+00 0.000e+00 2.644e-02 0.000e+00 0.000e+00 2.550e-02 0.000e+00 0.000e+00 0.000e+00 2.457e-02 0.000e+00 0.000e+00 2.363e-02 0.000e+00 0.000e+00 0.000e+00 2.269e-02 0.000e+00 0.000e+00 2.175e-02 0.000e+00 0.000e+00 5.183e-02 2.000e-02 0.000e+00 0.000e+00 2.082e-02 0.000e+00 0.000e+00 0.000e+00 1.988e-02 0.000e+00 0.000e+00 1.894e-02 0.000e+00 0.000e+00 1.800e-02 0.000e+00 0.000e+00 1.707e-02 0.000e+00 0.000e+00 1.613e-02 0.000e+00 0.000e+00 1.519e-02 0.000e+00 0.000e+00 1.425e-02 0.000e+00 0.000e+00 1.332e-02 0.000e+00 0.000e+00 1.238e-02 0.000e+00 0.000e+00 5.145e-02 1.250e-02 0.000e+00 1.144e-02 0.000e+00 0.000e+00 1.050e-02 0.000e+00 0.000e+00 9.566e-03 0.000e+00 0.000e+00 8.629e-03 0.000e+00 0.000e+00 7.691e-03 0.000e+00 0.000e+00 6.754e-03 0.000e+00 0.000e+00 5.816e-03 0.000e+00 4.879e-03 0.000e+00 0.000e+00 3.941e-03 0.000e+00 0.000e+00 3.004e-03 0.000e+00 5.108e-02 1.750e-02 0.000e+00 0.000e+00 2.066e-03 0.000e+00 0.000e+00 1.129e-03 0.000e+00 0.000e+00 1.910e-04 0.000e+00 0.000e+00 0.000e+00 0.000e+00 0.000e+00 0.000e+00 0.000e+00 0.000e+00 0.000e+00 0.000e+00 0.000e+00 0.000e+00 0.000e+00 0.000e+00 0.000e+00 0.000e+00 0.000e+00 5.070e-02 1.750e-02 0.000e+00 0.000e+00 0.000e+00 0.000e+00 0.000e+00 0.000e+00 0.000e+00 0.000e+00 0.000e+00 0.000e+00 0.000e+00 0.000e+00 0.000e+00 0.000e+00 0.000e+00 0.000e+00 0.000e+00 0.000e+00 0.000e+00 0.000e+00 0.000e+00 0.000e+00 0.000e+00 5.033e-02 1.250e-02 0.000e+00 0.000e+00 0.000e+00 0.000e+00 0.000e+00 0.000e+00 0.000e+00 0.000e+00 0.000e+00 0.000e+00 0.000e+00 0.000e+00 0.000e+00 0.000e+00 0.000e+00 0.000e+00 0.000e+00 0.000e+00 0.000e+00 0.000e+00 0.000e+00 0.000e+00 4.988e-02 1.750e-02 0.000e+00 0.000e+00 0.000e+00 0.000e+00 0.000e+00 0.000e+00 0.000e+00 0.000e+00 0.000e+00 0.000e+00 0.000e+00 0.000e+00 0.000e+00 0.000e+00 0.000e+00 0.000e+00 0.000e+00 0.000e+00 0.000e+00 0.000e+00 0.000e+00 0.000e+00 8.833e-02 7.800e-02 7.300e-02 7.000e-02 6.700e-02 6.500e-02 6.300e-02 6.100e-02 5.900e-02 5.700e-02 5.500e-02 5.300e-02 5.100e-02 4.750e-02 4.250e-02 3.750e-02 3.250e-02 2.750e-02 2.250e-02 1.750e-02 1.250e-02 7.500e-03 2.500e-03 0.000e+00 0.000e+00 0.000e+00 0.000e+00 0.000e+00 0.000e+00 0.000e+00 0.000e+00 0.000e+00 0.000e+00 0.000e+00 0.000e+00 0.000e+00 0.000e+00 0.000e+00 5.333e-02 2.250e-02 0.000e+00 0.000e+00 5.295e-02 2.000e-02 0.000e+00 0.000e+00 4.894e-02 7.500e-03 0.000e+00 0.000e+00 0.000e+00 0.000e+00 0.000e+00 0.000e+00 0.000e+00 0.000e+00 0.000e+00 0.000e+00 0.000e+00 0.000e+00 0.000e+00 0.000e+00 0.000e+00 4.800e-02 1.750e-02 0.000e+00 0.000e+00 0.000e+00 0.000e+00 0.000e+00 0.000e+00 0.000e+00 0.000e+00 0.000e+00 0.000e+00 0.000e+00 0.000e+00 4.707e-02 7.500e-03 0.000e+00 0.000e+00 0.000e+00 0.000e+00 0.000e+00 0.000e+00 0.000e+00 0.000e+00 0.000e+00 0.000e+00 0.000e+00 4.613e-02 1.500e-02 0.000e+00 0.000e+00 0.000e+00 0.000e+00 0.000e+00 0.000e+00 0.000e+00 0.000e+00 0.000e+00 0.000e+00 0.000e+00 0.000e+00 4.519e-02 1.000e-02 0.000e+00 0.000e+00 0.000e+00 0.000e+00 0.000e+00 4.425e-02 1.000e-02 0.000e+00 0.000e+00 4.332e-02 5.000e-03 0.000e+00 4.238e-02 2.500e-03 0.000e+00 4.144e-02 0.000e+00 0.000e+00 4.050e-02 5.000e-03 0.000e+00 0.000e+00 5.258e-02 1.750e-02 0.000e+00 0.000e+00 3.957e-02 0.000e+00 0.000e+00 3.863e-02 0.000e+00 0.000e+00 3.769e-02 0.000e+00 0.000e+00 3.675e-02 0.000e+00 0.000e+00 3.582e-02 7.500e-03 0.000e+00 0.000e+00 3.488e-02 5.000e-03 0.000e+00 0.000e+00 3.394e-02 0.000e+00 0.000e+00 0.000e+00 3.300e-02 2.500e-03 0.000e+00 0.000e+00 3.207e-02 5.000e-03 0.000e+00 0.000e+00 3.113e-02 0.000e+00 0.000e+00 5.220e-02 2.250e-02 0.000e+00 0.000e+00 3.019e-02 0.000e+00 0.000e+00 2.925e-02 0.000e+00 0.000e+00 2.832e-02 0.000e+00 0.000e+00 2.738e-02 0.000e+00 0.000e+00 2.644e-02 0.000e+00 0.000e+00 2.550e-02 0.000e+00 0.000e+00 2.457e-02 0.000e+00 0.000e+00 2.363e-02 0.000e+00 0.000e+00 2.269e-02 0.000e+00 0.000e+00 2.175e-02 0.000e+00 0.000e+00 5.183e-02 1.250e-02 0.000e+00 2.082e-02 0.000e+00 0.000e+00 1.988e-02 0.000e+00 1.894e-02 0.000e+00 0.000e+00 1.800e-02 0.000e+00 0.000e+00 0.000e+00 1.707e-02 0.000e+00 0.000e+00 1.613e-02 0.000e+00 0.000e+00 1.519e-02 0.000e+00 0.000e+00 1.425e-02 0.000e+00 0.000e+00 1.332e-02 0.000e+00 0.000e+00 1.238e-02 0.000e+00 0.000e+00 5.145e-02 2.500e-02 0.000e+00 0.000e+00 0.000e+00 1.144e-02 0.000e+00 0.000e+00 1.050e-02 0.000e+00 0.000e+00 9.566e-03 0.000e+00 8.629e-03 0.000e+00 0.000e+00 7.691e-03 0.000e+00 0.000e+00 6.754e-03 0.000e+00 0.000e+00 5.816e-03 0.000e+00 0.000e+00 4.879e-03 0.000e+00 3.941e-03 0.000e+00 0.000e+00 3.004e-03 0.000e+00 5.108e-02 2.000e-02 0.000e+00 0.000e+00 2.066e-03 0.000e+00 0.000e+00 1.129e-03 0.000e+00 0.000e+00 1.910e-04 0.000e+00 0.000e+00 0.000e+00 0.000e+00 0.000e+00 0.000e+00 0.000e+00 0.000e+00 0.000e+00 0.000e+00 0.000e+00 0.000e+00 0.000e+00 0.000e+00 0.000e+00 0.000e+00 0.000e+00 0.000e+00 5.070e-02 2.000e-02 0.000e+00 0.000e+00 0.000e+00 0.000e+00 0.000e+00 0.000e+00 0.000e+00 0.000e+00 0.000e+00 0.000e+00 0.000e+00 0.000e+00 0.000e+00 0.000e+00 0.000e+00 0.000e+00 0.000e+00 0.000e+00 0.000e+00 0.000e+00 0.000e+00 0.000e+00 0.000e+00 0.000e+00 0.000e+00 5.033e-02 1.000e-02 0.000e+00 0.000e+00 0.000e+00 0.000e+00 0.000e+00 0.000e+00 0.000e+00 0.000e+00 0.000e+00 0.000e+00 0.000e+00 0.000e+00 0.000e+00 0.000e+00 0.000e+00 0.000e+00 0.000e+00 0.000e+00 0.000e+00 0.000e+00 0.000e+00 4.988e-02 2.500e-03 0.000e+00 0.000e+00 0.000e+00 0.000e+00 0.000e+00 0.000e+00 0.000e+00 0.000e+00 0.000e+00 0.000e+00 0.000e+00 0.000e+00 0.000e+00 0.000e+00 0.000e+00 0.000e+00 0.000e+00 0.000e+00 0.000e+00 0.000e+00 8.833e-02 7.800e-02 7.300e-02 7.000e-02 6.700e-02 6.500e-02 6.300e-02 6.100e-02 5.900e-02 5.700e-02 5.500e-02 5.300e-02 5.100e-02 4.750e-02 4.250e-02 3.750e-02 3.250e-02 2.750e-02 2.250e-02 1.750e-02 1.250e-02 7.500e-03 2.500e-03 0.000e+00 0.000e+00 0.000e+00 0.000e+00 0.000e+00 0.000e+00 0.000e+00 0.000e+00 0.000e+00 0.000e+00 0.000e+00 0.000e+00 0.000e+00 0.000e+00 0.000e+00 5.333e-02 2.250e-02 0.000e+00 0.000e+00 5.295e-02 2.250e-02 0.000e+00 0.000e+00 4.894e-02 1.750e-02 0.000e+00 0.000e+00 0.000e+00 0.000e+00 0.000e+00 0.000e+00 0.000e+00 0.000e+00 0.000e+00 0.000e+00 0.000e+00 0.000e+00 0.000e+00 0.000e+00 0.000e+00 0.000e+00 0.000e+00 0.000e+00 0.000e+00 4.800e-02 1.000e-02 0.000e+00 0.000e+00 0.000e+00 0.000e+00 0.000e+00 0.000e+00 0.000e+00 0.000e+00 0.000e+00 0.000e+00 0.000e+00 0.000e+00 4.707e-02 7.500e-03 0.000e+00 0.000e+00 0.000e+00 0.000e+00 0.000e+00 0.000e+00 0.000e+00 0.000e+00 0.000e+00 0.000e+00 0.000e+00 0.000e+00 4.613e-02 1.250e-02 0.000e+00 0.000e+00 0.000e+00 0.000e+00 0.000e+00 0.000e+00 0.000e+00 0.000e+00 0.000e+00 0.000e+00 0.000e+00 0.000e+00 4.519e-02 1.500e-02 0.000e+00 0.000e+00 0.000e+00 0.000e+00 0.000e+00 4.425e-02 0.000e+00 0.000e+00 4.332e-02 1.500e-02 0.000e+00 0.000e+00 0.000e+00 4.238e-02 7.500e-03 0.000e+00 0.000e+00 4.144e-02 5.000e-03 0.000e+00 0.000e+00 4.050e-02 0.000e+00 0.000e+00 5.258e-02 2.750e-02 0.000e+00 0.000e+00 0.000e+00 3.957e-02 5.000e-03 0.000e+00 0.000e+00 3.863e-02 0.000e+00 0.000e+00 3.769e-02 5.000e-03 0.000e+00 0.000e+00 3.675e-02 0.000e+00 0.000e+00 3.582e-02 2.500e-03 0.000e+00 0.000e+00 3.488e-02 0.000e+00 0.000e+00 3.394e-02 2.500e-03 0.000e+00 0.000e+00 3.300e-02 0.000e+00 0.000e+00 0.000e+00 3.207e-02 0.000e+00 0.000e+00 3.113e-02 0.000e+00 0.000e+00 0.000e+00 5.220e-02 2.250e-02 0.000e+00 0.000e+00 3.019e-02 0.000e+00 0.000e+00 2.925e-02 0.000e+00 0.000e+00 2.832e-02 0.000e+00 0.000e+00 2.738e-02 0.000e+00 0.000e+00 0.000e+00 2.644e-02 0.000e+00 0.000e+00 2.550e-02 0.000e+00 0.000e+00 0.000e+00 2.457e-02 0.000e+00 0.000e+00 2.363e-02 0.000e+00 0.000e+00 2.269e-02 0.000e+00 0.000e+00 2.175e-02 0.000e+00 0.000e+00 5.183e-02 1.750e-02 0.000e+00 0.000e+00 2.082e-02 0.000e+00 0.000e+00 1.988e-02 0.000e+00 0.000e+00 1.894e-02 0.000e+00 0.000e+00 1.800e-02 0.000e+00 0.000e+00 1.707e-02 0.000e+00 0.000e+00 1.613e-02 0.000e+00 0.000e+00 1.519e-02 0.000e+00 0.000e+00 1.425e-02 0.000e+00 0.000e+00 1.332e-02 0.000e+00 0.000e+00 1.238e-02 0.000e+00 0.000e+00 5.145e-02 2.250e-02 0.000e+00 0.000e+00 0.000e+00 1.144e-02 0.000e+00 0.000e+00 1.050e-02 0.000e+00 0.000e+00 9.566e-03 0.000e+00 0.000e+00 8.629e-03 0.000e+00 0.000e+00 7.691e-03 0.000e+00 0.000e+00 6.754e-03 0.000e+00 5.816e-03 0.000e+00 0.000e+00 4.879e-03 0.000e+00 0.000e+00 3.941e-03 0.000e+00 0.000e+00 3.004e-03 0.000e+00 0.000e+00 5.108e-02 1.750e-02 0.000e+00 0.000e+00 2.066e-03 0.000e+00 0.000e+00 1.129e-03 0.000e+00 1.910e-04 0.000e+00 0.000e+00 0.000e+00 0.000e+00 0.000e+00 0.000e+00 0.000e+00 0.000e+00 0.000e+00 0.000e+00 0.000e+00 0.000e+00 0.000e+00 0.000e+00 0.000e+00 0.000e+00 0.000e+00 0.000e+00 0.000e+00 0.000e+00 5.070e-02 1.750e-02 0.000e+00 0.000e+00 0.000e+00 0.000e+00 0.000e+00 0.000e+00 0.000e+00 0.000e+00 0.000e+00 0.000e+00 0.000e+00 0.000e+00 0.000e+00 0.000e+00 0.000e+00 0.000e+00 0.000e+00 0.000e+00 0.000e+00 0.000e+00 0.000e+00 0.000e+00 0.000e+00 0.000e+00 0.000e+00 0.000e+00 0.000e+00 5.033e-02 1.250e-02 0.000e+00 0.000e+00 0.000e+00 0.000e+00 0.000e+00 0.000e+00 0.000e+00 0.000e+00 0.000e+00 0.000e+00 0.000e+00 0.000e+00 0.000e+00 0.000e+00 0.000e+00 0.000e+00 0.000e+00 0.000e+00 0.000e+00 0.000e+00 0.000e+00 0.000e+00 4.988e-02 1.250e-02 0.000e+00 0.000e+00 0.000e+00 0.000e+00 0.000e+00 0.000e+00 0.000e+00 0.000e+00 0.000e+00 0.000e+00 0.000e+00 0.000e+00 0.000e+00 0.000e+00 0.000e+00 0.000e+00 0.000e+00 0.000e+00 0.000e+00 0.000e+00 0.000e+00 8.833e-02 7.800e-02 7.300e-02 7.000e-02 6.700e-02 6.500e-02 6.300e-02 6.100e-02 5.900e-02 5.700e-02 5.500e-02 5.300e-02 5.100e-02 4.750e-02 4.250e-02 3.750e-02 3.250e-02 2.750e-02 2.250e-02 1.750e-02 1.250e-02 7.500e-03 2.500e-03 0.000e+00 0.000e+00 0.000e+00 0.000e+00 0.000e+00 0.000e+00 0.000e+00 0.000e+00 0.000e+00 0.000e+00 0.000e+00 0.000e+00 0.000e+00 0.000e+00 0.000e+00 5.333e-02 1.750e-02 0.000e+00 0.000e+00 5.295e-02 2.500e-02 0.000e+00 0.000e+00 4.894e-02 2.000e-02 0.000e+00 0.000e+00 0.000e+00 0.000e+00 0.000e+00 0.000e+00 0.000e+00 0.000e+00 0.000e+00 0.000e+00 0.000e+00 0.000e+00 0.000e+00 0.000e+00 0.000e+00 4.800e-02 1.250e-02 0.000e+00 0.000e+00 0.000e+00 0.000e+00 0.000e+00 0.000e+00 0.000e+00 0.000e+00 0.000e+00 0.000e+00 0.000e+00 0.000e+00 4.707e-02 2.000e-02 0.000e+00 0.000e+00 0.000e+00 0.000e+00 0.000e+00 0.000e+00 0.000e+00 0.000e+00 0.000e+00 0.000e+00 0.000e+00 0.000e+00 0.000e+00 4.613e-02 7.500e-03 0.000e+00 0.000e+00 0.000e+00 0.000e+00 0.000e+00 0.000e+00 0.000e+00 0.000e+00 0.000e+00 0.000e+00 0.000e+00 0.000e+00 4.519e-02 1.000e-02 0.000e+00 0.000e+00 0.000e+00 0.000e+00 0.000e+00 4.425e-02 1.250e-02 0.000e+00 0.000e+00 4.332e-02 0.000e+00 0.000e+00 4.238e-02 5.000e-03 0.000e+00 0.000e+00 4.144e-02 0.000e+00 0.000e+00 4.050e-02 2.500e-03 0.000e+00 5.258e-02 2.000e-02 0.000e+00 0.000e+00 3.957e-02 5.000e-03 0.000e+00 0.000e+00 3.863e-02 7.500e-03 0.000e+00 0.000e+00 3.769e-02 5.000e-03 0.000e+00 0.000e+00 3.675e-02 2.500e-03 0.000e+00 0.000e+00 3.582e-02 5.000e-03 0.000e+00 0.000e+00 3.488e-02 0.000e+00 0.000e+00 3.394e-02 0.000e+00 0.000e+00 0.000e+00 3.300e-02 2.500e-03 0.000e+00 0.000e+00 3.207e-02 0.000e+00 0.000e+00 3.113e-02 0.000e+00 0.000e+00 5.220e-02 2.250e-02 0.000e+00 0.000e+00 3.019e-02 0.000e+00 0.000e+00 0.000e+00 2.925e-02 0.000e+00 0.000e+00 0.000e+00 2.832e-02 0.000e+00 0.000e+00 0.000e+00 2.738e-02 0.000e+00 0.000e+00 2.644e-02 0.000e+00 0.000e+00 0.000e+00 2.550e-02 0.000e+00 0.000e+00 2.457e-02 0.000e+00 0.000e+00 2.363e-02 0.000e+00 0.000e+00 2.269e-02 0.000e+00 0.000e+00 2.175e-02 0.000e+00 0.000e+00 5.183e-02 1.250e-02 0.000e+00 2.082e-02 0.000e+00 0.000e+00 0.000e+00 1.988e-02 0.000e+00 0.000e+00 0.000e+00 1.894e-02 0.000e+00 0.000e+00 1.800e-02 0.000e+00 0.000e+00 1.707e-02 0.000e+00 0.000e+00 1.613e-02 0.000e+00 0.000e+00 1.519e-02 0.000e+00 0.000e+00 1.425e-02 0.000e+00 0.000e+00 1.332e-02 0.000e+00 0.000e+00 1.238e-02 0.000e+00 0.000e+00 5.145e-02 1.250e-02 0.000e+00 1.144e-02 0.000e+00 0.000e+00 1.050e-02 0.000e+00 0.000e+00 9.566e-03 0.000e+00 0.000e+00 8.629e-03 0.000e+00 0.000e+00 7.691e-03 0.000e+00 0.000e+00 6.754e-03 0.000e+00 0.000e+00 5.816e-03 0.000e+00 0.000e+00 4.879e-03 0.000e+00 0.000e+00 3.941e-03 0.000e+00 3.004e-03 0.000e+00 0.000e+00 5.108e-02 2.250e-02 0.000e+00 0.000e+00 2.066e-03 0.000e+00 0.000e+00 1.129e-03 0.000e+00 0.000e+00 1.910e-04 0.000e+00 0.000e+00 0.000e+00 0.000e+00 0.000e+00 0.000e+00 0.000e+00 0.000e+00 0.000e+00 0.000e+00 0.000e+00 0.000e+00 0.000e+00 0.000e+00 0.000e+00 0.000e+00 0.000e+00 0.000e+00 0.000e+00 0.000e+00 0.000e+00 5.070e-02 1.500e-02 0.000e+00 0.000e+00 0.000e+00 0.000e+00 0.000e+00 0.000e+00 0.000e+00 0.000e+00 0.000e+00 0.000e+00 0.000e+00 0.000e+00 0.000e+00 0.000e+00 0.000e+00 0.000e+00 0.000e+00 0.000e+00 0.000e+00 0.000e+00 0.000e+00 0.000e+00 0.000e+00 0.000e+00 0.000e+00 0.000e+00 5.033e-02 2.250e-02 0.000e+00 0.000e+00 0.000e+00 0.000e+00 0.000e+00 0.000e+00 0.000e+00 0.000e+00 0.000e+00 0.000e+00 0.000e+00 0.000e+00 0.000e+00 0.000e+00 0.000e+00 0.000e+00 0.000e+00 0.000e+00 0.000e+00 0.000e+00 0.000e+00 0.000e+00 0.000e+00 4.988e-02 2.000e-02 0.000e+00 0.000e+00 0.000e+00 0.000e+00 0.000e+00 0.000e+00 0.000e+00 0.000e+00 0.000e+00 0.000e+00 0.000e+00 0.000e+00 0.000e+00 0.000e+00 0.000e+00 0.000e+00 0.000e+00 0.000e+00 0.000e+00 0.000e+00 0.000e+00 0.000e+00 8.833e-02 7.800e-02 7.300e-02 7.000e-02 6.700e-02 6.500e-02 6.300e-02 6.100e-02 5.900e-02 5.700e-02 5.500e-02 5.300e-02 5.100e-02 4.750e-02 4.250e-02 3.750e-02 3.250e-02 2.750e-02 2.250e-02 1.750e-02 1.250e-02 7.500e-03 2.500e-03 0.000e+00 0.000e+00 0.000e+00 0.000e+00 0.000e+00 0.000e+00 0.000e+00 0.000e+00 0.000e+00 0.000e+00 0.000e+00 0.000e+00 0.000e+00 0.000e+00 0.000e+00 0.000e+00 0.000e+00 0.000e+00 0.000e+00 0.000e+00 0.000e+00 0.000e+00 0.000e+00 0.000e+00 0.000e+00 0.000e+00 0.000e+00 0.000e+00 0.000e+00 0.000e+00 0.000e+00 0.000e+00 0.000e+00 0.000e+00 0.000e+00 0.000e+00 0.000e+00 0.000e+00 0.000e+00 0.000e+00 0.000e+00 0.000e+00 0.000e+00 0.000e+00 0.000e+00 0.000e+00 0.000e+00 0.000e+00 0.000e+00 0.000e+00 0.000e+00 0.000e+00 0.000e+00 0.000e+00 0.000e+00 0.000e+00 0.000e+00 0.000e+00 0.000e+00 0.000e+00 0.000e+00 0.000e+00 0.000e+00 0.000e+00 0.000e+00 0.000e+00 0.000e+00 0.000e+00 0.000e+00 0.000e+00 0.000e+00 0.000e+00 0.000e+00 0.000e+00 0.000e+00 0.000e+00 0.000e+00 0.000e+00 0.000e+00 0.000e+00 0.000e+00 0.000e+00 0.000e+00 0.000e+00 0.000e+00 0.000e+00 0.000e+00 0.000e+00 0.000e+00 0.000e+00 0.000e+00 0.000e+00 0.000e+00 0.000e+00 0.000e+00 0.000e+00 0.000e+00 0.000e+00 0.000e+00 0.000e+00 0.000e+00 0.000e+00 0.000e+00 0.000e+00 0.000e+00 0.000e+00 0.000e+00 0.000e+00 0.000e+00 0.000e+00 0.000e+00 0.000e+00 0.000e+00 0.000e+00 0.000e+00 0.000e+00 0.000e+00 0.000e+00 0.000e+00 0.000e+00 0.000e+00 0.000e+00 0.000e+00 0.000e+00 0.000e+00 6.750e-02 5.700e-02 5.200e-02 4.750e-02 4.000e-02 3.500e-02 3.000e-02 2.500e-02 2.000e-02 1.500e-02 1.000e-02 5.000e-03 0.000e+00 0.000e+00 0.000e+00 0.000e+00 0.000e+00 0.000e+00 0.000e+00 0.000e+00 0.000e+00 0.000e+00 0.000e+00 0.000e+00 0.000e+00 0.000e+00 0.000e+00 0.000e+00 0.000e+00 0.000e+00 0.000e+00 0.000e+00 0.000e+00 0.000e+00 0.000e+00 0.000e+00 0.000e+00 0.000e+00 0.000e+00 0.000e+00 0.000e+00 0.000e+00 0.000e+00 0.000e+00 0.000e+00 0.000e+00 0.000e+00 0.000e+00 0.000e+00 0.000e+00 0.000e+00 0.000e+00 0.000e+00 0.000e+00 0.000e+00 0.000e+00 0.000e+00 0.000e+00 0.000e+00 0.000e+00 0.000e+00 0.000e+00 0.000e+00 0.000e+00 0.000e+00 0.000e+00 0.000e+00 0.000e+00 0.000e+00 0.000e+00 0.000e+00 0.000e+00 0.000e+00 0.000e+00 0.000e+00 0.000e+00 0.000e+00 0.000e+00 0.000e+00 0.000e+00 0.000e+00 0.000e+00 0.000e+00 0.000e+00 0.000e+00 0.000e+00 0.000e+00 0.000e+00 0.000e+00 0.000e+00 0.000e+00 0.000e+00 0.000e+00 0.000e+00 0.000e+00 0.000e+00 0.000e+00 0.000e+00 0.000e+00 0.000e+00 0.000e+00 0.000e+00 0.000e+00 0.000e+00 0.000e+00 0.000e+00 0.000e+00 0.000e+00 0.000e+00 0.000e+00 0.000e+00 0.000e+00 0.000e+00 0.000e+00 0.000e+00 0.000e+00 0.000e+00 0.000e+00 0.000e+00 0.000e+00 0.000e+00 0.000e+00 0.000e+00 0.000e+00 0.000e+00 0.000e+00 0.000e+00 0.000e+00 0.000e+00 0.000e+00 0.000e+00 0.000e+00 0.000e+00 0.000e+00 0.000e+00 0.000e+00 0.000e+00 6.750e-02 5.700e-02 5.200e-02 4.750e-02 4.000e-02 3.500e-02 3.000e-02 2.500e-02 2.000e-02 1.500e-02 1.000e-02 5.000e-03 0.000e+00 0.000e+00 0.000e+00 0.000e+00 0.000e+00 0.000e+00 0.000e+00 0.000e+00 0.000e+00 0.000e+00 0.000e+00 0.000e+00 0.000e+00 0.000e+00 0.000e+00 0.000e+00 0.000e+00 0.000e+00 0.000e+00 0.000e+00 0.000e+00 0.000e+00 0.000e+00 0.000e+00 0.000e+00 0.000e+00 0.000e+00 0.000e+00 0.000e+00 0.000e+00 0.000e+00 0.000e+00 0.000e+00 0.000e+00 0.000e+00 0.000e+00 0.000e+00 0.000e+00 0.000e+00 0.000e+00 0.000e+00 0.000e+00 0.000e+00 0.000e+00 0.000e+00 0.000e+00 0.000e+00 0.000e+00 0.000e+00 0.000e+00 0.000e+00 0.000e+00 0.000e+00 0.000e+00 0.000e+00 0.000e+00 0.000e+00 0.000e+00 0.000e+00 0.000e+00 0.000e+00 0.000e+00 0.000e+00 0.000e+00 0.000e+00 0.000e+00 0.000e+00 0.000e+00 0.000e+00 0.000e+00 0.000e+00 0.000e+00 0.000e+00 0.000e+00 0.000e+00 0.000e+00 0.000e+00 0.000e+00 0.000e+00 0.000e+00 0.000e+00 0.000e+00 0.000e+00 0.000e+00 0.000e+00 0.000e+00 0.000e+00 0.000e+00 0.000e+00 0.000e+00 0.000e+00 0.000e+00 0.000e+00 0.000e+00 0.000e+00 0.000e+00 0.000e+00 0.000e+00 0.000e+00 0.000e+00 0.000e+00 0.000e+00 0.000e+00 0.000e+00 0.000e+00 0.000e+00 0.000e+00 0.000e+00 0.000e+00 0.000e+00 0.000e+00 0.000e+00 0.000e+00 0.000e+00 0.000e+00 0.000e+00 0.000e+00 0.000e+00 0.000e+00 0.000e+00 0.000e+00 0.000e+00 0.000e+00 0.000e+00 0.000e+00 0.000e+00 0.000e+00 6.750e-02 5.700e-02 5.200e-02 4.750e-02 4.000e-02 3.500e-02 3.000e-02 2.500e-02 2.000e-02 1.500e-02 1.000e-02 5.000e-03 0.000e+00 0.000e+00 0.000e+00 0.000e+00 0.000e+00 0.000e+00 0.000e+00 0.000e+00 0.000e+00 0.000e+00 0.000e+00 0.000e+00 0.000e+00 0.000e+00 0.000e+00 0.000e+00 0.000e+00 0.000e+00 0.000e+00 0.000e+00 0.000e+00 0.000e+00 0.000e+00 0.000e+00 0.000e+00 0.000e+00 0.000e+00 0.000e+00 0.000e+00 0.000e+00 0.000e+00 0.000e+00 0.000e+00 0.000e+00 0.000e+00 0.000e+00 0.000e+00 0.000e+00 0.000e+00 0.000e+00 0.000e+00 0.000e+00 0.000e+00 0.000e+00 0.000e+00 0.000e+00 0.000e+00 0.000e+00 0.000e+00 0.000e+00 0.000e+00 0.000e+00 0.000e+00 0.000e+00 0.000e+00 0.000e+00 0.000e+00 0.000e+00 0.000e+00 0.000e+00 0.000e+00 0.000e+00 0.000e+00 0.000e+00 0.000e+00 0.000e+00 0.000e+00 0.000e+00 0.000e+00 0.000e+00 0.000e+00 0.000e+00 0.000e+00 0.000e+00 0.000e+00 0.000e+00 0.000e+00 0.000e+00 0.000e+00 0.000e+00 0.000e+00 0.000e