<?xml version="1.0"?>
<VTKFile type="UnstructuredGrid" version="0.1" byte_order="LittleEndian">
   <UnstructuredGrid>
      <Piece NumberOfPoints="2540" NumberOfCells="178">
         <Points>
            <DataArray type="Float32" Name="Position" NumberOfComponents="3" format="ascii">
0.002	-4.967	-0.025
0.013	-4.960	-0.009
0.020	-4.964	0.011
0.019	-4.979	0.026
0.010	-4.997	0.032
-0.002	-5.013	0.025
-0.013	-5.020	0.009
-0.020	-5.016	-0.011
-0.018	-5.001	-0.026
-0.010	-4.983	-0.032
0.642	-5.337	-0.318
0.654	-5.330	-0.302
0.659	-5.334	-0.282
0.656	-5.347	-0.266
0.646	-5.365	-0.259
0.632	-5.379	-0.265
0.621	-5.386	-0.281
0.615	-5.382	-0.301
0.618	-5.369	-0.317
0.628	-5.351	-0.324
1.256	-5.925	-0.573
1.269	-5.920	-0.557
1.273	-5.924	-0.537
1.268	-5.935	-0.520
1.254	-5.949	-0.513
1.238	-5.961	-0.519
1.225	-5.966	-0.534
1.220	-5.962	-0.555
1.226	-5.951	-0.572
1.240	-5.937	-0.579
1.638	-6.471	-0.751
1.651	-6.467	-0.735
1.655	-6.470	-0.714
1.647	-6.480	-0.697
1.632	-6.492	-0.690
1.614	-6.502	-0.695
1.601	-6.506	-0.711
1.597	-6.502	-0.732
1.605	-6.493	-0.749
1.620	-6.481	-0.756
2.041	-7.152	-0.911
2.053	-7.148	-0.895
2.055	-7.151	-0.874
2.046	-7.159	-0.857
2.029	-7.169	-0.850
2.011	-7.178	-0.855
1.998	-7.181	-0.872
1.996	-7.179	-0.893
2.005	-7.170	-0.910
2.022	-7.160	-0.917
2.299	-7.691	-0.985
2.311	-7.688	-0.968
2.312	-7.689	-0.947
2.302	-7.696	-0.930
2.284	-7.705	-0.924
2.265	-7.712	-0.930
2.253	-7.716	-0.947
2.252	-7.714	-0.968
2.263	-7.708	-0.985
2.281	-7.699	-0.991
2.556	-8.291	-1.032
2.568	-8.288	-1.015
2.569	-8.289	-0.994
2.558	-8.295	-0.977
2.539	-8.303	-0.971
2.520	-8.309	-0.978
2.508	-8.312	-0.995
2.508	-8.311	-1.016
2.519	-8.305	-1.033
2.538	-8.297	-1.039
2.784	-8.956	-1.093
2.796	-8.953	-1.076
2.796	-8.955	-1.055
2.784	-8.960	-1.038
2.765	-8.967	-1.032
2.746	-8.972	-1.039
2.734	-8.975	-1.056
2.734	-8.973	-1.077
2.746	-8.968	-1.094
2.765	-8.962	-1.100
2.851	-9.294	-1.089
2.870	-9.285	-1.089
2.890	-9.288	-1.089
2.905	-9.303	-1.089
2.909	-9.324	-1.089
2.899	-9.343	-1.089
2.880	-9.352	-1.089
2.860	-9.349	-1.089
2.845	-9.334	-1.089
2.841	-9.313	-1.089
-0.025	-4.967	0.002
-0.009	-4.958	-0.009
0.011	-4.962	-0.016
0.026	-4.976	-0.017
0.032	-4.996	-0.012
0.025	-5.013	-0.002
0.009	-5.022	0.009
-0.011	-5.018	0.016
-0.026	-5.004	0.017
-0.031	-4.984	0.011
-0.316	-5.230	-0.690
-0.298	-5.227	-0.700
-0.279	-5.236	-0.703
-0.267	-5.252	-0.699
-0.266	-5.271	-0.688
-0.277	-5.284	-0.676
-0.295	-5.286	-0.666
-0.314	-5.278	-0.662
-0.326	-5.261	-0.667
-0.327	-5.243	-0.677
-0.612	-5.765	-1.334
-0.594	-5.765	-1.343
-0.575	-5.774	-1.344
-0.563	-5.789	-1.335
-0.562	-5.804	-1.321
-0.574	-5.813	-1.306
-0.592	-5.813	-1.296
-0.611	-5.804	-1.295
-0.623	-5.789	-1.304
-0.624	-5.774	-1.319
-0.839	-6.255	-1.763
-0.819	-6.259	-1.767
-0.802	-6.270	-1.762
-0.795	-6.284	-1.748
-0.800	-6.296	-1.732
-0.816	-6.301	-1.718
-0.836	-6.297	-1.713
-0.853	-6.286	-1.719
-0.860	-6.272	-1.732
-0.855	-6.260	-1.749
-1.039	-6.870	-2.243
-1.018	-6.873	-2.246
-1.001	-6.883	-2.239
-0.994	-6.896	-2.225
-1.000	-6.907	-2.208
-1.016	-6.912	-2.195
-1.036	-6.909	-2.192
-1.053	-6.899	-2.199
-1.060	-6.886	-2.214
-1.055	-6.875	-2.231
-1.146	-7.347	-2.596
-1.125	-7.350	-2.597
-1.109	-7.360	-2.588
-1.103	-7.372	-2.572
-1.110	-7.382	-2.555
-1.127	-7.386	-2.543
-1.148	-7.382	-2.542
-1.164	-7.373	-2.551
-1.170	-7.361	-2.567
-1.163	-7.351	-2.584
-1.250	-7.898	-2.932
-1.229	-7.902	-2.932
-1.214	-7.911	-2.921
-1.209	-7.922	-2.904
-1.218	-7.931	-2.887
-1.236	-7.934	-2.876
-1.256	-7.930	-2.877
-1.272	-7.921	-2.887
-1.276	-7.910	-2.905
-1.268	-7.901	-2.922
-1.340	-8.504	-3.283
-1.320	-8.508	-3.282
-1.305	-8.516	-3.270
-1.301	-8.527	-3.253
-1.310	-8.535	-3.235
-1.328	-8.538	-3.225
-1.349	-8.534	-3.226
-1.364	-8.525	-3.238
-1.368	-8.515	-3.256
-1.359	-8.507	-3.273
-1.386	-8.820	-3.454
-1.386	-8.811	-3.436
-1.386	-8.814	-3.415
-1.386	-8.829	-3.400
-1.386	-8.849	-3.397
-1.386	-8.868	-3.406
-1.386	-8.878	-3.425
-1.386	-8.874	-3.446
-1.386	-8.860	-3.460
-1.386	-8.839	-3.464
0.021	-5.016	0.006
0.022	-5.004	0.022
0.015	-4.986	0.030
0.002	-4.969	0.027
-0.012	-4.961	0.013
-0.021	-4.964	-0.006
-0.022	-4.976	-0.022
-0.014	-4.994	-0.030
-0.002	-5.011	-0.027
0.012	-5.019	-0.013
-0.567	-5.406	0.341
-0.566	-5.396	0.359
-0.575	-5.380	0.370
-0.589	-5.365	0.369
-0.604	-5.356	0.357
-0.613	-5.357	0.338
-0.614	-5.367	0.320
-0.605	-5.383	0.309
-0.591	-5.399	0.310
-0.576	-5.407	0.322
-1.099	-6.049	0.611
-1.098	-6.042	0.630
-1.107	-6.029	0.644
-1.123	-6.016	0.647
-1.140	-6.007	0.638
-1.151	-6.006	0.620
-1.152	-6.014	0.600
-1.143	-6.027	0.586
-1.127	-6.040	0.584
-1.110	-6.048	0.593
-1.459	-6.586	0.833
-1.456	-6.579	0.853
-1.465	-6.567	0.868
-1.482	-6.555	0.873
-1.500	-6.547	0.865
-1.512	-6.547	0.848
-1.515	-6.554	0.828
-1.506	-6.565	0.813
-1.489	-6.577	0.809
-1.471	-6.585	0.816
-1.820	-7.250	1.096
-1.817	-7.244	1.116
-1.826	-7.234	1.133
-1.843	-7.223	1.139
-1.861	-7.216	1.132
-1.874	-7.215	1.116
-1.877	-7.220	1.096
-1.868	-7.230	1.079
-1.851	-7.241	1.073
-1.833	-7.249	1.080
-2.084	-7.767	1.239
-2.081	-7.763	1.260
-2.090	-7.755	1.277
-2.107	-7.745	1.284
-2.126	-7.738	1.279
-2.139	-7.735	1.263
-2.142	-7.739	1.243
-2.133	-7.748	1.225
-2.116	-7.757	1.218
-2.097	-7.765	1.223
-2.330	-8.354	1.371
-2.326	-8.351	1.392
-2.334	-8.344	1.410
-2.351	-8.336	1.418
-2.371	-8.329	1.414
-2.385	-8.326	1.399
-2.389	-8.329	1.378
-2.381	-8.337	1.360
-2.363	-8.345	1.352
-2.344	-8.352	1.356
-2.571	-9.000	1.507
-2.566	-8.997	1.527
-2.574	-8.991	1.546
-2.591	-8.983	1.555
-2.611	-8.977	1.552
-2.626	-8.975	1.537
-2.631	-8.978	1.517
-2.623	-8.984	1.499
-2.606	-8.992	1.489
-2.586	-8.998	1.492
-2.676	-9.348	1.579
-2.671	-9.345	1.600
-2.679	-9.339	1.618
-2.696	-9.332	1.628
-2.716	-9.326	1.625
-2.731	-9.325	1.611
-2.736	-9.327	1.591
-2.729	-9.334	1.572
-2.711	-9.341	1.563
-2.691	-9.346	1.565
0.027	-4.996	-0.020
0.029	-4.977	-0.012
0.021	-4.963	0.001
0.004	-4.959	0.014
-0.014	-4.967	0.021
-0.027	-4.984	0.020
-0.029	-5.003	0.012
-0.021	-5.017	-0.001
-0.004	-5.021	-0.014
0.014	-5.013	-0.021
0.410	-5.318	0.587
0.413	-5.300	0.598
0.405	-5.287	0.613
0.389	-5.285	0.626
0.371	-5.293	0.633
0.358	-5.309	0.631
0.355	-5.327	0.620
0.363	-5.340	0.605
0.379	-5.343	0.592
0.397	-5.334	0.585
0.863	-5.842	1.131
0.867	-5.827	1.145
0.861	-5.817	1.162
0.845	-5.815	1.176
0.827	-5.823	1.182
0.812	-5.838	1.177
0.808	-5.853	1.163
0.814	-5.864	1.146
0.830	-5.865	1.132
0.848	-5.857	1.126
1.156	-6.336	1.502
1.163	-6.323	1.517
1.157	-6.314	1.536
1.142	-6.314	1.550
1.123	-6.321	1.555
1.107	-6.334	1.549
1.101	-6.347	1.534
1.107	-6.355	1.515
1.122	-6.356	1.501
1.141	-6.349	1.496
1.490	-6.981	1.840
1.497	-6.970	1.857
1.492	-6.963	1.876
1.478	-6.963	1.891
1.458	-6.971	1.896
1.442	-6.982	1.889
1.435	-6.993	1.873
1.439	-6.999	1.853
1.454	-6.999	1.838
1.473	-6.992	1.833
1.729	-7.494	2.036
1.737	-7.485	2.053
1.733	-7.479	2.073
1.719	-7.480	2.088
1.699	-7.487	2.093
1.682	-7.497	2.085
1.674	-7.506	2.068
1.678	-7.512	2.048
1.693	-7.511	2.033
1.712	-7.504	2.028
1.962	-8.077	2.215
1.971	-8.069	2.233
1.967	-8.064	2.253
1.953	-8.065	2.268
1.933	-8.070	2.273
1.915	-8.079	2.264
1.907	-8.087	2.247
1.911	-8.091	2.227
1.925	-8.091	2.212
1.945	-8.085	2.207
2.149	-8.732	2.400
2.158	-8.725	2.418
2.154	-8.720	2.438
2.139	-8.720	2.453
2.119	-8.724	2.457
2.101	-8.731	2.448
2.093	-8.739	2.430
2.096	-8.743	2.410
2.111	-8.743	2.395
2.132	-8.739	2.391
2.236	-9.104	2.521
2.246	-9.085	2.521
2.242	-9.065	2.521
2.228	-9.050	2.521
2.207	-9.046	2.521
2.188	-9.056	2.521
2.179	-9.075	2.521
2.182	-9.095	2.521
2.197	-9.110	2.521
2.217	-9.114	2.521
-0.001	-4.674	-0.024
0.009	-4.667	-0.007
0.017	-4.672	0.012
0.019	-4.688	0.026
0.015	-4.709	0.029
0.007	-4.726	0.020
-0.003	-4.733	0.003
-0.011	-4.728	-0.016
-0.013	-4.712	-0.029
-0.009	-4.691	-0.032
0.386	-4.773	-0.206
0.396	-4.765	-0.189
0.403	-4.770	-0.171
0.406	-4.786	-0.157
0.402	-4.807	-0.154
0.394	-4.824	-0.163
0.384	-4.831	-0.180
0.376	-4.826	-0.199
0.374	-4.810	-0.212
0.378	-4.790	-0.215
-0.024	-4.680	0.004
-0.008	-4.668	-0.003
0.012	-4.668	-0.010
0.028	-4.681	-0.014
0.035	-4.701	-0.013
0.030	-4.720	-0.008
0.014	-4.732	-0.001
-0.006	-4.732	0.006
-0.022	-4.719	0.010
-0.029	-4.699	0.010
-0.172	-4.746	-0.404
-0.157	-4.735	-0.412
-0.137	-4.735	-0.419
-0.120	-4.747	-0.423
-0.114	-4.767	-0.422
-0.119	-4.787	-0.417
-0.135	-4.799	-0.410
-0.154	-4.798	-0.402
-0.171	-4.786	-0.399
-0.178	-4.766	-0.399
0.015	-4.728	0.014
0.016	-4.711	0.027
0.013	-4.691	0.029
0.005	-4.674	0.020
-0.003	-4.667	0.002
-0.009	-4.672	-0.018
-0.010	-4.689	-0.031
-0.007	-4.709	-0.033
0.001	-4.726	-0.023
0.009	-4.733	-0.005
-0.389	-4.814	0.164
-0.387	-4.798	0.177
-0.391	-4.778	0.179
-0.398	-4.761	0.170
-0.406	-4.753	0.152
-0.412	-4.759	0.132
-0.414	-4.775	0.119
-0.410	-4.796	0.117
-0.403	-4.813	0.127
-0.395	-4.820	0.145
0.031	-4.716	-0.014
0.035	-4.695	-0.012
0.027	-4.676	-0.007
0.010	-4.667	0.001
-0.010	-4.670	0.007
-0.025	-4.684	0.010
-0.029	-4.705	0.009
-0.021	-4.724	0.003
-0.004	-4.733	-0.004
0.016	-4.730	-0.011
0.124	-4.761	0.433
0.143	-4.761	0.443
0.164	-4.761	0.440
0.179	-4.761	0.425
0.182	-4.761	0.404
0.172	-4.761	0.385
0.154	-4.761	0.376
0.133	-4.761	0.379
0.118	-4.761	0.394
0.115	-4.761	0.415
-0.153	-4.999	0.151
-0.034	-5.000	0.212
0.097	-5.001	0.192
0.191	-5.001	0.098
0.212	-5.002	-0.033
0.153	-5.001	-0.151
0.034	-5.000	-0.212
-0.097	-4.999	-0.192
-0.191	-4.999	-0.098
-0.212	-4.998	0.033
-0.145	-4.250	0.149
-0.028	-4.250	0.209
0.102	-4.251	0.189
0.195	-4.251	0.096
0.215	-4.251	-0.034
0.156	-4.250	-0.151
0.039	-4.250	-0.210
-0.091	-4.249	-0.190
-0.183	-4.249	-0.097
-0.204	-4.249	0.032
-0.143	-3.290	0.152
-0.027	-3.290	0.211
0.101	-3.291	0.191
0.193	-3.290	0.099
0.214	-3.290	-0.030
0.154	-3.290	-0.146
0.038	-3.290	-0.205
-0.090	-3.290	-0.184
-0.182	-3.290	-0.092
-0.202	-3.290	0.036
-0.141	-2.400	0.151
-0.026	-2.400	0.210
0.102	-2.400	0.190
0.193	-2.400	0.099
0.214	-2.400	-0.029
0.155	-2.400	-0.144
0.040	-2.400	-0.203
-0.088	-2.400	-0.183
-0.179	-2.400	-0.092
-0.200	-2.400	0.036
-0.140	-1.800	0.150
-0.025	-1.800	0.208
0.102	-1.800	0.188
0.193	-1.800	0.097
0.214	-1.800	-0.030
[...]
         <CellData>
           <DataArray type="Float32" Name="aerenchymaFormation" NumberOfComponents="1" format="ascii">
 0.000e+00 0.000e+00 0.000e+00 0.000e+00 0.000e+00 0.000e+00 0.000e+00 0.000e+00 0.000e+00 0.000e+00 0.000e+00 0.000e+00 0.000e+00 0.000e+00 0.000e+00 0.000e+00 0.000e+00 0.000e+00 0.000e+00 0.000e+00 0.000e+00 0.000e+00 0.000e+00 0.000e+00 0.000e+00 0.000e+00 0.000e+00 0.000e+00 0.000e+00 0.000e+00 0.000e+00 0.000e+00 0.000e+00 0.000e+00 0.000e+00 0.000e+00 0.000e+00 0.000e+00 0.000e+00 0.000e+00 0.000e+00 0.000e+00 0.000e+00 0.000e+00 0.000e+00 0.000e+00 0.000e+00 0.000e+00 0.000e+00 0.000e+00 0.000e+00 0.000e+00 0.000e+00 0.000e+00 0.000e+00 0.000e+00 0.000e+00 0.000e+00 0.000e+00 0.000e+00 0.000e+00 0.000e+00 0.000e+00 0.000e+00 0.000e+00 0.000e+00 0.000e+00 0.000e+00 0.000e+00 0.000e+00 0.000e+00 0.000e+00 0.000e+00 0.000e+00 0.000e+00 0.000e+00 0.000e+00 0.000e+00 0.000e+00 0.000e+00 0.000e+00 0.000e+00 0.000e+00 0.000e+00 0.000e+00 0.000e+00 0.000e+00 0.000e+00 0.000e+00 0.000e+00 0.000e+00 0.000e+00 0.000e+00 0.000e+00 0.000e+00 0.000e+00 0.000e+00 0.000e+00 0.000e+00 0.000e+00 0.000e+00 0.000e+00 0.000e+00 0.000e+00 0.000e+00 0.000e+00 0.000e+00 0.000e+00 0.000e+00 0.000e+00 0.000e+00 0.000e+00 0.000e+00 0.000e+00 0.000e+00 0.000e+00 0.000e+00 0.000e+00 0.000e+00 0.000e+00 0.000e+00 0.000e+00 0.000e+00 0.000e+00 0.000e+00 0.000e+00 0.000e+00 0.000e+00 0.000e+00 0.000e+00 0.000e+00 0.000e+00 0.000e+00 0.000e+00 0.000e+00 0.000e+00 0.000e+00 0.000e+00 0.000e+00 0.000e+00 0.000e+00 0.000e+00 0.000e+00 0.000e+00 0.000e+00 0.000e+00 0.000e+00 0.000e+00 0.000e+00 0.000e+00 0.000e+00 0.000e+00 0.000e+00 0.000e+00 0.000e+00 7.000e-02 6.700e-02 6.400e-02 6.100e-02 5.800e-02 5.500e-02 5.100e-02 4.500e-02 3.750e-02 2.750e-02 2.000e-02 1.250e-02 2.500e-03 0.000e+00 0.000e+00 0.000e+00 0.000e+00 0.000e+00 0.000e+00 0.000e+00 0.000e+00 0.000e+00 0.000e+00
           </DataArray>
           <DataArray type="Float32" Name="combinedRootClassID" NumberOfComponents="1" format="ascii">
 -5.000e+00 -5.000e+00 -5.000e+00 -5.000e+00 -5.000e+00 -5.000e+00 -5.000e+00 -5.000e+00 -5.000e+00 -5.000e+00 -5.000e+00 -5.000e+00 -5.000e+00 -5.000e+00 -5.000e+00 -5.000e+00 -5.000e+00 -5.000e+00 -5.000e+00 -5.000e+00 -5.000e+00 -5.000e+00 -5.000e+00 -5.000e+00 -5.000e+00 -5.000e+00 -5.000e+00 -5.000e+00 -5.000e+00 -5.000e+00 -5.000e+00 -5.000e+00 -1.100e+01 -1.100e+01 -1.100e+01 -1.100e+01 -2.000e+00 -2.000e+00 -2.000e+00 -2.000e+00 -2.000e+00 -2.000e+00 -2.000e+00 -2.000e+00 -2.000e+00 -2.000e+00 -7.000e+00 -7.000e+00 -7.000e+00 -7.000e+00 -7.000e+00 -7.000e+00 -7.000e+00 -7.000e+00 -7.000e+00 -7.000e+00 -7.000e+00 -7.000e+00 -7.000e+00 -7.000e+00 -7.000e+00 -7.000e+00 -7.000e+00 -7.000e+00 -7.000e+00 -7.000e+00 -7.000e+00 -7.000e+00 -7.000e+00 -7.000e+00 -7.000e+00 -7.000e+00 -7.000e+00 -7.000e+00 -7.000e+00 -7.000e+00 -7.000e+00 -7.000e+00 -7.000e+00 -7.000e+00 -7.000e+00 -7.000e+00 -7.000e+00 -7.000e+00 -7.000e+00 -7.000e+00 -7.000e+00 -7.000e+00 -7.000e+00 -7.000e+00 -7.000e+00 -7.000e+00 -7.000e+00 -7.000e+00 -7.000e+00 -7.000e+00 -7.000e+00 -7.000e+00 -7.000e+00 -7.000e+00 -7.000e+00 -7.000e+00 -7.000e+00 -7.000e+00 -7.000e+00 -7.000e+00 -7.000e+00 -7.000e+00 -7.000e+00 -7.000e+00 -7.000e+00 -7.000e+00 -7.000e+00 -7.000e+00 -7.000e+00 -7.000e+00 -7.000e+00 -7.000e+00 -7.000e+00 -7.000e+00 -7.000e+00 -7.000e+00 -7.000e+00 -7.000e+00 -7.000e+00 -7.000e+00 -7.000e+00 -7.000e+00 -7.000e+00 -7.000e+00 -7.000e+00 -7.000e+00 -7.000e+00 -7.000e+00 -7.000e+00 -7.000e+00 -7.000e+00 -7.000e+00 -7.000e+00 -7.000e+00 -7.000e+00 -7.000e+00 -7.000e+00 -7.000e+00 -7.000e+00 -7.000e+00 -7.000e+00 -7.000e+00 -7.000e+00 -7.000e+00 -7.000e+00 -7.000e+00 -9.000e+00 -9.000e+00 -9.000e+00 -4.000e+00 -4.000e+00 -4.000e+00 -4.000e+00 -4.000e+00 -4.000e+00 -4.000e+00 -4.000e+00 -4.000e+00 -4.000e+00 -4.000e+00 -4.000e+00 -4.000e+00 -4.000e+00 -4.000e+00 -4.000e+00 -4.000e+00 -4.000e+00 -4.000e+00 -4.000e+00 -4.000e+00 -4.000e+00 -4.000e+00
           </DataArray>
           <DataArray type="Float32" Name="nitrate/Cmin" NumberOfComponents="1" format="ascii">
 1.000e-03 1.000e-03 1.000e-03 1.000e-03 1.000e-03 1.000e-03 1.000e-03 1.000e-03 1.000e-03 1.000e-03 1.000e-03 1.000e-03 1.000e-03 1.000e-03 1.000e-03 1.000e-03 1.000e-03 1.000e-03 1.000e-03 1.000e-03 1.000e-03 1.000e-03 1.000e-03 1.000e-03 1.000e-03 1.000e-03 1.000e-03 1.000e-03 1.000e-03 1.000e-03 1.000e-03 1.000e-03 1.000e-03 1.000e-03 1.000e-03 1.000e-03 1.000e-03 1.000e-03 1.000e-03 1.000e-03 1.000e-03 1.000e-03 1.000e-03 1.000e-03 1.000e-03 1.000e-03 1.000e-03 1.000e-03 1.000e-03 1.000e-03 1.000e-03 1.000e-03 1.000e-03 1.000e-03 1.000e-03 1.000e-03 1.000e-03 1.000e-03 1.000e-03 1.000e-03 1.000e-03 1.000e-03 1.000e-03 1.000e-03 1.000e-03 1.000e-03 1.000e-03 1.000e-03 1.000e-03 1.000e-03 1.000e-03 1.000e-03 1.000e-03 1.000e-03 1.000e-03 1.000e-03 1.000e-03 1.000e-03 1.000e-03 1.000e-03 1.000e-03 1.000e-03 1.000e-03 1.000e-03 1.000e-03 1.000e-03 1.000e-03 1.000e-03 1.000e-03 1.000e-03 1.000e-03 1.000e-03 1.000e-03 1.000e-03 1.000e-03 1.000e-03 1.000e-03 1.000e-03 1.000e-03 1.000e-03 1.000e-03 1.000e-03 1.000e-03 1.000e-03 1.000e-03 1.000e-03 1.000e-03 1.000e-03 1.000e-03 1.000e-03 1.000e-03 1.000e-03 1.000e-03 1.000e-03 1.000e-03 1.000e-03 1.000e-03 1.000e-03 1.000e-03 1.000e-03 1.000e-03 1.000e-03 1.000e-03 1.000e-03 1.000e-03 1.000e-03 1.000e-03 1.000e-03 1.000e-03 1.000e-03 1.000e-03 1.000e-03 1.000e-03 1.000e-03 1.000e-03 1.000e-03 1.000e-03 1.000e-03 1.000e-03 1.000e-03 1.000e-03 1.000e-03 1.000e-03 1.000e-03 1.000e-03 1.000e-03 1.000e-03 1.000e-03 1.000e-03 1.000e-03 1.000e-03 1.000e-03 1.000e-03 1.000e-03 1.000e-03 1.000e-03 1.000e-03 1.000e-03 1.000e-03 1.000e-03 1.000e-03 1.000e-03 1.000e-03 1.000e-03 1.000e-03 1.000e-03 1.000e-03 1.000e-03 1.000e-03 1.000e-03 1.000e-03 1.000e-03 1.000e-03 1.000e-03 1.000e-03 1.000e-03 1.000e-03 1.000e-03
           </DataArray>
           <DataArray type="Float32" Name="nitrate/Imax" NumberOfComponents="1" format="ascii">
 1.900e+00 1.900e+00 1.900e+00 1.900e+00 1.900e+00 1.900e+00 1.900e+00 1.900e+00 1.900e+00 1.900e+00 1.900e+00 1.900e+00 1.900e+00 1.900e+00 1.900e+00 1.900e+00 1.900e+00 1.900e+00 1.900e+00 1.900e+00 1.900e+00 1.900e+00 1.900e+00 1.900e+00 1.900e+00 1.900e+00 1.900e+00 1.900e+00 1.900e+00 1.900e+00 1.900e+00 1.900e+00 1.900e+00 1.900e+00 1.900e+00 1.900e+00 1.900e+00 1.900e+00 1.900e+00 1.900e+00 1.900e+00 1.900e+00 1.900e+00 1.900e+00 1.900e+00 1.900e+00 1.900e+00 1.900e+00 1.900e+00 1.900e+00 1.900e+00 1.900e+00 1.900e+00 1.900e+00 1.900e+00 1.900e+00 1.900e+00 1.900e+00 1.900e+00 1.900e+00 1.900e+00 1.900e+00 1.900e+00 1.900e+00 1.900e+00 1.900e+00 1.900e+00 1.900e+00 1.900e+00 1.900e+00 1.900e+00 1.900e+00 1.900e+00 1.900e+00 1.900e+00 1.900e+00 1.900e+00 1.900e+00 1.900e+00 1.900e+00 1.900e+00 1.900e+00 1.900e+00 1.900e+00 1.900e+00 1.900e+00 1.900e+00 1.900e+00 1.900e+00 1.900e+00 1.900e+00 1.900e+00 1.900e+00 1.900e+00 1.900e+00 1.900e+00 1.900e+00 1.900e+00 1.900e+00 1.900e+00 1.900e+00 1.900e+00 1.900e+00 1.900e+00 1.900e+00 1.900e+00 1.900e+00 1.900e+00 1.900e+00 1.900e+00 1.900e+00 1.900e+00 1.900e+00 1.900e+00 1.900e+00 1.900e+00 1.900e+00 1.900e+00 1.900e+00 1.900e+00 1.900e+00 1.900e+00 1.900e+00 1.900e+00 1.900e+00 1.900e+00 1.900e+00 1.900e+00 1.900e+00 1.900e+00 1.900e+00 1.900e+00 1.900e+00 1.900e+00 1.900e+00 1.900e+00 1.900e+00 1.900e+00 1.900e+00 1.900e+00 1.900e+00 1.900e+00 1.900e+00 1.900e+00 1.900e+00 1.900e+00 1.900e+00 1.900e+00 1.900e+00 1.900e+00 1.900e+00 1.900e+00 1.900e+00 1.900e+00 1.900e+00 1.900e+00 1.900e+00 1.900e+00 1.900e+00 1.900e+00 1.900e+00 1.900e+00 1.900e+00 1.900e+00 1.900e+00 1.900e+00 1.900e+00 1.900e+00 1.900e+00 1.900e+00 1.900e+00 1.900e+00 1.900e+00 1.900e+00 1.900e+00 1.900e+00 1.900e+00 1.900e+00
           </DataArray>
           <DataArray type="Float32" Name="nitrate/Km" NumberOfComponents="1" format="ascii">
 1.610e-02 1.610e-02 1.610e-02 1.610e-02 1.610e-02 1.610e-02 1.610e-02 1.610e-02 1.610e-02 1.610e-02 1.610e-02 1.610e-02 1.610e-02 1.610e-02 1.610e-02 1.610e-02 1.610e-02 1.610e-02 1.610e-02 1.610e-02 1.610e-02 1.610e-02 1.610e-02 1.610e-02 1.610e-02 1.610e-02 1.610e-02 1.610e-02 1.610e-02 1.610e-02 1.610e-02 1.610e-02 1.610e-02 1.610e-02 1.610e-02 1.610e-02 1.610e-02 1.610e-02 1.610e-02 1.610e-02 1.610e-02 1.610e-02 1.610e-02 1.610e-02 1.610e-02 1.610e-02 1.610e-02 1.610e-02 1.610e-02 1.610e-02 1.610e-02 1.610e-02 1.610e-02 1.610e-02 1.610e-02 1.610e-02 1.610e-02 1.610e-02 1.610e-02 1.610e-02 1.610e-02 1.610e-02 1.610e-02 1.610e-02 1.610e-02 1.610e-02 1.610e-02 1.610e-02 1.610e-02 1.610e-02 1.610e-02 1.610e-02 1.610e-02 1.610e-02 1.610e-02 1.610e-02 1.610e-02 1.610e-02 1.610e-02 1.610e-02 1.610e-02 1.610e-02 1.610e-02 1.610e-02 1.610e-02 1.610e-02 1.610e-02 1.610e-02 1.610e-02 1.610e-02 1.610e-02 1.610e-02 1.610e-02 1.610e-02 1.610e-02 1.610e-02 1.610e-02 1.610e-02 1.610e-02 1.610e-02 1.610e-02 1.610e-02 1.610e-02 1.610e-02 1.610e-02 1.610e-02 1.610e-02 1.610e-02 1.610e-02 1.610e-02 1.610e-02 1.610e-02 1.610e-02 1.610e-02 1.610e-02 1.610e-02 1.610e-02 1.610e-02 1.610e-02 1.610e-02 1.610e-02 1.610e-02 1.610e-02 1.610e-02 1.610e-02 1.610e-02 1.610e-02 1.610e-02 1.610e-02 1.610e-02 1.610e-02 1.610e-02 1.610e-02 1.610e-02 1.610e-02 1.610e-02 1.610e-02 1.610e-02 1.610e-02 1.610e-02 1.610e-02 1.610e-02 1.610e-02 1.610e-02 1.610e-02 1.610e-02 1.610e-02 1.610e-02 1.610e-02 1.610e-02 1.610e-02 1.610e-02 1.610e-02 1.610e-02 1.610e-02 1.610e-02 1.610e-02 1.610e-02 1.610e-02 1.610e-02 1.610e-02 1.610e-02 1.610e-02 1.610e-02 1.610e-02 1.610e-02 1.610e-02 1.610e-02 1.610e-02 1.610e-02 1.610e-02 1.610e-02 1.610e-02 1.610e-02 1.610e-02 1.610e-02 1.610e-02 1.610e-02
           </DataArray>
           <DataArray type="Float32" Name="nitrate/minimalNutrientConcentration" NumberOfComponents="1" format="ascii">
 6.000e+02 6.000e+02 6.000e+02 6.000e+02 6.000e+02 6.000e+02 6.000e+02 6.000e+02 6.000e+02 6.000e+02 6.000e+02 6.000e+02 6.000e+02 6.000e+02 6.000e+02 6.000e+02 6.000e+02 6.000e+02 6.000e+02 6.000e+02 6.000e+02 6.000e+02 6.000e+02 6.000e+02 6.000e+02 6.000e+02 6.000e+02 6.000e+02 6.000e+02 6.000e+02 6.000e+02 6.000e+02 6.000e+02 6.000e+02 6.000e+02 6.000e+02 6.000e+02 6.000e+02 6.000e+02 6.000e+02 6.000e+02 6.000e+02 6.000e+02 6.000e+02 6.000e+02 6.000e+02 6.000e+02 6.000e+02 6.000e+02 6.000e+02 6.000e+02 6.000e+02 6.000e+02 6.000e+02 6.000e+02 6.000e+02 6.000e+02 6.000e+02 6.000e+02 6.000e+02 6.000e+02 6.000e+02 6.000e+02 6.000e+02 6.000e+02 6.000e+02 6.000e+02 6.000e+02 6.000e+02 6.000e+02 6.000e+02 6.000e+02 6.000e+02 6.000e+02 6.000e+02 6.000e+02 6.000e+02 6.000e+02 6.000e+02 6.000e+02 6.000e+02 6.000e+02 6.000e+02 6.000e+02 6.000e+02 6.000e+02 6.000e+02 6.000e+02 6.000e+02 6.000e+02 6.000e+02 6.000e+02 6.000e+02 6.000e+02 6.000e+02 6.000e+02 6.000e+02 6.000e+02 6.000e+02 6.000e+02 6.000e+02 6.000e+02 6.000e+02 6.000e+02 6.000e+02 6.000e+02 6.000e+02 6.000e+02 6.000e+02 6.000e+02 6.000e+02 6.000e+02 6.000e+02 6.000e+02 6.000e+02 6.000e+02 6.000e+02 6.000e+02 6.000e+02 6.000e+02 6.000e+02 6.000e+02 6.000e+02 6.000e+02 6.000e+02 6.000e+02 6.000e+02 6.000e+02 6.000e+02 6.000e+02 6.000e+02 6.000e+02 6.000e+02 6.000e+02 6.000e+02 6.000e+02 6.000e+02 6.000e+02 6.000e+02 6.000e+02 6.000e+02 6.000e+02 6.000e+02 6.000e+02 6.000e+02 6.000e+02 6.000e+02 6.000e+02 6.000e+02 6.000e+02 6.000e+02 6.000e+02 6.000e+02 6.000e+02 6.000e+02 6.000e+02 6.000e+02 6.000e+02 6.000e+02 6.000e+02 6.000e+02 6.000e+02 6.000e+02 6.000e+02 6.000e+02 6.000e+02 6.000e+02 6.000e+02 6.000e+02 6.000e+02 6.000e+02 6.000e+02 6.000e+02 6.000e+02 6.000e+02 6.000e+02 6.000e+02 6.000e+02
           </DataArray>
           <DataArray type="Float32" Name="nitrate/nutrientConcentrationAtTheRootSurface" NumberOfComponents="1" format="ascii">
 1.207e+00 1.288e+00 1.605e+00 1.794e+00 2.078e+00 2.239e+00 2.385e+00 2.358e+00 1.207e+00 1.264e+00 1.599e+00 1.737e+00 2.030e+00 2.166e+00 2.354e+00 2.449e+00 1.207e+00 1.280e+00 1.587e+00 1.800e+00 2.057e+00 2.234e+00 2.369e+00 2.484e+00 1.207e+00 1.241e+00 1.580e+00 1.788e+00 2.025e+00 2.214e+00 2.382e+00 2.494e+00 1.136e+00 1.136e+00 1.136e+00 1.136e+00 1.209e+00 1.049e+00 8.343e-01 6.350e-01 5.054e-01 4.183e-01 3.067e-01 0.000e+00 0.000e+00 0.000e+00 1.253e+00 1.302e+00 1.393e+00 1.266e+00 1.231e+00 1.383e+00 1.516e+00 1.627e+00 1.742e+00 1.531e+00 1.741e+00 1.552e+00 1.543e+00 1.579e+00 1.735e+00 1.611e+00 1.678e+00 1.642e+00 1.766e+00 1.670e+00 1.755e+00 1.692e+00 1.849e+00 1.717e+00 1.790e+00 1.763e+00 1.776e+00 1.283e+00 1.288e+00 1.610e+00 1.797e+00 1.776e+00 1.838e+00 1.851e+00 1.862e+00 2.050e+00 1.894e+00 1.981e+00 1.930e+00 2.076e+00 1.967e+00 2.002e+00 2.000e+00 2.094e+00 2.025e+00 2.106e+00 2.061e+00 2.221e+00 2.090e+00 2.207e+00 1.306e+00 1.438e+00 1.646e+00 2.119e+00 2.062e+00 2.144e+00 2.245e+00 2.172e+00 2.311e+00 2.200e+00 2.326e+00 2.234e+00 2.271e+00 2.303e+00 2.332e+00 2.352e+00 2.365e+00 1.330e+00 1.434e+00 1.692e+00 2.387e+00 2.404e+00 2.418e+00 2.445e+00 2.469e+00 2.492e+00 2.511e+00 2.528e+00 2.540e+00 2.549e+00 1.356e+00 1.466e+00 1.803e+00 2.568e+00 2.582e+00 2.602e+00 2.619e+00 2.638e+00 2.655e+00 2.669e+00 2.680e+00 2.689e+00 2.696e+00 1.378e+00 1.447e+00 1.674e+00 2.716e+00 2.731e+00 1.726e+00 1.262e+00 1.396e+00 1.361e+00 1.409e+00 1.479e+00 1.461e+00 1.594e+00 2.351e+00 2.405e+00 1.394e+00 1.209e+00 1.379e+00 1.584e+00 1.813e+00 2.031e+00 2.247e+00 2.464e+00 2.581e+00 2.689e+00 2.828e+00 2.932e+00 2.994e+00 3.110e+00 3.216e+00 3.313e+00 3.329e+00 3.421e+00 3.523e+00 3.583e+00 3.634e+00 3.672e+00 3.689e+00 3.693e+00
           </DataArray>
           <DataArray type="Float32" Name="nitrate/optimalNutrientConcentration" NumberOfComponents="1" format="ascii">
 1.200e+03 1.200e+03 1.200e+03 1.200e+03 1.200e+03 1.200e+03 1.200e+03 1.200e+03 1.200e+03 1.200e+03 1.200e+03 1.200e+03 1.200e+03 1.200e+03 1.200e+03 1.200e+03 1.200e+03 1.200e+03 1.200e+03 1.200e+03 1.200e+03 1.200e+03 1.200e+03 1.200e+03 1.200e+03 1.200e+03 1.200e+03 1.200e+03 1.200e+03 1.200e+03 1.200e+03 1.200e+03 1.200e+03 1.200e+03 1.200e+03 1.200e+03 1.200e+03 1.200e+03 1.200e+03 1.200e+03 1.200e+03 1.200e+03 1.200e+03 1.200e+03 1.200e+03 1.200e+03 1.200e+03 1.200e+03 1.200e+03 1.200e+03 1.200e+03 1.200e+03 1.200e+03 1.200e+03 1.200e+03 1.200e+03 1.200e+03 1.200e+03 1.200e+03 1.200e+03 1.200e+03 1.200e+03 1.200e+03 1.200e+03 1.200e+03 1.200e+03 1.200e+03 1.200e+03 1.200e+03 1.200e+03 1.200e+03 1.200e+03 1.200e+03 1.200e+03 1.200e+03 1.200e+03 1.200e+03 1.200e+03 1.200e+03 1.200e+03 1.200e+03 1.200e+03 1.200e+03 1.200e+03 1.200e+03 1.200e+03 1.200e+03 1.200e+03 1.200e+03 1.200e+03 1.200e+03 1.200e+03 1.200e+03 1.200e+03 1.200e+03 1.200e+03 1.200e+03 1.200e+03 1.200e+03 1.200e+03 1.200e+03 1.200e+03 1.200e+03 1.200e+03 1.200e+03 1.200e+03 1.200e+03 1.200e+03 1.200e+03 1.200e+03 1.200e+03 1.200e+03 1.200e+03 1.200e+03 1.200e+03 1.200e+03 1.200e+03 1.200e+03 1.200e+03 1.200e+03 1.200e+03 1.200e+03 1.200e+03 1.200e+03 1.200e+03 1.200e+03 1.200e+03 1.200e+03 1.200e+03 1.200e+03 1.200e+03 1.200e+03 1.200e+03 1.200e+03 1.200e+03 1.200e+03 1.200e+03 1.200e+03 1.200e+03 1.200e+03 1.200e+03 1.200e+03 1.200e+03 1.200e+03 1.200e+03 1.200e+03 1.200e+03 1.200e+03 1.200e+03 1.200e+03 1.200e+03 1.200e+03 1.200e+03 1.200e+03 1.200e+03 1.200e+03 1.200e+03 1.200e+03 1.200e+03 1.200e+03 1.200e+03 1.200e+03 1.200e+03 1.200e+03 1.200e+03 1.200e+03 1.200e+03 1.200e+03 1.200e+03 1.200e+03 1.200e+03 1.200e+03 1.200e+03 1.200e+03 1.200e+03 1.200e+03 1.200e+03 1.200e+03
           </DataArray>
           <DataArray type="Float32" Name="nitrate/rootSegmentMinimalNutrientContent" NumberOfComponents="1" format="ascii">
 1.635e-01 1.811e-01 1.406e-01 1.646e-01 1.230e-01 1.337e-01 1.443e-01 7.615e-02 1.635e-01 1.811e-01 1.406e-01 1.646e-01 1.230e-01 1.337e-01 1.443e-01 7.615e-02 1.635e-01 1.811e-01 1.406e-01 1.646e-01 1.230e-01 1.337e-01 1.443e-01 7.615e-02 1.635e-01 1.811e-01 1.406e-01 1.646e-01 1.230e-01 1.337e-01 1.443e-01 7.615e-02 9.025e-02 9.025e-02 9.025e-02 9.025e-02 6.064e+00 7.604e+00 6.945e+00 4.653e+00 4.616e+00 6.835e+00 6.464e+00 6.546e+00 6.432e+00 1.821e+00 3.480e-02 3.739e-02 1.245e-02 3.553e-02 3.327e-02 1.209e-02 3.450e-02 3.474e-02 3.156e-03 3.521e-02 3.367e-02 3.523e-02 2.424e-02 3.725e-02 3.197e-02 3.487e-02 3.106e-02 3.717e-02 2.322e-02 3.459e-02 2.736e-02 3.294e-02 3.311e-02 3.314e-02 2.300e-02 3.333e-02 3.664e-02 3.545e-02 3.435e-02 2.059e-02 3.333e-02 2.498e-02 3.459e-02 2.152e-02 3.137e-02 2.555e-02 3.533e-02 1.054e-02 3.460e-02 2.428e-02 3.473e-02 2.545e-02 3.462e-02 4.899e-03 3.640e-02 1.244e-02 3.566e-02 1.265e-02 3.337e-02 1.230e-02 3.643e-02 3.674e-02 6.119e-03 3.441e-02 1.320e-02 3.614e-02 6.020e-03 3.330e-02 5.751e-03 3.650e-02 6.544e-03 3.635e-02 3.015e-02 3.530e-02 3.535e-02 3.146e-02 2.902e-02 3.573e-02 3.754e-02 1.364e-02 2.943e-02 3.230e-02 2.767e-02 2.579e-02 2.459e-02 2.677e-02 2.379e-02 2.256e-02 1.811e-02 2.046e-02 3.313e-02 3.599e-02 5.993e-03 1.860e-02 1.923e-02 1.500e-02 1.342e-02 1.398e-02 9.343e-03 9.220e-03 9.415e-03 7.010e-03 6.390e-03 3.405e-02 3.527e-02 9.610e-03 5.781e-03 4.221e-03 2.820e-03 1.426e-03 3.561e-02 3.503e-02 3.555e-02 3.623e-02 3.673e-02 2.750e-02 3.354e-02 2.756e-02 2.601e-03 3.586e-01 3.469e-01 3.360e-01 3.259e-01 3.165e-01 4.104e-01 2.972e-01 2.901e-01 3.789e-01 2.780e-01 2.745e-01 3.617e-01 2.674e-01 2.649e-01 2.626e-01 2.606e-01 2.588e-01 2.573e-01 2.561e-01 2.551e-01 2.544e-01 2.539e-01 8.457e-02
           </DataArray>
           <DataArray type="Float32" Name="nitrate/rootSegmentNutrientUptake" NumberOfComponents="1" format="ascii">
 0.000e+00 5.631e-01 3.304e-01 2.901e-01 1.570e-01 1.181e-01 7.074e-02 1.499e-02 0.000e+00 5.631e-01 3.303e-01 2.900e-01 1.570e-01 1.181e-01 7.072e-02 1.499e-02 0.000e+00 5.631e-01 3.303e-01 2.901e-01 1.570e-01 1.181e-01 7.074e-02 1.499e-02 0.000e+00 5.630e-01 3.303e-01 2.901e-01 1.570e-01 1.181e-01 7.073e-02 1.499e-02 0.000e+00 0.000e+00 0.000e+00 0.000e+00 0.000e+00 6.296e+00 4.991e+00 3.894e+00 3.140e+00 2.507e+00 1.464e+00 5.794e-02 0.000e+00 0.000e+00 0.000e+00 1.744e-01 1.383e-02 0.000e+00 1.477e-01 1.343e-02 0.000e+00 1.082e-01 1.404e-03 0.000e+00 8.997e-02 0.000e+00 5.392e-02 0.000e+00 7.831e-02 0.000e+00 7.605e-02 0.000e+00 4.654e-02 0.000e+00 6.092e-02 0.000e+00 8.112e-02 0.000e+00 4.610e-02 0.000e+00 8.975e-02 0.000e+00 1.755e-01 3.207e-02 0.000e+00 5.006e-02 0.000e+00 3.834e-02 0.000e+00 5.125e-02 0.000e+00 1.175e-02 0.000e+00 4.330e-02 0.000e+00 4.538e-02 0.000e+00 3.276e-03 0.000e+00 1.387e-02 0.000e+00 1.410e-02 0.000e+00 1.371e-02 0.000e+00 1.389e-01 4.080e-03 0.000e+00 1.471e-02 0.000e+00 4.027e-03 0.000e+00 3.847e-03 0.000e+00 4.378e-03 0.000e+00 0.000e+00 0.000e+00 0.000e+00 0.000e+00 0.000e+00 0.000e+00 1.669e-01 1.518e-02 0.000e+00 0.000e+00 0.000e+00 0.000e+00 0.000e+00 0.000e+00 0.000e+00 0.000e+00 0.000e+00 0.000e+00 0.000e+00 1.360e-01 3.997e-03 0.000e+00 0.000e+00 0.000e+00 0.000e+00 0.000e+00 0.000e+00 0.000e+00 0.000e+00 0.000e+00 0.000e+00 0.000e+00 1.411e-01 8.549e-03 0.000e+00 0.000e+00 0.000e+00 0.000e+00 0.000e+00 1.012e-01 0.000e+00 1.047e-01 0.000e+00 6.731e-02 0.000e+00 3.690e-02 0.000e+00 0.000e+00 2.612e+00 2.482e+00 2.354e+00 2.227e+00 2.777e+00 1.937e+00 1.815e+00 2.235e+00 1.536e+00 1.418e+00 1.709e+00 1.145e+00 1.029e+00 9.132e-01 7.980e-01 6.833e-01 5.688e-01 4.547e-01 3.408e-01 2.271e-01 1.135e-01 1.261e-02
           </DataArray>
           <DataArray type="Float32" Name="nitrate/rootSegmentOptimalNutrientContent" NumberOfComponents="1" format="ascii">