<?xml version="1.0"?>
<VTKFile type="UnstructuredGrid" version="0.1" byte_order="LittleEndian">
   <UnstructuredGrid>
      <Piece NumberOfPoints="160" NumberOfCells="14">
         <Points>
            <DataArray type="Float32" Name="Position" NumberOfComponents="3" format="ascii">
-0.143	-4.999	0.141
-0.032	-5.000	0.198
0.090	-5.001	0.179
0.179	-5.001	0.092
0.199	-5.002	-0.031
0.143	-5.001	-0.141
0.032	-5.000	-0.198
-0.090	-4.999	-0.179
-0.179	-4.999	-0.092
-0.199	-4.998	0.031
-0.136	-4.250	0.141
-0.026	-4.250	0.197
0.096	-4.251	0.178
0.184	-4.251	0.091
0.204	-4.251	-0.032
0.148	-4.250	-0.142
0.037	-4.250	-0.199
-0.085	-4.249	-0.179
-0.173	-4.249	-0.092
-0.192	-4.249	0.031
-0.136	-3.290	0.145
-0.026	-3.290	0.201
0.097	-3.290	0.182
0.184	-3.290	0.094
0.203	-3.290	-0.028
0.147	-3.290	-0.138
0.037	-3.290	-0.195
-0.085	-3.290	-0.175
-0.173	-3.290	-0.088
-0.192	-3.290	0.035
-0.135	-2.400	0.145
-0.025	-2.400	0.201
0.098	-2.400	0.182
0.185	-2.400	0.095
0.205	-2.400	-0.027
0.149	-2.400	-0.138
0.038	-2.400	-0.194
-0.084	-2.400	-0.175
-0.171	-2.400	-0.087
-0.191	-2.400	0.035
-0.134	-1.800	0.144
-0.024	-1.800	0.200
0.098	-1.800	0.181
0.186	-1.800	0.094
0.205	-1.800	-0.028
0.149	-1.800	-0.139
0.039	-1.800	-0.195
-0.083	-1.800	-0.176
-0.170	-1.800	-0.089
-0.190	-1.800	0.034
-0.133	-1.200	0.143
-0.022	-1.200	0.199
0.100	-1.200	0.180
0.187	-1.200	0.093
0.206	-1.200	-0.030
0.150	-1.200	-0.140
0.040	-1.200	-0.196
-0.082	-1.200	-0.176
-0.170	-1.200	-0.089
-0.189	-1.200	0.033
-0.136	-0.301	0.145
-0.025	-0.300	0.201
0.097	-0.300	0.181
0.184	-0.299	0.093
0.203	-0.299	-0.029
0.146	-0.299	-0.139
0.036	-0.300	-0.194
-0.086	-0.301	-0.175
-0.173	-0.301	-0.087
-0.192	-0.301	0.035
-0.138	-0.001	0.145
-0.027	-0.000	0.200
0.095	0.001	0.181
0.182	0.001	0.093
0.201	0.001	-0.029
0.144	0.001	-0.139
0.034	-0.000	-0.195
-0.088	-0.001	-0.175
-0.175	-0.001	-0.088
-0.194	-0.001	0.035
0.033	-5.001	-0.031
0.045	-5.004	-0.006
0.040	-5.005	0.021
0.020	-5.004	0.041
-0.008	-5.001	0.045
-0.033	-4.999	0.031
-0.045	-4.996	0.006
-0.040	-4.995	-0.021
-0.020	-4.996	-0.041
0.008	-4.999	-0.045
-0.029	-5.705	-0.066
-0.018	-5.707	-0.041
-0.023	-5.707	-0.013
-0.043	-5.706	0.006
-0.071	-5.704	0.010
-0.095	-5.701	-0.004
-0.107	-5.700	-0.029
-0.102	-5.699	-0.056
-0.082	-5.700	-0.076
-0.054	-5.703	-0.079
-0.090	-6.410	-0.078
-0.078	-6.411	-0.053
-0.083	-6.411	-0.026
-0.104	-6.409	-0.007
-0.132	-6.407	-0.003
-0.156	-6.405	-0.017
-0.167	-6.404	-0.042
-0.162	-6.404	-0.070
-0.142	-6.406	-0.089
-0.114	-6.408	-0.092
-0.143	-7.114	-0.077
-0.131	-7.115	-0.051
-0.136	-7.116	-0.024
-0.156	-7.115	-0.005
-0.184	-7.113	-0.001
-0.209	-7.111	-0.014
-0.221	-7.110	-0.039
-0.216	-7.110	-0.067
-0.195	-7.111	-0.086
-0.168	-7.112	-0.090
-0.182	-7.817	-0.112
-0.170	-7.820	-0.087
-0.174	-7.822	-0.060
-0.193	-7.822	-0.040
-0.221	-7.821	-0.035
-0.246	-7.818	-0.047
-0.258	-7.816	-0.072
-0.254	-7.814	-0.099
-0.235	-7.814	-0.119
-0.207	-7.815	-0.124
-0.227	-8.517	-0.185
-0.213	-8.520	-0.161
-0.217	-8.522	-0.133
-0.236	-8.523	-0.113
-0.263	-8.523	-0.107
-0.288	-8.522	-0.119
-0.302	-8.520	-0.143
-0.299	-8.518	-0.171
-0.280	-8.516	-0.191
-0.252	-8.516	-0.196
-0.190	-9.457	-0.237
-0.177	-9.457	-0.213
-0.180	-9.458	-0.185
-0.199	-9.459	-0.165
-0.226	-9.461	-0.159
-0.252	-9.461	-0.171
-0.265	-9.461	-0.196
-0.262	-9.460	-0.223
-0.243	-9.459	-0.243
-0.216	-9.457	-0.249
-0.180	-9.693	-0.238
-0.166	-9.692	-0.213
-0.170	-9.693	-0.186
-0.189	-9.694	-0.166
-0.217	-9.695	-0.161
-0.242	-9.696	-0.173
-0.255	-9.696	-0.197
-0.251	-9.696	-0.225
-0.232	-9.695	-0.245
-0.205	-9.694	-0.250
		    </DataArray>
         </Points>
         <Cells>
            <DataArray type="Int32" Name="connectivity" NumberOfComponents="1" format="ascii">
 0 10 1 11 2 12 3 13 4 14 5 15 6 16 7 17 8 18 9 19 0 10
 10 20 11 21 12 22 13 23 14 24 15 25 16 26 17 27 18 28 19 29 10 20
 20 30 21 31 22 32 23 33 24 34 25 35 26 36 27 37 28 38 29 39 20 30
 30 40 31 41 32 42 33 43 34 44 35 45 36 46 37 47 38 48 39 49 30 40
 40 50 41 51 42 52 43 53 44 54 45 55 46 56 47 57 48 58 49 59 40 50
 50 60 51 61 52 62 53 63 54 64 55 65 56 66 57 67 58 68 59 69 50 60
 60 70 61 71 62 72 63 73 64 74 65 75 66 76 67 77 68 78 69 79 60 70
 80 90 81 91 82 92 83 93 84 94 85 95 86 96 87 97 88 98 89 99 80 90
 90 100 91 101 92 102 93 103 94 104 95 105 96 106 97 107 98 108 99 109 90 100
 100 110 101 111 102 112 103 113 104 114 105 115 106 116 107 117 108 118 109 119 100 110
 110 120 111 121 112 122 113 123 114 124 115 125 116 126 117 127 118 128 119 129 110 120
 120 130 121 131 122 132 123 133 124 134 125 135 126 136 127 137 128 138 129 139 120 130
 130 140 131 141 132 142 133 143 134 144 135 145 136 146 137 147 138 148 139 149 130 140
 140 150 141 151 142 152 143 153 144 154 145 155 146 156 147 157 148 158 149 159 140 150

            </DataArray>
            <DataArray type="Int32" Name="offsets" NumberOfComponents="1" format="ascii">
 22 44 66 88 110 132 154 176 198 220 242 264 286 308
            </DataArray>
            <DataArray type="UInt8"  Name="types" NumberOfComponents="1" format="ascii">
6 6 6 6 6 6 6 6 6 6 6 6 6 6
            </DataArray>
         </Cells>
         <CellData>
           <DataArray type="Float32" Name="aerenchymaFormation" NumberOfComponents="1" format="ascii">
 0.000e+00 0.000e+00 0.000e+00 0.000e+00 0.000e+00 0.000e+00 0.000e+00 0.000e+00 0.000e+00 0.000e+00 0.000e+00 0.000e+00 0.000e+00 0.000e+00
           </DataArray>
           <DataArray type="Float32" Name="combinedRootClassID" NumberOfComponents="1" format="ascii">
 -2.000e+00 -2.000e+00 -2.000e+00 -2.000e+00 -2.000e+00 -2.000e+00 -2.000e+00 -4.000e+00 -4.000e+00 -4.000e+00 -4.000e+00 -4.000e+00 -4.000e+00 -4.000e+00
           </DataArray>
           <DataArray type="Float32" Name="nitrate/Cmin" NumberOfComponents="1" format="ascii">
 1.000e-03 1.000e-03 1.000e-03 1.000e-03 1.000e-03 1.000e-03 1.000e-03 1.000e-03 1.000e-03 1.000e-03 1.000e-03 1.000e-03 1.000e-03 1.000e-03
           </DataArray>
           <DataArray type="Float32" Name="nitrate/Imax" NumberOfComponents="1" format="ascii">
 1.900e+00 1.900e+00 1.900e+00 1.900e+00 1.900e+00 1.900e+00 1.900e+00 1.900e+00 1.900e+00 1.900e+00 1.900e+00 1.900e+00 1.900e+00 1.900e+00
           </DataArray>
           <DataArray type="Float32" Name="nitrate/Km" NumberOfComponents="1" format="ascii">
 1.610e-02 1.610e-02 1.610e-02 1.610e-02 1.610e-02 1.610e-02 1.610e-02 1.610e-02 1.610e-02 1.610e-02 1.610e-02 1.610e-02 1.610e-02 1.610e-02
           </DataArray>
           <DataArray type="Float32" Name="nitrate/minimalNutrientConcentration" NumberOfComponents="1" format="ascii">
 6.000e+02 6.000e+02 6.000e+02 6.000e+02 6.000e+02 6.000e+02 6.000e+02 6.000e+02 6.000e+02 6.000e+02 6.000e+02 6.000e+02 6.000e+02 6.000e+02
           </DataArray>
           <DataArray type="Float32" Name="nitrate/nutrientConcentrationAtTheRootSurface" NumberOfComponents="1" format="ascii">
 2.224e+00 2.094e+00 2.051e+00 2.116e+00 2.216e+00 2.335e+00 2.436e+00 2.224e+00 2.341e+00 2.464e+00 2.597e+00 2.743e+00 2.932e+00 3.042e+00
           </DataArray>
           <DataArray type="Float32" Name="nitrate/optimalNutrientConcentration" NumberOfComponents="1" format="ascii">
 1.200e+03 1.200e+03 1.200e+03 1.200e+03 1.200e+03 1.200e+03 1.200e+03 1.200e+03 1.200e+03 1.200e+03 1.200e+03 1.200e+03 1.200e+03 1.200e+03
           </DataArray>
           <DataArray type="Float32" Name="nitrate/rootSegmentMinimalNutrientContent" NumberOfComponents="1" format="ascii">
 5.362e+00 6.837e+00 6.325e+00 4.258e+00 4.256e+00 6.381e+00 2.126e+00 2.594e-01 2.578e-01 2.565e-01 2.554e-01 2.546e-01 3.387e-01 8.457e-02
           </DataArray>
           <DataArray type="Float32" Name="nitrate/rootSegmentNutrientUptake" NumberOfComponents="1" format="ascii">
 0.000e+00 1.769e+00 1.313e+00 9.751e-01 7.416e-01 4.932e-01 7.116e-02 0.000e+00 6.056e-01 4.918e-01 3.781e-01 2.646e-01 1.764e-01 1.259e-02
           </DataArray>
           <DataArray type="Float32" Name="nitrate/rootSegmentOptimalNutrientContent" NumberOfComponents="1" format="ascii">
 1.072e+01 1.367e+01 1.265e+01 8.517e+00 8.512e+00 1.276e+01 4.253e+00 5.188e-01 5.156e-01 5.130e-01 5.108e-01 5.092e-01 6.775e-01 1.691e-01
           </DataArray>
           <DataArray type="Float32" Name="parentRootClassID" NumberOfComponents="1" format="ascii">
 -3.000e+00 -3.000e+00 -3.000e+00 -3.000e+00 -3.000e+00 -3.000e+00 -3.000e+00 -3.000e+00 -3.000e+00 -3.000e+00 -3.000e+00 -3.000e+00 -3.000e+00 -3.000e+00
           </DataArray>
           <DataArray type="Float32" Name="plantID" NumberOfComponents="1" format="ascii">
 3.000e+00 3.000e+00 3.000e+00 3.000e+00 3.000e+00 3.000e+00 3.000e+00 3.000e+00 3.000e+00 3.000e+00 3.000e+00 3.000e+00 3.000e+00 3.000e+00
           </DataArray>
           <DataArray type="Float32" Name="plantTypeID" NumberOfComponents="1" format="ascii">
 0.000e+00 0.000e+00 0.000e+00 0.000e+00 0.000e+00 0.000e+00 0.000e+00 0.000e+00 0.000e+00 0.000e+00 0.000e+00 0.000e+00 0.000e+00 0.000e+00
           </DataArray>
           <DataArray type="Float32" Name="potassium/Cmin" NumberOfComponents="1" format="ascii">
 2.000e-03 2.000e-03 2.000e-03 2.000e-03 2.000e-03 2.000e-03 2.000e-03 2.000e-03 2.000e-03 2.000e-03 2.000e-03 2.000e-03 2.000e-03 2.000e-03
           </DataArray>
           <DataArray type="Float32" Name="potassium/Imax" NumberOfComponents="1" format="ascii">
 4.670e-01 4.670e-01 4.670e-01 4.670e-01 4.670e-01 4.670e-01 4.670e-01 4.670e-01 4.670e-01 4.670e-01 4.670e-01 4.670e-01 4.670e-01 4.670e-01
           </DataArray>
           <DataArray type="Float32" Name="potassium/Km" NumberOfComponents="1" format="ascii">
 3.900e-02 3.900e-02 3.900e-02 3.900e-02 3.900e-02 3.900e-02 3.900e-02 3.900e-02 3.900e-02 3.900e-02 3.900e-02 3.900e-02 3.900e-02 3.900e-02
           </DataArray>
           <DataArray type="Float32" Name="potassium/minimalNutrientConcentration" NumberOfComponents="1" format="ascii">
 1.680e+02 1.680e+02 1.680e+02 1.680e+02 1.680e+02 1.680e+02 1.680e+02 1.680e+02 1.680e+02 1.680e+02 1.680e+02 1.680e+02 1.680e+02 1.680e+02
           </DataArray>
           <DataArray type="Float32" Name="potassium/nutrientConcentrationAtTheRootSurface" NumberOfComponents="1" format="ascii">
 1.496e-01 1.496e-01 1.496e-01 1.497e-01 1.497e-01 1.498e-01 1.499e-01 1.496e-01 1.495e-01 1.495e-01 1.495e-01 1.496e-01 1.498e-01 1.499e-01
           </DataArray>
           <DataArray type="Float32" Name="potassium/optimalNutrientConcentration" NumberOfComponents="1" format="ascii">
 2.340e+02 2.340e+02 2.340e+02 2.340e+02 2.340e+02 2.340e+02 2.340e+02 2.340e+02 2.340e+02 2.340e+02 2.340e+02 2.340e+02 2.340e+02 2.340e+02
           </DataArray>
           <DataArray type="Float32" Name="potassium/rootSegmentMinimalNutrientContent" NumberOfComponents="1" format="ascii">
 1.501e+00 1.914e+00 1.771e+00 1.192e+00 1.192e+00 1.787e+00 5.954e-01 7.263e-02 7.218e-02 7.181e-02 7.152e-02 7.129e-02 9.485e-02 2.368e-02
           </DataArray>
           <DataArray type="Float32" Name="potassium/rootSegmentNutrientUptake" NumberOfComponents="1" format="ascii">
 0.000e+00 1.229e-01 9.012e-02 6.554e-02 4.915e-02 3.277e-02 8.190e-03 0.000e+00 1.186e-01 9.623e-02 7.397e-02 5.175e-02 3.119e-02 2.463e-03
           </DataArray>
           <DataArray type="Float32" Name="potassium/rootSegmentOptimalNutrientContent" NumberOfComponents="1" format="ascii">
 2.091e+00 2.667e+00 2.467e+00 1.661e+00 1.660e+00 2.489e+00 8.292e-01 1.012e-01 1.005e-01 1.000e-01 9.961e-02 9.930e-02 1.321e-01 3.298e-02
           </DataArray>
           <DataArray type="Float32" Name="rootCircumference" NumberOfComponents="1" format="ascii">
 1.262e+00 1.260e+00 1.258e+00 1.258e+00 1.257e+00 1.257e+00 1.257e+00 2.859e-01 2.850e-01 2.843e-01 2.837e-01 2.832e-01 2.829e-01 2.828e-01
           </DataArray>
           <DataArray type="Float32" Name="rootClassID" NumberOfComponents="1" format="ascii">
 -2.000e+00 -2.000e+00 -2.000e+00 -2.000e+00 -2.000e+00 -2.000e+00 -2.000e+00 -4.000e+00 -4.000e+00 -4.000e+00 -4.000e+00 -4.000e+00 -4.000e+00 -4.000e+00
           </DataArray>
           <DataArray type="Float32" Name="rootDiameter" NumberOfComponents="1" format="ascii">
 4.018e-01 4.010e-01 4.005e-01 4.003e-01 4.002e-01 4.001e-01 4.000e-01 9.100e-02 9.072e-02 9.049e-02 9.030e-02 9.016e-02 9.006e-02 9.000e-02
           </DataArray>
           <DataArray type="Float32" Name="rootLength2Base" NumberOfComponents="1" format="ascii">
 0.000e+00 7.500e-01 1.710e+00 2.600e+00 3.200e+00 3.800e+00 4.700e+00 0.000e+00 7.071e-01 1.414e+00 2.121e+00 2.828e+00 3.535e+00 4.478e+00
           </DataArray>
           <DataArray type="Float32" Name="rootPotentialSecondaryGrowth" NumberOfComponents="1" format="ascii">
 4.018e-01 4.010e-01 4.005e-01 4.003e-01 4.002e-01 4.001e-01 4.000e-01 9.100e-02 9.072e-02 9.049e-02 9.030e-02 9.016e-02 9.006e-02 9.000e-02
           </DataArray>
           <DataArray type="Float32" Name="rootSegmentAge" NumberOfComponents="1" format="ascii">
 2.000e+00 1.500e+00 1.100e+00 8.000e-01 6.000e-01 4.000e-01 1.000e-01 2.000e+00 1.700e+00 1.400e+00 1.100e+00 8.000e-01 5.000e-01 1.000e-01
           </DataArray>
           <DataArray type="Float32" Name="rootSegmentCarbonCostOfExudates" NumberOfComponents="1" format="ascii">
 0.000e+00 0.000e+00 0.000e+00 0.000e+00 0.000e+00 0.000e+00 0.000e+00 2.203e-05 1.872e-05 1.547e-05 1.193e-05 8.390e-06 5.280e-06 2.239e-07
           </DataArray>
           <DataArray type="Float32" Name="rootSegmentDryWeight" NumberOfComponents="1" format="ascii">
 8.937e-03 1.140e-02 1.054e-02 7.097e-03 7.093e-03 1.063e-02 3.544e-03 4.323e-04 4.297e-04 4.275e-04 4.257e-04 4.244e-04 5.646e-04 1.410e-04
           </DataArray>
           <DataArray type="Float32" Name="rootSegmentLength" NumberOfComponents="1" format="ascii">
 7.500e-01 9.600e-01 8.900e-01 6.000e-01 6.000e-01 9.000e-01 3.000e-01 7.071e-01 7.071e-01 7.071e-01 7.071e-01 7.071e-01 9.428e-01 2.357e-01
           </DataArray>
           <DataArray type="Float32" Name="rootSegmentLengthDuration" NumberOfComponents="1" format="ascii">
 1.295e+00 1.237e+00 8.493e-01 4.200e-01 3.000e-01 2.300e-01 2.983e-02 1.312e+00 1.100e+00 8.878e-01 6.757e-01 4.635e-01 2.828e-01 2.357e-02
           </DataArray>
           <DataArray type="Float32" Name="rootSegmentRespiration" NumberOfComponents="1" format="ascii">
 3.575e-04 5.983e-04 6.588e-04 4.968e-04 5.320e-04 8.508e-04 3.101e-04 1.729e-05 2.041e-05 2.351e-05 2.661e-05 2.970e-05 4.375e-05 1.233e-05
           </DataArray>
           <DataArray type="Float32" Name="rootSegmentSecondaryPotentialCarbonSinkForGrowth" NumberOfComponents="1" format="ascii">
 2.690e-05 1.902e-05 9.423e-06 3.443e-06 1.768e-06 7.326e-07 1.163e-08 3.647e-06 2.558e-06 1.665e-06 9.637e-07 4.550e-07 1.457e-07 1.175e-09
           </DataArray>
           <DataArray type="Float32" Name="rootSegmentSurfaceArea" NumberOfComponents="1" format="ascii">
 9.466e-01 1.209e+00 1.120e+00 7.545e-01 7.543e-01 1.131e+00 3.770e-01 2.021e-01 2.015e-01 2.010e-01 2.006e-01 2.003e-01 2.668e-01 6.664e-02
           </DataArray>
           <DataArray type="Float32" Name="rootSegmentVolume" NumberOfComponents="1" format="ascii">
 9.507e-02 1.212e-01 1.121e-01 7.550e-02 7.546e-02 1.131e-01 3.770e-02 4.599e-03 4.571e-03 4.547e-03 4.529e-03 4.514e-03 6.006e-03 1.500e-03
           </DataArray>
           <DataArray type="Float32" Name="rootSegmentWaterUptake" NumberOfComponents="1" format="ascii">
 0.000e+00 0.000e+00 0.000e+00 0.000e+00 0.000e+00 0.000e+00 0.000e+00 0.000e+00 0.000e+00 0.000e+00 0.000e+00 0.000e+00 0.000e+00 0.000e+00
           </DataArray>
           <DataArray type="Float32" Name="spatialRootDensity" NumberOfComponents="1" format="ascii">
 3.376e-01 1.688e-01 0.000e+00 0.000e+00 0.000e+00 0.000e+00 0.000e+00 4.082e-01 1.790e-01 0.000e+00 0.000e+00 0.000e+00 0.000e+00 0.000e+00
           </DataArray>
           <DataArray type="Float32" Name="volumetricWaterContentAtTheRootSurface" NumberOfComponents="1" format="ascii">
 2.772e-01 2.772e-01 2.771e-01 2.770e-01 2.770e-01 2.770e-01 2.769e-01 2.772e-01 2.773e-01 2.773e-01 2.774e-01 2.774e-01 2.774e-01 2.775e-01
           </DataArray>
         </CellData>
      </Piece>
   </UnstructuredGrid>
</VTKFile>
