<?xml version="1.0"?>
<VTKFile type="UnstructuredGrid" version="0.1" byte_order="LittleEndian">
   <UnstructuredGrid>
      <Piece NumberOfPoints="59260" NumberOfCells="4320">
         <Points>
            <DataArray type="Float32" Name="Position" NumberOfComponents="3" format="ascii">
0.140	-5.038	-0.072
0.140	-5.029	-0.071
0.136	-5.021	-0.068
0.128	-5.019	-0.063
0.121	-5.022	-0.059
0.116	-5.029	-0.056
0.116	-5.039	-0.057
0.120	-5.046	-0.060
0.128	-5.049	-0.065
0.135	-5.046	-0.069
0.598	-5.084	0.669
0.600	-5.075	0.670
0.596	-5.067	0.671
0.589	-5.062	0.674
0.580	-5.063	0.677
0.573	-5.070	0.679
0.571	-5.079	0.679
0.575	-5.087	0.677
0.582	-5.092	0.674
0.591	-5.091	0.671
0.684	-5.185	1.504
0.688	-5.177	1.504
0.686	-5.168	1.505
0.679	-5.162	1.506
0.670	-5.161	1.507
0.662	-5.166	1.507
0.658	-5.174	1.506
0.660	-5.183	1.505
0.667	-5.189	1.504
0.676	-5.190	1.504
0.699	-5.232	2.394
0.703	-5.224	2.394
0.701	-5.215	2.395
0.694	-5.209	2.395
0.685	-5.208	2.396
0.677	-5.212	2.396
0.673	-5.221	2.396
0.675	-5.230	2.395
0.682	-5.236	2.395
0.691	-5.237	2.394
0.705	-5.235	2.460
0.708	-5.226	2.460
0.706	-5.217	2.461
0.699	-5.211	2.461
0.690	-5.210	2.462
0.682	-5.215	2.463
0.678	-5.224	2.463
0.680	-5.233	2.462
0.687	-5.239	2.461
0.697	-5.240	2.460
0.259	-5.095	-0.137
0.259	-5.087	-0.133
0.255	-5.083	-0.125
0.249	-5.084	-0.118
0.243	-5.090	-0.114
0.239	-5.098	-0.115
0.239	-5.106	-0.119
0.243	-5.111	-0.126
0.249	-5.110	-0.133
0.255	-5.104	-0.137
0.894	-5.379	0.386
0.894	-5.371	0.391
0.889	-5.366	0.397
0.883	-5.366	0.404
0.877	-5.372	0.408
0.873	-5.380	0.408
0.874	-5.389	0.404
0.878	-5.394	0.397
0.884	-5.393	0.391
0.890	-5.388	0.387
1.487	-5.593	0.988
1.486	-5.585	0.992
1.482	-5.581	0.999
1.476	-5.582	1.006
1.471	-5.588	1.011
1.468	-5.597	1.011
1.468	-5.605	1.006
1.472	-5.609	0.999
1.478	-5.608	0.992
1.484	-5.602	0.988
2.203	-5.823	1.438
2.203	-5.816	1.443
2.200	-5.812	1.451
2.194	-5.814	1.458
2.189	-5.820	1.462
2.185	-5.828	1.461
2.184	-5.835	1.455
2.187	-5.839	1.447
2.193	-5.838	1.440
2.199	-5.832	1.437
2.773	-6.322	1.866
2.776	-6.316	1.872
2.774	-6.312	1.881
2.768	-6.313	1.888
2.760	-6.318	1.890
2.754	-6.324	1.888
2.751	-6.330	1.881
2.753	-6.333	1.873
2.759	-6.332	1.866
2.767	-6.328	1.863
2.814	-6.398	1.896
2.817	-6.393	1.903
2.816	-6.391	1.912
2.809	-6.392	1.918
2.801	-6.395	1.921
2.794	-6.400	1.918
2.791	-6.405	1.910
2.793	-6.407	1.902
2.799	-6.406	1.895
2.807	-6.403	1.892
1.238	-5.923	-0.547
1.238	-5.914	-0.546
1.233	-5.908	-0.541
1.226	-5.906	-0.535
1.219	-5.911	-0.530
1.215	-5.919	-0.529
1.216	-5.928	-0.530
1.221	-5.934	-0.535
1.228	-5.936	-0.541
1.234	-5.931	-0.545
1.754	-6.013	0.107
1.753	-6.004	0.110
1.748	-5.998	0.115
1.741	-5.998	0.121
1.735	-6.003	0.126
1.732	-6.011	0.128
1.733	-6.020	0.125
1.738	-6.026	0.120
1.745	-6.027	0.114
1.751	-6.022	0.109
2.375	-6.081	0.705
2.373	-6.072	0.707
2.368	-6.066	0.712
2.362	-6.065	0.719
2.356	-6.071	0.724
2.353	-6.079	0.726
2.354	-6.088	0.724
2.359	-6.094	0.718
2.366	-6.094	0.712
2.372	-6.089	0.707
2.949	-6.120	1.389
2.948	-6.111	1.390
2.943	-6.104	1.394
2.936	-6.103	1.400
2.930	-6.107	1.405
2.926	-6.115	1.407
2.927	-6.125	1.406
2.932	-6.131	1.402
2.939	-6.133	1.396
2.946	-6.128	1.391
3.203	-6.153	1.737
3.203	-6.144	1.738
3.198	-6.138	1.742
3.191	-6.136	1.748
3.184	-6.140	1.752
3.180	-6.148	1.754
3.180	-6.157	1.753
3.185	-6.164	1.749
3.192	-6.165	1.744
3.199	-6.162	1.739
4.054	-18.883	-1.231
4.057	-18.876	-1.225
4.054	-18.868	-1.221
4.048	-18.861	-1.222
4.041	-18.858	-1.227
4.035	-18.860	-1.234
4.032	-18.867	-1.240
4.035	-18.875	-1.243
4.041	-18.882	-1.242
4.048	-18.885	-1.238
3.553	-19.257	-0.670
3.555	-19.250	-0.663
3.553	-19.242	-0.660
3.546	-19.235	-0.660
3.539	-19.233	-0.665
3.532	-19.235	-0.671
3.530	-19.241	-0.677
3.533	-19.250	-0.681
3.539	-19.256	-0.680
3.547	-19.259	-0.676
3.289	-19.519	-0.288
3.291	-19.513	-0.282
3.288	-19.505	-0.278
3.282	-19.498	-0.278
3.274	-19.496	-0.282
3.267	-19.498	-0.288
3.265	-19.504	-0.294
3.267	-19.513	-0.298
3.274	-19.519	-0.298
3.282	-19.522	-0.294
4.068	-19.032	-1.239
4.069	-19.026	-1.232
4.067	-19.018	-1.229
4.061	-19.011	-1.231
4.055	-19.007	-1.237
4.050	-19.009	-1.244
4.049	-19.015	-1.251
4.051	-19.023	-1.254
4.057	-19.031	-1.253
4.063	-19.034	-1.247
3.458	-19.400	-0.786
3.460	-19.394	-0.780
3.457	-19.386	-0.776
3.451	-19.379	-0.777
3.444	-19.375	-0.782
3.439	-19.377	-0.790
3.437	-19.383	-0.797
3.440	-19.392	-0.800
3.446	-19.399	-0.799
3.453	-19.402	-0.794
3.080	-19.720	-0.376
3.082	-19.714	-0.370
3.080	-19.706	-0.366
3.073	-19.699	-0.366
3.066	-19.696	-0.371
3.060	-19.698	-0.378
3.058	-19.704	-0.384
3.061	-19.712	-0.388
3.067	-19.719	-0.388
3.074	-19.722	-0.383
4.062	-19.165	-1.243
4.064	-19.158	-1.249
4.071	-19.156	-1.255
4.078	-19.158	-1.260
4.084	-19.165	-1.261
4.086	-19.174	-1.259
4.083	-19.181	-1.253
4.077	-19.184	-1.247
4.069	-19.181	-1.242
4.064	-19.174	-1.241
3.567	-19.456	-1.859
3.568	-19.448	-1.865
3.573	-19.445	-1.872
3.581	-19.447	-1.877
3.587	-19.453	-1.879
3.591	-19.462	-1.877
3.589	-19.469	-1.871
3.584	-19.472	-1.864
3.577	-19.470	-1.859
3.570	-19.464	-1.857
3.160	-19.780	-2.253
3.158	-19.772	-2.257
3.161	-19.767	-2.264
3.167	-19.766	-2.271
3.174	-19.769	-2.275
3.180	-19.777	-2.275
3.182	-19.785	-2.271
3.179	-19.790	-2.264
3.173	-19.791	-2.257
3.166	-19.787	-2.253
4.081	-19.307	-1.256
4.089	-19.304	-1.258
4.098	-19.307	-1.259
4.104	-19.314	-1.258
4.105	-19.323	-1.256
4.100	-19.330	-1.253
4.092	-19.333	-1.250
4.083	-19.331	-1.249
4.077	-19.324	-1.250
4.076	-19.315	-1.253
3.930	-19.550	-2.062
3.939	-19.547	-2.064
3.948	-19.551	-2.064
3.953	-19.558	-2.062
3.953	-19.567	-2.058
3.947	-19.573	-2.056
3.939	-19.576	-2.054
3.930	-19.573	-2.054
3.925	-19.565	-2.056
3.925	-19.556	-2.059
3.927	-19.811	-2.695
3.936	-19.809	-2.696
3.944	-19.813	-2.694
3.949	-19.821	-2.691
3.948	-19.829	-2.688
3.941	-19.835	-2.685
3.932	-19.837	-2.685
3.924	-19.833	-2.686
3.919	-19.826	-2.689
3.920	-19.817	-2.693
4.107	-19.477	-1.244
4.105	-19.469	-1.241
4.104	-19.460	-1.243
4.105	-19.454	-1.250
4.107	-19.453	-1.259
4.110	-19.458	-1.267
4.111	-19.466	-1.270
4.112	-19.475	-1.268
4.111	-19.481	-1.261
4.109	-19.482	-1.252
3.294	-19.565	-1.428
3.292	-19.557	-1.426
3.292	-19.548	-1.429
3.294	-19.542	-1.436
3.297	-19.542	-1.445
3.300	-19.548	-1.452
3.302	-19.557	-1.454
3.302	-19.565	-1.451
3.300	-19.571	-1.444
3.297	-19.571	-1.435
2.768	-19.639	-1.678
2.766	-19.630	-1.677
2.766	-19.622	-1.681
2.769	-19.617	-1.689
2.773	-19.618	-1.697
2.777	-19.624	-1.703
2.779	-19.633	-1.704
2.778	-19.642	-1.700
2.775	-19.646	-1.693
2.771	-19.645	-1.684
4.118	-19.605	-1.260
4.127	-19.602	-1.262
4.135	-19.606	-1.261
4.141	-19.613	-1.259
4.140	-19.622	-1.256
4.134	-19.628	-1.253
4.126	-19.631	-1.252
4.117	-19.627	-1.253
4.112	-19.620	-1.255
4.112	-19.611	-1.258
4.073	-19.879	-2.067
4.082	-19.879	-2.068
4.090	-19.884	-2.066
4.094	-19.891	-2.062
4.091	-19.899	-2.057
4.084	-19.903	-2.053
4.075	-19.903	-2.052
4.067	-19.899	-2.054
4.064	-19.891	-2.058
4.066	-19.884	-2.063
3.929	-20.387	-2.551
3.938	-20.387	-2.547
3.947	-20.387	-2.548
3.953	-20.387	-2.555
3.955	-20.387	-2.564
3.951	-20.387	-2.572
3.942	-20.387	-2.576
3.933	-20.387	-2.575
3.927	-20.387	-2.568
3.925	-20.387	-2.559
4.141	-19.753	-1.261
4.150	-19.751	-1.263
4.159	-19.755	-1.262
4.163	-19.762	-1.259
4.163	-19.771	-1.255
4.156	-19.777	-1.252
4.147	-19.779	-1.251
4.139	-19.775	-1.252
4.134	-19.767	-1.255
4.135	-19.759	-1.258
4.093	-20.078	-2.036
4.102	-20.076	-2.038
4.111	-20.079	-2.038
4.116	-20.086	-2.036
4.116	-20.095	-2.033
4.110	-20.102	-2.029
4.101	-20.104	-2.027
4.092	-20.100	-2.027
4.087	-20.093	-2.029
4.087	-20.084	-2.033
3.931	-20.333	-2.716
3.940	-20.330	-2.719
3.949	-20.333	-2.720
3.954	-20.340	-2.719
3.955	-20.349	-2.716
3.950	-20.356	-2.712
3.942	-20.358	-2.709
3.933	-20.355	-2.708
3.927	-20.348	-2.709
3.927	-20.340	-2.712
4.173	-19.903	-1.268
4.173	-19.898	-1.260
4.174	-19.900	-1.251
4.173	-19.906	-1.244
4.172	-19.915	-1.242
4.171	-19.923	-1.246
4.170	-19.928	-1.254
4.170	-19.927	-1.263
4.170	-19.920	-1.270
4.171	-19.911	-1.272
5.000	-20.017	-1.295
5.000	-20.013	-1.287
5.000	-20.013	-1.278
4.999	-20.019	-1.270
4.997	-20.028	-1.268
4.996	-20.036	-1.272
4.995	-20.041	-1.280
4.996	-20.041	-1.289
4.997	-20.035	-1.296
4.998	-20.026	-1.298
5.617	-20.147	-1.229
5.617	-20.141	-1.221
5.616	-20.141	-1.212
5.614	-20.147	-1.205
5.612	-20.155	-1.202
5.611	-20.164	-1.205
5.611	-20.169	-1.213
5.612	-20.169	-1.222
5.613	-20.164	-1.229
5.616	-20.155	-1.232
4.208	-20.067	-1.264
4.210	-20.059	-1.260
4.207	-20.052	-1.255
4.200	-20.048	-1.251
4.191	-20.050	-1.250
4.184	-20.055	-1.251
4.181	-20.063	-1.255
4.184	-20.070	-1.260
4.192	-20.074	-1.264
4.201	-20.073	-1.266
4.399	-20.507	-0.524
4.401	-20.499	-0.520
4.398	-20.492	-0.515
4.391	-20.488	-0.511
4.382	-20.489	-0.510
4.374	-20.495	-0.512
4.372	-20.503	-0.516
4.375	-20.510	-0.521
4.383	-20.513	-0.525
4.392	-20.512	-0.526
4.448	-20.721	-0.199
4.450	-20.714	-0.194
4.447	-20.707	-0.189
4.440	-20.703	-0.185
4.430	-20.704	-0.185
4.423	-20.709	-0.187
4.420	-20.716	-0.192
4.424	-20.724	-0.197
4.431	-20.727	-0.200
4.440	-20.727	-0.201
4.224	-20.199	-1.271
4.225	-20.195	-1.263
4.225	-20.195	-1.254
4.224	-20.201	-1.247
4.222	-20.210	-1.245
4.220	-20.218	-1.248
4.219	-20.223	-1.256
4.219	-20.222	-1.265
4.220	-20.217	-1.272
4.222	-20.208	-1.275
5.070	-20.385	-1.271
5.071	-20.380	-1.263
5.070	-20.381	-1.254
5.069	-20.386	-1.247
5.067	-20.395	-1.244
5.065	-20.404	-1.248
5.065	-20.409	-1.255
5.065	-20.408	-1.265
5.067	-20.403	-1.272
5.069	-20.394	-1.274
5.315	-20.429	-1.243
5.315	-20.423	-1.235
5.314	-20.424	-1.226
5.312	-20.429	-1.219
5.310	-20.438	-1.216
5.309	-20.446	-1.219
5.309	-20.452	-1.227
5.310	-20.452	-1.236
5.312	-20.446	-1.244
5.313	-20.437	-1.246
1.313	-6.023	-0.586
1.317	-6.020	-0.578
1.321	-6.022	-0.570
1.322	-6.030	-0.564
1.322	-6.039	-0.564
1.319	-6.047	-0.568
1.316	-6.050	-0.576
1.312	-6.047	-0.584
1.310	-6.040	-0.590
1.310	-6.031	-0.590
2.095	-6.080	-0.944
2.100	-6.078	-0.937
2.104	-6.080	-0.929
2.107	-6.088	-0.924
2.106	-6.097	-0.924
2.103	-6.105	-0.928
2.098	-6.107	-0.935
[...]
         <CellData>
           <DataArray type="Float32" Name="aerenchymaFormation" NumberOfComponents="1" format="ascii">
 6.333e-02 4.000e-02 0.000e+00 0.000e+00 6.295e-02 5.000e-02 1.750e-02 0.000e+00 0.000e+00 5.958e-02 3.750e-02 0.000e+00 0.000e+00 0.000e+00 0.000e+00 0.000e+00 0.000e+00 0.000e+00 0.000e+00 0.000e+00 0.000e+00 0.000e+00 0.000e+00 0.000e+00 0.000e+00 0.000e+00 0.000e+00 0.000e+00 0.000e+00 0.000e+00 0.000e+00 0.000e+00 0.000e+00 5.920e-02 4.000e-02 7.500e-03 0.000e+00 0.000e+00 0.000e+00 0.000e+00 0.000e+00 0.000e+00 0.000e+00 0.000e+00 0.000e+00 0.000e+00 0.000e+00 0.000e+00 0.000e+00 0.000e+00 0.000e+00 0.000e+00 0.000e+00 0.000e+00 0.000e+00 0.000e+00 0.000e+00 5.883e-02 4.000e-02 7.500e-03 0.000e+00 0.000e+00 0.000e+00 0.000e+00 0.000e+00 0.000e+00 0.000e+00 0.000e+00 0.000e+00 0.000e+00 0.000e+00 0.000e+00 0.000e+00 0.000e+00 0.000e+00 0.000e+00 0.000e+00 0.000e+00 0.000e+00 0.000e+00 0.000e+00 5.845e-02 3.250e-02 0.000e+00 0.000e+00 0.000e+00 0.000e+00 0.000e+00 0.000e+00 0.000e+00 0.000e+00 0.000e+00 0.000e+00 0.000e+00 0.000e+00 0.000e+00 0.000e+00 0.000e+00 0.000e+00 5.808e-02 3.250e-02 0.000e+00 0.000e+00 0.000e+00 0.000e+00 0.000e+00 0.000e+00 0.000e+00 0.000e+00 0.000e+00 0.000e+00 0.000e+00 0.000e+00 5.770e-02 3.500e-02 0.000e+00 0.000e+00 0.000e+00 0.000e+00 0.000e+00 0.000e+00 0.000e+00 0.000e+00 0.000e+00 0.000e+00 0.000e+00 0.000e+00 5.733e-02 2.500e-02 0.000e+00 0.000e+00 0.000e+00 0.000e+00 0.000e+00 0.000e+00 0.000e+00 0.000e+00 0.000e+00 0.000e+00 5.695e-02 2.000e-02 0.000e+00 5.658e-02 3.500e-02 2.500e-03 0.000e+00 5.620e-02 3.500e-02 2.500e-03 0.000e+00 0.000e+00 6.258e-02 4.500e-02 1.000e-02 0.000e+00 5.583e-02 2.250e-02 0.000e+00 5.545e-02 2.500e-02 0.000e+00 0.000e+00 5.508e-02 2.500e-02 0.000e+00 0.000e+00 5.470e-02 2.750e-02 0.000e+00 0.000e+00 5.433e-02 2.000e-02 0.000e+00 0.000e+00 5.395e-02 3.000e-02 0.000e+00 0.000e+00 0.000e+00 5.358e-02 2.000e-02 0.000e+00 0.000e+00 5.320e-02 2.000e-02 0.000e+00 0.000e+00 5.283e-02 2.250e-02 0.000e+00 0.000e+00 5.245e-02 2.500e-02 0.000e+00 0.000e+00 0.000e+00 6.220e-02 3.750e-02 0.000e+00 0.000e+00 5.208e-02 1.250e-02 0.000e+00 5.170e-02 2.500e-02 0.000e+00 0.000e+00 0.000e+00 5.133e-02 1.750e-02 0.000e+00 0.000e+00 5.095e-02 7.500e-03 0.000e+00 5.058e-02 1.500e-02 0.000e+00 0.000e+00 5.020e-02 2.000e-02 0.000e+00 0.000e+00 4.957e-02 7.500e-03 0.000e+00 4.863e-02 1.750e-02 0.000e+00 0.000e+00 4.769e-02 1.500e-02 0.000e+00 0.000e+00 4.675e-02 1.250e-02 0.000e+00 0.000e+00 6.183e-02 4.500e-02 1.000e-02 0.000e+00 4.582e-02 1.750e-02 0.000e+00 0.000e+00 0.000e+00 4.488e-02 7.500e-03 0.000e+00 0.000e+00 4.394e-02 2.500e-03 0.000e+00 4.300e-02 7.500e-03 0.000e+00 0.000e+00 4.207e-02 0.000e+00 0.000e+00 4.113e-02 2.500e-03 0.000e+00 4.019e-02 7.500e-03 0.000e+00 0.000e+00 3.925e-02 0.000e+00 0.000e+00 3.832e-02 7.500e-03 0.000e+00 0.000e+00 3.738e-02 2.500e-03 0.000e+00 0.000e+00 6.145e-02 3.750e-02 0.000e+00 0.000e+00 3.644e-02 2.500e-03 0.000e+00 0.000e+00 3.550e-02 5.000e-03 0.000e+00 0.000e+00 3.457e-02 0.000e+00 0.000e+00 0.000e+00 3.363e-02 0.000e+00 0.000e+00 3.269e-02 0.000e+00 0.000e+00 0.000e+00 3.175e-02 0.000e+00 0.000e+00 0.000e+00 3.082e-02 0.000e+00 0.000e+00 2.988e-02 0.000e+00 0.000e+00 2.894e-02 0.000e+00 0.000e+00 2.800e-02 0.000e+00 0.000e+00 6.108e-02 4.250e-02 5.000e-03 0.000e+00 2.707e-02 0.000e+00 0.000e+00 2.613e-02 0.000e+00 0.000e+00 2.519e-02 0.000e+00 0.000e+00 2.425e-02 0.000e+00 0.000e+00 2.332e-02 0.000e+00 0.000e+00 2.238e-02 0.000e+00 0.000e+00 2.144e-02 0.000e+00 0.000e+00 2.050e-02 0.000e+00 0.000e+00 1.957e-02 0.000e+00 0.000e+00 1.863e-02 0.000e+00 0.000e+00 6.070e-02 4.250e-02 7.500e-03 0.000e+00 1.769e-02 0.000e+00 0.000e+00 0.000e+00 1.675e-02 0.000e+00 0.000e+00 1.582e-02 0.000e+00 1.488e-02 0.000e+00 0.000e+00 1.394e-02 0.000e+00 0.000e+00 1.300e-02 0.000e+00 0.000e+00 1.207e-02 0.000e+00 0.000e+00 1.113e-02 0.000e+00 0.000e+00 1.019e-02 0.000e+00 0.000e+00 9.254e-03 0.000e+00 0.000e+00 6.033e-02 3.750e-02 0.000e+00 0.000e+00 8.316e-03 0.000e+00 0.000e+00 7.379e-03 0.000e+00 0.000e+00 6.441e-03 0.000e+00 5.504e-03 0.000e+00 4.566e-03 0.000e+00 0.000e+00 3.629e-03 0.000e+00 0.000e+00 2.691e-03 0.000e+00 0.000e+00 1.754e-03 0.000e+00 0.000e+00 8.160e-04 0.000e+00 0.000e+00 0.000e+00 0.000e+00 5.995e-02 4.250e-02 1.000e-02 0.000e+00 0.000e+00 0.000e+00 0.000e+00 0.000e+00 0.000e+00 0.000e+00 0.000e+00 0.000e+00 0.000e+00 0.000e+00 0.000e+00 0.000e+00 0.000e+00 0.000e+00 0.000e+00 0.000e+00 0.000e+00 0.000e+00 0.000e+00 0.000e+00 0.000e+00 0.000e+00 0.000e+00 0.000e+00 0.000e+00 9.833e-02 8.800e-02 8.300e-02 8.000e-02 7.700e-02 7.500e-02 7.300e-02 7.100e-02 6.900e-02 6.700e-02 6.500e-02 6.300e-02 6.100e-02 5.900e-02 5.700e-02 5.500e-02 5.300e-02 5.100e-02 4.750e-02 4.250e-02 3.750e-02 3.250e-02 2.750e-02 2.250e-02 1.750e-02 1.250e-02 7.500e-03 2.500e-03 0.000e+00 0.000e+00 0.000e+00 0.000e+00 0.000e+00 0.000e+00 0.000e+00 0.000e+00 0.000e+00 0.000e+00 0.000e+00 0.000e+00 0.000e+00 0.000e+00 0.000e+00 6.333e-02 4.750e-02 1.250e-02 0.000e+00 6.295e-02 4.500e-02 7.500e-03 0.000e+00 5.958e-02 3.250e-02 0.000e+00 0.000e+00 0.000e+00 0.000e+00 0.000e+00 0.000e+00 0.000e+00 0.000e+00 0.000e+00 0.000e+00 0.000e+00 0.000e+00 0.000e+00 0.000e+00 0.000e+00 0.000e+00 0.000e+00 0.000e+00 0.000e+00 0.000e+00 0.000e+00 0.000e+00 0.000e+00 0.000e+00 5.920e-02 4.250e-02 1.250e-02 0.000e+00 0.000e+00 0.000e+00 0.000e+00 0.000e+00 0.000e+00 0.000e+00 0.000e+00 0.000e+00 0.000e+00 0.000e+00 0.000e+00 0.000e+00 0.000e+00 0.000e+00 0.000e+00 0.000e+00 0.000e+00 0.000e+00 0.000e+00 0.000e+00 0.000e+00 5.883e-02 3.250e-02 0.000e+00 0.000e+00 0.000e+00 0.000e+00 0.000e+00 0.000e+00 0.000e+00 0.000e+00 0.000e+00 0.000e+00 0.000e+00 0.000e+00 0.000e+00 0.000e+00 0.000e+00 0.000e+00 0.000e+00 5.845e-02 4.000e-02 1.000e-02 0.000e+00 0.000e+00 0.000e+00 0.000e+00 0.000e+00 0.000e+00 0.000e+00 0.000e+00 0.000e+00 0.000e+00 0.000e+00 0.000e+00 5.808e-02 3.500e-02 0.000e+00 0.000e+00 0.000e+00 0.000e+00 0.000e+00 0.000e+00 0.000e+00 0.000e+00 0.000e+00 0.000e+00 0.000e+00 0.000e+00 5.770e-02 3.500e-02 2.500e-03 0.000e+00 0.000e+00 0.000e+00 0.000e+00 0.000e+00 0.000e+00 0.000e+00 0.000e+00 0.000e+00 0.000e+00 0.000e+00 5.733e-02 3.000e-02 0.000e+00 0.000e+00 0.000e+00 0.000e+00 0.000e+00 0.000e+00 0.000e+00 0.000e+00 0.000e+00 0.000e+00 0.000e+00 5.695e-02 2.750e-02 0.000e+00 0.000e+00 5.658e-02 2.500e-02 0.000e+00 0.000e+00 5.620e-02 3.000e-02 0.000e+00 0.000e+00 6.258e-02 4.250e-02 2.500e-03 0.000e+00 5.583e-02 2.500e-02 0.000e+00 0.000e+00 5.545e-02 2.250e-02 0.000e+00 0.000e+00 5.508e-02 2.500e-02 0.000e+00 0.000e+00 5.470e-02 2.500e-02 0.000e+00 0.000e+00 5.433e-02 3.250e-02 5.000e-03 0.000e+00 0.000e+00 5.395e-02 3.000e-02 0.000e+00 0.000e+00 0.000e+00 5.358e-02 2.500e-02 0.000e+00 0.000e+00 5.320e-02 2.750e-02 0.000e+00 0.000e+00 0.000e+00 5.283e-02 3.000e-02 2.500e-03 0.000e+00 0.000e+00 5.245e-02 1.750e-02 0.000e+00 0.000e+00 6.220e-02 4.750e-02 1.500e-02 0.000e+00 0.000e+00 5.208e-02 1.250e-02 0.000e+00 5.170e-02 1.750e-02 0.000e+00 0.000e+00 5.133e-02 1.500e-02 0.000e+00 0.000e+00 5.095e-02 1.500e-02 0.000e+00 0.000e+00 5.058e-02 1.250e-02 0.000e+00 0.000e+00 5.020e-02 2.500e-03 0.000e+00 4.957e-02 1.250e-02 0.000e+00 0.000e+00 4.863e-02 1.500e-02 0.000e+00 0.000e+00 4.769e-02 2.500e-03 0.000e+00 4.675e-02 1.250e-02 0.000e+00 0.000e+00 6.183e-02 3.750e-02 0.000e+00 0.000e+00 4.582e-02 1.500e-02 0.000e+00 0.000e+00 4.488e-02 0.000e+00 0.000e+00 4.394e-02 0.000e+00 0.000e+00 4.300e-02 1.500e-02 0.000e+00 0.000e+00 0.000e+00 4.207e-02 1.000e-02 0.000e+00 0.000e+00 4.113e-02 2.500e-03 0.000e+00 4.019e-02 0.000e+00 0.000e+00 3.925e-02 5.000e-03 0.000e+00 0.000e+00 3.832e-02 5.000e-03 0.000e+00 0.000e+00 3.738e-02 0.000e+00 0.000e+00 6.145e-02 5.000e-02 2.000e-02 0.000e+00 0.000e+00 3.644e-02 0.000e+00 0.000e+00 3.550e-02 0.000e+00 0.000e+00 3.457e-02 0.000e+00 0.000e+00 3.363e-02 0.000e+00 0.000e+00 3.269e-02 0.000e+00 0.000e+00 3.175e-02 0.000e+00 0.000e+00 3.082e-02 0.000e+00 0.000e+00 2.988e-02 0.000e+00 0.000e+00 2.894e-02 0.000e+00 0.000e+00 0.000e+00 2.800e-02 0.000e+00 0.000e+00 6.108e-02 4.500e-02 1.250e-02 0.000e+00 0.000e+00 2.707e-02 0.000e+00 0.000e+00 2.613e-02 0.000e+00 0.000e+00 0.000e+00 2.519e-02 0.000e+00 0.000e+00 2.425e-02 0.000e+00 0.000e+00 2.332e-02 0.000e+00 0.000e+00 2.238e-02 0.000e+00 0.000e+00 2.144e-02 0.000e+00 0.000e+00 0.000e+00 2.050e-02 0.000e+00 0.000e+00 1.957e-02 0.000e+00 0.000e+00 1.863e-02 0.000e+00 0.000e+00 0.000e+00 6.070e-02 4.500e-02 1.250e-02 0.000e+00 0.000e+00 1.769e-02 0.000e+00 0.000e+00 1.675e-02 0.000e+00 0.000e+00 1.582e-02 0.000e+00 0.000e+00 1.488e-02 0.000e+00 0.000e+00 0.000e+00 1.394e-02 0.000e+00 0.000e+00 1.300e-02 0.000e+00 0.000e+00 1.207e-02 0.000e+00 0.000e+00 1.113e-02 0.000e+00 0.000e+00 1.019e-02 0.000e+00 0.000e+00 9.254e-03 0.000e+00 0.000e+00 6.033e-02 3.500e-02 0.000e+00 0.000e+00 8.316e-03 0.000e+00 0.000e+00 7.379e-03 0.000e+00 6.441e-03 0.000e+00 0.000e+00 5.504e-03 0.000e+00 0.000e+00 4.566e-03 0.000e+00 0.000e+00 3.629e-03 0.000e+00 0.000e+00 2.691e-03 0.000e+00 1.754e-03 0.000e+00 0.000e+00 8.160e-04 0.000e+00 0.000e+00 0.000e+00 0.000e+00 5.995e-02 2.750e-02 0.000e+00 0.000e+00 0.000e+00 0.000e+00 0.000e+00 0.000e+00 0.000e+00 0.000e+00 0.000e+00 0.000e+00 0.000e+00 0.000e+00 0.000e+00 0.000e+00 0.000e+00 0.000e+00 0.000e+00 0.000e+00 0.000e+00 0.000e+00 0.000e+00 0.000e+00 0.000e+00 0.000e+00 0.000e+00 9.833e-02 8.800e-02 8.300e-02 8.000e-02 7.700e-02 7.500e-02 7.300e-02 7.100e-02 6.900e-02 6.700e-02 6.500e-02 6.300e-02 6.100e-02 5.900e-02 5.700e-02 5.500e-02 5.300e-02 5.100e-02 4.750e-02 4.250e-02 3.750e-02 3.250e-02 2.750e-02 2.250e-02 1.750e-02 1.250e-02 7.500e-03 2.500e-03 0.000e+00 0.000e+00 0.000e+00 0.000e+00 0.000e+00 0.000e+00 0.000e+00 0.000e+00 0.000e+00 0.000e+00 0.000e+00 0.000e+00 0.000e+00 0.000e+00 0.000e+00 6.333e-02 4.750e-02 1.250e-02 0.000e+00 6.295e-02 4.750e-02 1.250e-02 0.000e+00 5.958e-02 4.250e-02 1.000e-02 0.000e+00 0.000e+00 0.000e+00 0.000e+00 0.000e+00 0.000e+00 0.000e+00 0.000e+00 0.000e+00 0.000e+00 0.000e+00 0.000e+00 0.000e+00 0.000e+00 0.000e+00 0.000e+00 0.000e+00 0.000e+00 0.000e+00 0.000e+00 0.000e+00 0.000e+00 5.920e-02 3.500e-02 0.000e+00 0.000e+00 0.000e+00 0.000e+00 0.000e+00 0.000e+00 0.000e+00 0.000e+00 0.000e+00 0.000e+00 0.000e+00 0.000e+00 0.000e+00 0.000e+00 0.000e+00 0.000e+00 0.000e+00 0.000e+00 0.000e+00 0.000e+00 0.000e+00 0.000e+00 5.883e-02 3.250e-02 0.000e+00 0.000e+00 0.000e+00 0.000e+00 0.000e+00 0.000e+00 0.000e+00 0.000e+00 0.000e+00 0.000e+00 0.000e+00 0.000e+00 0.000e+00 0.000e+00 0.000e+00 0.000e+00 0.000e+00 0.000e+00 0.000e+00 5.845e-02 3.750e-02 2.500e-03 0.000e+00 0.000e+00 0.000e+00 0.000e+00 0.000e+00 0.000e+00 0.000e+00 0.000e+00 0.000e+00 0.000e+00 0.000e+00 0.000e+00 0.000e+00 0.000e+00 5.808e-02 4.000e-02 1.000e-02 0.000e+00 0.000e+00 0.000e+00 0.000e+00 0.000e+00 0.000e+00 0.000e+00 0.000e+00 0.000e+00 0.000e+00 0.000e+00 0.000e+00 5.770e-02 2.250e-02 0.000e+00 0.000e+00 0.000e+00 0.000e+00 0.000e+00 0.000e+00 0.000e+00 0.000e+00 0.000e+00 0.000e+00 0.000e+00 5.733e-02 4.000e-02 1.250e-02 0.000e+00 0.000e+00 0.000e+00 0.000e+00 0.000e+00 0.000e+00 0.000e+00 0.000e+00 0.000e+00 0.000e+00 0.000e+00 5.695e-02 3.250e-02 0.000e+00 0.000e+00 5.658e-02 3.000e-02 0.000e+00 0.000e+00 5.620e-02 2.000e-02 0.000e+00 6.258e-02 5.100e-02 2.250e-02 0.000e+00 0.000e+00 5.583e-02 3.000e-02 0.000e+00 0.000e+00 5.545e-02 2.500e-02 0.000e+00 0.000e+00 5.508e-02 3.000e-02 0.000e+00 0.000e+00 5.470e-02 2.000e-02 0.000e+00 5.433e-02 2.750e-02 0.000e+00 0.000e+00 5.395e-02 1.750e-02 0.000e+00 5.358e-02 2.750e-02 0.000e+00 0.000e+00 0.000e+00 5.320e-02 2.250e-02 0.000e+00 0.000e+00 5.283e-02 2.000e-02 0.000e+00 0.000e+00 5.245e-02 2.500e-02 0.000e+00 0.000e+00 6.220e-02 4.750e-02 1.500e-02 0.000e+00 0.000e+00 5.208e-02 2.000e-02 0.000e+00 0.000e+00 5.170e-02 1.250e-02 0.000e+00 5.133e-02 1.500e-02 0.000e+00 0.000e+00 5.095e-02 2.250e-02 0.000e+00 0.000e+00 0.000e+00 5.058e-02 1.500e-02 0.000e+00 0.000e+00 5.020e-02 2.000e-02 0.000e+00 0.000e+00 4.957e-02 1.250e-02 0.000e+00 0.000e+00 4.863e-02 1.500e-02 0.000e+00 0.000e+00 4.769e-02 1.250e-02 0.000e+00 0.000e+00 4.675e-02 7.500e-03 0.000e+00 0.000e+00 6.183e-02 4.250e-02 5.000e-03 0.000e+00 4.582e-02 1.000e-02 0.000e+00 0.000e+00 4.488e-02 5.000e-03 0.000e+00 4.394e-02 2.500e-03 0.000e+00 4.300e-02 1.000e-02 0.000e+00 0.000e+00 4.207e-02 0.000e+00 0.000e+00 4.113e-02 0.000e+00 0.000e+00 4.019e-02 7.500e-03 0.000e+00 0.000e+00 3.925e-02 5.000e-03 0.000e+00 0.000e+00 3.832e-02 2.500e-03 0.000e+00 0.000e+00 3.738e-02 7.500e-03 0.000e+00 0.000e+00 6.145e-02 4.750e-02 1.750e-02 0.000e+00 0.000e+00 3.644e-02 2.500e-03 0.000e+00 0.000e+00 3.550e-02 5.000e-03 0.000e+00 0.000e+00 3.457e-02 0.000e+00 0.000e+00 3.363e-02 2.500e-03 0.000e+00 0.000e+00 3.269e-02 0.000e+00 0.000e+00 3.175e-02 0.000e+00 0.000e+00 3.082e-02 0.000e+00 0.000e+00 0.000e+00 2.988e-02 0.000e+00 0.000e+00 0.000e+00 2.894e-02 0.000e+00 0.000e+00 0.000e+00 2.800e-02 0.000e+00 0.000e+00 0.000e+00 6.108e-02 4.250e-02 7.500e-03 0.000e+00 2.707e-02 0.000e+00 0.000e+00 2.613e-02 0.000e+00 0.000e+00 2.519e-02 0.000e+00 0.000e+00 0.000e+00 2.425e-02 0.000e+00 0.000e+00 2.332e-02 0.000e+00 0.000e+00 2.238e-02 0.000e+00 0.000e+00 2.144e-02 0.000e+00 0.000e+00 2.050e-02 0.000e+00 0.000e+00 1.957e-02 0.000e+00 0.000e+00 1.863e-02 0.000e+00 0.000e+00 0.000e+00 6.070e-02 4.250e-02 1.000e-02 0.000e+00 1.769e-02 0.000e+00 0.000e+00 1.675e-02 0.000e+00 0.000e+00 1.582e-02 0.000e+00 0.000e+00 1.488e-02 0.000e+00 0.000e+00 1.394e-02 0.000e+00 0.000e+00 0.000e+00 1.300e-02 0.000e+00 0.000e+00 0.000e+00 1.207e-02 0.000e+00 0.000e+00 1.113e-02 0.000e+00 0.000e+00 1.019e-02 0.000e+00 0.000e+00 9.254e-03 0.000e+00 0.000e+00 6.033e-02 3.750e-02 0.000e+00 0.000e+00 8.316e-03 0.000e+00 0.000e+00 7.379e-03 0.000e+00 0.000e+00 6.441e-03 0.000e+00 0.000e+00 5.504e-03 0.000e+00 0.000e+00 4.566e-03 0.000e+00 0.000e+00 3.629e-03 0.000e+00 2.691e-03 0.000e+00 0.000e+00 1.754e-03 0.000e+00 8.160e-04 0.000e+00 0.000e+00 0.000e+00 5.995e-02 3.750e-02 0.000e+00 0.000e+00 0.000e+00 0.000e+00 0.000e+00 0.000e+00 0.000e+00 0.000e+00 0.000e+00 0.000e+00 0.000e+00 0.000e+00 0.000e+00 0.000e+00 0.000e+00 0.000e+00 0.000e+00 0.000e+00 0.000e+00 0.000e+00 0.000e+00 0.000e+00 0.000e+00 0.000e+00 0.000e+00 9.833e-02 8.800e-02 8.300e-02 8.000e-02 7.700e-02 7.500e-02 7.300e-02 7.100e-02 6.900e-02 6.700e-02 6.500e-02 6.300e-02 6.100e-02 5.900e-02 5.700e-02 5.500e-02 5.300e-02 5.100e-02 4.750e-02 4.250e-02 3.750e-02 3.250e-02 2.750e-02 2.250e-02 1.750e-02 1.250e-02 7.500e-03 2.500e-03 0.000e+00 0.000e+00 0.000e+00 0.000e+00 0.000e+00 0.000e+00 0.000e+00 0.000e+00 0.000e+00 0.000e+00 0.000e+00 0.000e+00 0.000e+00 0.000e+00 0.000e+00 6.333e-02 4.250e-02 2.500e-03 0.000e+00 6.295e-02 5.000e-02 1.750e-02 0.000e+00 0.000e+00 5.958e-02 4.500e-02 1.750e-02 0.000e+00 0.000e+00 0.000e+00 0.000e+00 0.000e+00 0.000e+00 0.000e+00 0.000e+00 0.000e+00 0.000e+00 0.000e+00 0.000e+00 0.000e+00 0.000e+00 0.000e+00 0.000e+00 0.000e+00 0.000e+00 0.000e+00 0.000e+00 0.000e+00 0.000e+00 5.920e-02 3.750e-02 2.500e-03 0.000e+00 0.000e+00 0.000e+00 0.000e+00 0.000e+00 0.000e+00 0.000e+00 0.000e+00 0.000e+00 0.000e+00 0.000e+00 0.000e+00 0.000e+00 0.000e+00 0.000e+00 0.000e+00 0.000e+00 0.000e+00 0.000e+00 0.000e+00 0.000e+00 5.883e-02 4.500e-02 1.750e-02 0.000e+00 0.000e+00 0.000e+00 0.000e+00 0.000e+00 0.000e+00 0.000e+00 0.000e+00 0.000e+00 0.000e+00 0.000e+00 0.000e+00 0.000e+00 0.000e+00 0.000e+00 0.000e+00 0.000e+00 0.000e+00 0.000e+00 5.845e-02 3.250e-02 0.000e+00 0.000e+00 0.000e+00 0.000e+00 0.000e+00 0.000e+00 0.000e+00 0.000e+00 0.000e+00 0.000e+00 0.000e+00 0.000e+00 0.000e+00 5.808e-02 3.500e-02 0.000e+00 0.000e+00 0.000e+00 0.000e+00 0.000e+00 0.000e+00 0.000e+00 0.000e+00 0.000e+00 0.000e+00 0.000e+00 0.000e+00 5.770e-02 3.750e-02 5.000e-03 0.000e+00 0.000e+00 0.000e+00 0.000e+00 0.000e+00 0.000e+00 0.000e+00 0.000e+00 0.000e+00 0.000e+00 0.000e+00 0.000e+00 5.733e-02 2.500e-02 0.000e+00 0.000e+00 0.000e+00 0.000e+00 0.000e+00 0.000e+00 0.000e+00 0.000e+00 0.000e+00 0.000e+00 5.695e-02 3.000e-02 0.000e+00 0.000e+00 5.658e-02 2.250e-02 0.000e+00 5.620e-02 2.750e-02 0.000e+00 0.000e+00 6.258e-02 4.500e-02 7.500e-03 0.000e+00 5.583e-02 3.000e-02 0.000e+00 0.000e+00 5.545e-02 3.250e-02 2.500e-03 0.000e+00 0.000e+00 5.508e-02 3.000e-02 0.000e+00 0.000e+00 5.470e-02 2.750e-02 0.000e+00 0.000e+00 5.433e-02 3.000e-02 0.000e+00 0.000e+00 0.000e+00 5.395e-02 2.000e-02 0.000e+00 0.000e+00 5.358e-02 2.500e-02 0.000e+00 0.000e+00 5.320e-02 2.750e-02 0.000e+00 0.000e+00 0.000e+00 5.283e-02 2.000e-02 0.000e+00 0.000e+00 5.245e-02 1.750e-02 0.000e+00 0.000e+00 6.220e-02 4.750e-02 1.500e-02 0.000e+00 0.000e+00 5.208e-02 2.250e-02 0.000e+00 0.000e+00 5.170e-02 2.500e-02 0.000e+00 0.000e+00 0.000e+00 5.133e-02 2.000e-02 0.000e+00 0.000e+00 5.095e-02 1.250e-02 0.000e+00 0.000e+00 5.058e-02 2.250e-02 0.000e+00 0.000e+00 0.000e+00 5.020e-02 1.250e-02 0.000e+00 0.000e+00 4.957e-02 1.250e-02 0.000e+00 0.000e+00 4.863e-02 1.000e-02 0.000e+00 0.000e+00 4.769e-02 1.500e-02 0.000e+00 0.000e+00 4.675e-02 2.500e-03 0.000e+00 6.183e-02 3.750e-02 0.000e+00 0.000e+00 4.582e-02 1.750e-02 0.000e+00 0.000e+00 0.000e+00 4.488e-02 1.500e-02 0.000e+00 0.000e+00 4.394e-02 1.000e-02 0.000e+00 0.000e+00 4.300e-02 1.000e-02 0.000e+00 0.000e+00 4.207e-02 7.500e-03 0.000e+00 0.000e+00 4.113e-02 1.000e-02 0.000e+00 0.000e+00 4.019e-02 7.500e-03 0.000e+00 0.000e+00 3.925e-02 7.500e-03 0.000e+00 0.000e+00 3.832e-02 0.000e+00 0.000e+00 3.738e-02 5.000e-03 0.000e+00 0.000e+00 6.145e-02 3.750e-02 0.000e+00 0.000e+00 3.644e-02 7.500e-03 0.000e+00 0.000e+00 3.550e-02 2.500e-03 0.000e+00 0.000e+00 3.457e-02 0.000e+00 0.000e+00 0.000e+00 3.363e-02 2.500e-03 0.000e+00 0.000e+00 3.269e-02 0.000e+00 0.000e+00 0.000e+00 3.175e-02 0.000e+00 0.000e+00 0.000e+00 3.082e-02 0.000e+00 0.000e+00 0.000e+00 2.988e-02 0.000e+00 0.000e+00 0.000e+00 2.894e-02 0.000e+00 0.000e+00 2.800e-02 0.000e+00 0.000e+00 6.108e-02 4.750e-02 1.750e-02 0.000e+00 0.000e+00 2.707e-02 0.000e+00 0.000e+00 2.613e-02 0.000e+00 0.000e+00 0.000e+00 2.519e-02 0.000e+00 0.000e+00 2.425e-02 0.000e+00 0.000e+00 2.332e-02 0.000e+00 0.000e+00 0.000e+00 2.238e-02 0.000e+00 0.000e+00 2.144e-02 0.000e+00 0.000e+00 2.050e-02 0.000e+00 0.000e+00 1.957e-02 0.000e+00 0.000e+00 0.000e+00 1.863e-02 0.000e+00 0.000e+00 6.070e-02 4.000e-02 2.500e-03 0.000e+00 1.769e-02 0.000e+00 0.000e+00 1.675e-02 0.000e+00 0.000e+00 1.582e-02 0.000e+00 0.000e+00 0.000e+00 1.488e-02 0.000e+00 0.000e+00 1.394e-02 0.000e+00 0.000e+00 1.300e-02 0.000e+00 0.000e+00 1.207e-02 0.000e+00 0.000e+00 1.113e-02 0.000e+00 1.019e-02 0.000e+00 0.000e+00 9.254e-03 0.000e+00 0.000e+00 6.033e-02 4.750e-02 1.750e-02 0.000e+00 0.000e+00 8.316e-03 0.000e+00 0.000e+00 7.379e-03 0.000e+00 0.000e+00 6.441e-03 0.000e+00 0.000e+00 5.504e-03 0.000e+00 0.000e+00 4.566e-03 0.000e+00 0.000e+00 3.629e-03 0.000e+00 0.000e+00 2.691e-03 0.000e+00 0.000e+00 1.754e-03 0.000e+00 8.160e-04 0.000e+00 0.000e+00 0.000e+00 0.000e+00 5.995e-02 4.500e-02 1.500e-02 0.000e+00 0.000e+00 0.000e+00 0.000e+00 0.000e+00 0.000e+00 0.000e+00 0.000e+00 0.000e+00 0.000e+00 0.000e+00 0.000e+00 0.000e+00 0.000e+00 0.000e+00 0.000e+00 0.000e+00 0.000e+00 0.000e+00 0.000e+00 0.000e+00 0.000e+00 0.000e+00 0.000e+00 0.000e+00 0.000e+00 0.000e+00 0.000e+00 9.833e-02 8.800e-02 8.300e-02 8.000e-02 7.700e-02 7.500e-02 7.300e-02 7.100e-02 6.900e-02 6.700e-02 6.500e-02 6.300e-02 6.100e-02 5.900e-02 5.700e-02 5.500e-02 5.300e-02 5.100e-02 4.750e-02 4.250e-02 3.750e-02 3.250e-02 2.750e-02 2.250e-02 1.750e-02 1.250e-02 7.500e-03 2.500e-03 0.000e+00 0.000e+00 0.000e+00 0.000e+00 0.000e+00 0.000e+00 0.000e+00 0.000e+00 0.000e+00 0.000e+00 0.000e+00 0.000e+00 0.000e+00 0.000e+00 0.000e+00 1.875e-02 0.000e+00 0.000e+00 1.782e-02 0.000e+00 0.000e+00 9.378e-03 0.000e+00 0.000e+00 8.441e-03 0.000e+00 0.000e+00 7.503e-03 0.000e+00 0.000e+00 6.566e