<?xml version="1.0"?>
<VTKFile type="UnstructuredGrid" version="0.1" byte_order="LittleEndian">
   <UnstructuredGrid>
      <Piece NumberOfPoints="1420" NumberOfCells="94">
         <Points>
            <DataArray type="Float32" Name="Position" NumberOfComponents="3" format="ascii">
0.002	-4.967	-0.025
0.013	-4.960	-0.009
0.020	-4.964	0.011
0.019	-4.979	0.026
0.010	-4.997	0.032
-0.002	-5.013	0.025
-0.013	-5.020	0.009
-0.020	-5.016	-0.011
-0.018	-5.001	-0.026
-0.010	-4.983	-0.032
0.642	-5.337	-0.318
0.654	-5.330	-0.302
0.659	-5.334	-0.282
0.656	-5.347	-0.266
0.646	-5.365	-0.259
0.632	-5.379	-0.265
0.621	-5.386	-0.281
0.615	-5.382	-0.301
0.618	-5.369	-0.317
0.628	-5.351	-0.324
1.256	-5.925	-0.573
1.269	-5.920	-0.557
1.273	-5.924	-0.537
1.268	-5.935	-0.520
1.254	-5.949	-0.513
1.238	-5.961	-0.519
1.225	-5.966	-0.534
1.220	-5.962	-0.555
1.226	-5.951	-0.572
1.240	-5.937	-0.579
1.637	-6.470	-0.751
1.650	-6.466	-0.735
1.654	-6.470	-0.715
1.647	-6.480	-0.697
1.633	-6.493	-0.690
1.615	-6.503	-0.695
1.602	-6.507	-0.711
1.598	-6.503	-0.731
1.605	-6.493	-0.749
1.620	-6.480	-0.756
-0.025	-4.967	0.002
-0.009	-4.958	-0.009
0.011	-4.962	-0.016
0.026	-4.976	-0.017
0.032	-4.996	-0.012
0.025	-5.013	-0.002
0.009	-5.022	0.009
-0.011	-5.018	0.016
-0.026	-5.004	0.017
-0.031	-4.984	0.011
-0.316	-5.230	-0.690
-0.298	-5.227	-0.700
-0.279	-5.236	-0.703
-0.267	-5.252	-0.699
-0.266	-5.271	-0.688
-0.277	-5.284	-0.676
-0.295	-5.286	-0.666
-0.314	-5.278	-0.662
-0.326	-5.261	-0.667
-0.327	-5.243	-0.677
-0.612	-5.765	-1.334
-0.594	-5.765	-1.343
-0.575	-5.774	-1.344
-0.563	-5.789	-1.335
-0.562	-5.804	-1.321
-0.574	-5.813	-1.306
-0.592	-5.813	-1.296
-0.611	-5.804	-1.295
-0.623	-5.789	-1.304
-0.624	-5.774	-1.319
-0.820	-6.258	-1.767
-0.803	-6.270	-1.763
-0.796	-6.285	-1.750
-0.800	-6.297	-1.734
-0.815	-6.302	-1.720
-0.835	-6.298	-1.714
-0.852	-6.286	-1.718
-0.859	-6.271	-1.731
-0.855	-6.259	-1.747
-0.840	-6.254	-1.761
0.021	-5.016	0.006
0.022	-5.004	0.022
0.015	-4.986	0.030
0.002	-4.969	0.027
-0.012	-4.961	0.013
-0.021	-4.964	-0.006
-0.022	-4.976	-0.022
-0.014	-4.994	-0.030
-0.002	-5.011	-0.027
0.012	-5.019	-0.013
-0.567	-5.406	0.341
-0.566	-5.396	0.359
-0.575	-5.380	0.370
-0.589	-5.365	0.369
-0.604	-5.356	0.357
-0.613	-5.357	0.338
-0.614	-5.367	0.320
-0.605	-5.383	0.309
-0.591	-5.399	0.310
-0.576	-5.407	0.322
-1.099	-6.049	0.611
-1.098	-6.042	0.630
-1.107	-6.029	0.644
-1.123	-6.016	0.647
-1.140	-6.007	0.638
-1.151	-6.006	0.620
-1.152	-6.014	0.600
-1.143	-6.027	0.586
-1.127	-6.040	0.584
-1.110	-6.048	0.593
-1.459	-6.587	0.835
-1.457	-6.579	0.854
-1.466	-6.567	0.869
-1.483	-6.555	0.873
-1.500	-6.547	0.864
-1.512	-6.546	0.847
-1.514	-6.553	0.827
-1.505	-6.565	0.813
-1.488	-6.578	0.809
-1.471	-6.586	0.817
0.027	-4.996	-0.020
0.029	-4.977	-0.012
0.021	-4.963	0.001
0.004	-4.959	0.014
-0.014	-4.967	0.021
-0.026	-4.984	0.020
-0.029	-5.003	0.012
-0.021	-5.017	-0.001
-0.004	-5.021	-0.014
0.014	-5.013	-0.021
0.410	-5.318	0.587
0.413	-5.300	0.598
0.405	-5.287	0.613
0.389	-5.285	0.626
0.371	-5.293	0.633
0.358	-5.309	0.631
0.355	-5.327	0.620
0.363	-5.340	0.605
0.379	-5.343	0.592
0.397	-5.334	0.585
0.863	-5.842	1.131
0.867	-5.827	1.145
0.861	-5.817	1.162
0.845	-5.815	1.176
0.827	-5.823	1.182
0.812	-5.838	1.177
0.808	-5.853	1.163
0.814	-5.864	1.146
0.830	-5.865	1.132
0.848	-5.857	1.126
1.157	-6.337	1.503
1.163	-6.323	1.517
1.156	-6.313	1.535
1.141	-6.312	1.549
1.122	-6.319	1.554
1.107	-6.333	1.548
1.101	-6.347	1.534
1.107	-6.356	1.516
1.123	-6.358	1.502
1.142	-6.350	1.497
-0.149	-4.999	0.148
-0.034	-5.000	0.207
0.095	-5.001	0.188
0.187	-5.001	0.096
0.208	-5.002	-0.032
0.149	-5.001	-0.148
0.034	-5.000	-0.207
-0.095	-4.999	-0.188
-0.187	-4.999	-0.096
-0.208	-4.998	0.032
-0.142	-4.250	0.146
-0.027	-4.250	0.205
0.100	-4.251	0.185
0.191	-4.251	0.094
0.211	-4.251	-0.033
0.153	-4.250	-0.147
0.038	-4.250	-0.206
-0.089	-4.249	-0.186
-0.180	-4.249	-0.095
-0.200	-4.249	0.032
-0.140	-3.290	0.149
-0.027	-3.290	0.207
0.100	-3.291	0.187
0.190	-3.290	0.097
0.210	-3.290	-0.029
0.152	-3.290	-0.143
0.038	-3.290	-0.201
-0.088	-3.290	-0.181
-0.178	-3.290	-0.090
-0.198	-3.290	0.036
-0.139	-2.400	0.149
-0.025	-2.400	0.207
0.100	-2.400	0.187
0.190	-2.400	0.097
0.210	-2.400	-0.028
0.152	-2.400	-0.141
0.039	-2.400	-0.199
-0.086	-2.400	-0.180
-0.176	-2.400	-0.090
-0.196	-2.400	0.036
-0.137	-1.800	0.147
-0.025	-1.800	0.205
0.101	-1.800	0.185
0.190	-1.800	0.096
0.210	-1.800	-0.029
0.153	-1.800	-0.142
0.040	-1.800	-0.200
-0.085	-1.800	-0.180
-0.175	-1.800	-0.091
-0.195	-1.800	0.034
-0.136	-1.200	0.146
-0.023	-1.200	0.204
0.102	-1.200	0.184
0.191	-1.200	0.095
0.210	-1.200	-0.030
0.153	-1.200	-0.143
0.041	-1.200	-0.200
-0.084	-1.200	-0.180
-0.173	-1.200	-0.091
-0.193	-1.200	0.034
-0.138	-0.301	0.148
-0.026	-0.300	0.204
0.098	-0.300	0.184
0.187	-0.299	0.095
0.206	-0.299	-0.029
0.149	-0.299	-0.141
0.037	-0.300	-0.198
-0.088	-0.300	-0.178
-0.176	-0.301	-0.089
-0.196	-0.301	0.036
-0.143	0.560	0.147
-0.031	0.560	0.204
0.093	0.560	0.184
0.182	0.560	0.095
0.201	0.560	-0.029
0.144	0.560	-0.140
0.032	0.560	-0.197
-0.092	0.560	-0.177
-0.180	0.559	-0.089
-0.200	0.559	0.035
-0.142	1.440	0.147
-0.030	1.440	0.203
0.093	1.440	0.184
0.182	1.440	0.095
0.201	1.440	-0.028
0.144	1.440	-0.140
0.033	1.440	-0.197
-0.091	1.440	-0.177
-0.179	1.440	-0.089
-0.199	1.440	0.035
-0.142	2.316	0.147
-0.032	2.316	0.203
0.091	2.316	0.184
0.179	2.316	0.096
0.199	2.316	-0.027
0.142	2.316	-0.138
0.031	2.317	-0.195
-0.092	2.317	-0.175
-0.180	2.317	-0.087
-0.199	2.316	0.036
-0.141	2.570	0.146
-0.031	2.570	0.202
0.091	2.569	0.183
0.179	2.569	0.096
0.198	2.569	-0.027
0.142	2.570	-0.137
0.032	2.570	-0.193
-0.090	2.570	-0.174
-0.178	2.570	-0.086
-0.197	2.570	0.036
0.002	-5.109	-0.005
0.005	-5.100	-0.004
0.002	-5.091	-0.003
-0.005	-5.085	-0.002
-0.014	-5.085	-0.000
-0.022	-5.090	0.000
-0.025	-5.099	-0.000
-0.022	-5.108	-0.002
-0.015	-5.114	-0.003
-0.006	-5.114	-0.005
0.113	-5.199	0.811
0.116	-5.190	0.811
0.113	-5.182	0.813
0.105	-5.177	0.815
0.096	-5.177	0.818
0.089	-5.183	0.819
0.087	-5.192	0.819
0.090	-5.201	0.817
0.097	-5.206	0.814
0.106	-5.205	0.812
0.287	-5.234	1.237
0.289	-5.225	1.237
0.285	-5.217	1.239
0.277	-5.213	1.243
0.269	-5.214	1.246
0.263	-5.221	1.248
0.261	-5.230	1.248
0.265	-5.238	1.246
0.272	-5.242	1.242
0.281	-5.241	1.239
-0.010	-5.210	-0.004
-0.006	-5.203	-0.006
-0.007	-5.194	-0.008
-0.013	-5.187	-0.009
-0.022	-5.184	-0.008
-0.030	-5.188	-0.006
-0.035	-5.195	-0.003
-0.034	-5.204	-0.001
-0.027	-5.211	-0.000
-0.018	-5.213	-0.001
0.115	-5.009	0.791
0.121	-5.002	0.790
0.121	-4.993	0.788
0.116	-4.986	0.786
0.107	-4.983	0.785
0.098	-4.986	0.785
0.093	-4.993	0.786
0.092	-5.002	0.788
0.098	-5.009	0.790
0.107	-5.012	0.791
0.012	-4.919	1.133
0.012	-4.915	1.141
0.012	-4.916	1.150
0.012	-4.923	1.156
0.012	-4.932	1.158
0.012	-4.940	1.154
0.012	-4.944	1.145
0.012	-4.943	1.136
0.012	-4.936	1.130
0.012	-4.927	1.128
-0.102	-6.083	-0.048
-0.094	-6.082	-0.052
-0.085	-6.085	-0.053
-0.080	-6.093	-0.050
-0.080	-6.101	-0.046
-0.085	-6.107	-0.041
-0.094	-6.108	-0.038
-0.102	-6.104	-0.037
-0.108	-6.097	-0.039
-0.107	-6.089	-0.044
-0.334	-6.459	-0.757
-0.326	-6.456	-0.761
-0.317	-6.458	-0.760
-0.310	-6.463	-0.757
-0.309	-6.470	-0.751
-0.313	-6.477	-0.746
-0.321	-6.479	-0.742
-0.330	-6.478	-0.743
-0.337	-6.472	-0.746
-0.338	-6.465	-0.752
-0.306	-6.578	-0.863
-0.298	-6.580	-0.860
-0.293	-6.585	-0.854
-0.294	-6.591	-0.847
-0.300	-6.596	-0.842
-0.309	-6.598	-0.841
-0.318	-6.596	-0.844
-0.322	-6.591	-0.851
-0.321	-6.585	-0.858
-0.315	-6.580	-0.863
-0.098	-6.187	-0.059
-0.091	-6.192	-0.056
-0.088	-6.198	-0.050
-0.091	-6.203	-0.042
-0.098	-6.205	-0.036
-0.106	-6.202	-0.034
-0.114	-6.197	-0.037
-0.116	-6.190	-0.043
-0.114	-6.186	-0.051
-0.106	-6.184	-0.057
-0.388	-6.801	-0.555
-0.380	-6.805	-0.554
-0.374	-6.810	-0.548
-0.374	-6.814	-0.540
-0.379	-6.817	-0.533
-0.387	-6.816	-0.529
-0.396	-6.813	-0.530
-0.401	-6.808	-0.535
-0.401	-6.803	-0.543
-0.396	-6.801	-0.551
-0.395	-6.877	-0.578
-0.390	-6.881	-0.571
-0.391	-6.884	-0.562
-0.397	-6.885	-0.555
-0.406	-6.884	-0.552
-0.414	-6.881	-0.555
-0.418	-6.877	-0.562
-0.418	-6.874	-0.571
-0.412	-6.873	-0.578
-0.403	-6.875	-0.581
-0.102	-6.305	-0.045
-0.097	-6.297	-0.045
-0.098	-6.288	-0.046
-0.104	-6.281	-0.047
-0.113	-6.279	-0.048
-0.121	-6.283	-0.049
-0.126	-6.290	-0.049
-0.126	-6.300	-0.048
-0.120	-6.307	-0.047
-0.111	-6.309	-0.046
-0.195	-6.262	0.726
-0.190	-6.254	0.727
-0.191	-6.245	0.726
-0.197	-6.238	0.725
-0.206	-6.235	0.724
-0.214	-6.239	0.723
-0.219	-6.247	0.723
-0.218	-6.256	0.723
-0.213	-6.263	0.724
-0.204	-6.265	0.726
-0.130	-6.397	-0.036
-0.132	-6.388	-0.038
-0.130	-6.382	-0.044
-0.125	-6.379	-0.051
-0.118	-6.382	-0.057
-0.113	-6.390	-0.060
-0.111	-6.399	-0.057
-0.113	-6.405	-0.051
-0.118	-6.408	-0.044
-0.124	-6.405	-0.038
-0.794	-6.688	-0.584
-0.796	-6.680	-0.587
-0.794	-6.673	-0.593
-0.789	-6.671	-0.600
-0.783	-6.674	-0.606
-0.778	-6.681	-0.608
-0.776	-6.690	-0.606
-0.778	-6.697	-0.600
-0.783	-6.699	-0.593
-0.789	-6.696	-0.587
-0.127	-6.505	-0.038
-0.126	-6.497	-0.033
-0.126	-6.488	-0.033
-0.128	-6.481	-0.039
-0.130	-6.478	-0.048
-0.132	-6.482	-0.056
-0.133	-6.489	-0.061
-0.133	-6.499	-0.061
-0.131	-6.506	-0.055
-0.129	-6.508	-0.046
-0.962	-6.529	0.163
-0.961	-6.522	0.168
-0.962	-6.512	0.167
-0.963	-6.505	0.162
-0.966	-6.503	0.153
-0.967	-6.506	0.145
-0.968	-6.514	0.140
-0.968	-6.523	0.140
-0.966	-6.530	0.146
-0.964	-6.533	0.154
-0.147	-6.581	-0.048
-0.139	-6.579	-0.052
-0.130	-6.582	-0.054
-0.124	-6.589	-0.053
-0.123	-6.598	-0.049
-0.128	-6.604	-0.044
-0.136	-6.607	-0.040
-0.144	-6.604	-0.039
-0.150	-6.597	-0.040
-0.151	-6.588	-0.044
-0.381	-6.887	-0.710
-0.373	-6.885	-0.714
-0.365	-6.888	-0.716
-0.359	-6.895	-0.714
-0.358	-6.903	-0.711
-0.362	-6.910	-0.706
-0.370	-6.912	-0.702
-0.379	-6.909	-0.701
-0.385	-6.902	-0.702
-0.386	-6.894	-0.705
-0.152	-6.680	-0.052
-0.145	-6.678	-0.046
-0.138	-6.680	-0.041
-0.134	-6.688	-0.037
-0.134	-6.697	-0.037
-0.138	-6.705	-0.041
-0.145	-6.708	-0.046
-0.152	-6.705	-0.052
-0.156	-6.697	-0.055
-0.156	-6.688	-0.055
0.312	-6.680	-0.634
0.319	-6.678	-0.629
[...]
         <CellData>
           <DataArray type="Float32" Name="aerenchymaFormation" NumberOfComponents="1" format="ascii">
 0.000e+00 0.000e+00 0.000e+00 0.000e+00 0.000e+00 0.000e+00 0.000e+00 0.000e+00 0.000e+00 0.000e+00 0.000e+00 0.000e+00 0.000e+00 0.000e+00 0.000e+00 0.000e+00 0.000e+00 0.000e+00 0.000e+00 0.000e+00 0.000e+00 0.000e+00 0.000e+00 0.000e+00 0.000e+00 0.000e+00 0.000e+00 0.000e+00 0.000e+00 0.000e+00 0.000e+00 0.000e+00 0.000e+00 0.000e+00 0.000e+00 0.000e+00 0.000e+00 0.000e+00 0.000e+00 0.000e+00 0.000e+00 0.000e+00 0.000e+00 0.000e+00 0.000e+00 0.000e+00 0.000e+00 0.000e+00 0.000e+00 0.000e+00 0.000e+00 0.000e+00 0.000e+00 0.000e+00 0.000e+00 0.000e+00 0.000e+00 0.000e+00 0.000e+00 0.000e+00 0.000e+00 0.000e+00 0.000e+00 0.000e+00 0.000e+00 0.000e+00 0.000e+00 0.000e+00 0.000e+00 0.000e+00 0.000e+00 0.000e+00 0.000e+00 0.000e+00 0.000e+00 6.000e-02 5.700e-02 5.400e-02 5.100e-02 4.500e-02 3.750e-02 2.750e-02 2.000e-02 1.250e-02 2.500e-03 0.000e+00 0.000e+00 0.000e+00 0.000e+00 0.000e+00 0.000e+00 0.000e+00 0.000e+00 0.000e+00
           </DataArray>
           <DataArray type="Float32" Name="combinedRootClassID" NumberOfComponents="1" format="ascii">
 -5.000e+00 -5.000e+00 -5.000e+00 -5.000e+00 -5.000e+00 -5.000e+00 -5.000e+00 -5.000e+00 -5.000e+00 -5.000e+00 -5.000e+00 -5.000e+00 -2.000e+00 -2.000e+00 -2.000e+00 -2.000e+00 -2.000e+00 -2.000e+00 -2.000e+00 -2.000e+00 -2.000e+00 -2.000e+00 -7.000e+00 -7.000e+00 -7.000e+00 -7.000e+00 -7.000e+00 -7.000e+00 -7.000e+00 -7.000e+00 -7.000e+00 -7.000e+00 -7.000e+00 -7.000e+00 -7.000e+00 -7.000e+00 -7.000e+00 -7.000e+00 -7.000e+00 -7.000e+00 -7.000e+00 -7.000e+00 -7.000e+00 -7.000e+00 -7.000e+00 -7.000e+00 -7.000e+00 -7.000e+00 -7.000e+00 -7.000e+00 -7.000e+00 -7.000e+00 -7.000e+00 -7.000e+00 -7.000e+00 -7.000e+00 -7.000e+00 -7.000e+00 -7.000e+00 -7.000e+00 -7.000e+00 -7.000e+00 -7.000e+00 -7.000e+00 -7.000e+00 -7.000e+00 -7.000e+00 -7.000e+00 -7.000e+00 -7.000e+00 -7.000e+00 -7.000e+00 -7.000e+00 -7.000e+00 -9.000e+00 -4.000e+00 -4.000e+00 -4.000e+00 -4.000e+00 -4.000e+00 -4.000e+00 -4.000e+00 -4.000e+00 -4.000e+00 -4.000e+00 -4.000e+00 -4.000e+00 -4.000e+00 -4.000e+00 -4.000e+00 -4.000e+00 -4.000e+00 -4.000e+00 -4.000e+00
           </DataArray>
           <DataArray type="Float32" Name="nitrate/Cmin" NumberOfComponents="1" format="ascii">
 1.000e-03 1.000e-03 1.000e-03 1.000e-03 1.000e-03 1.000e-03 1.000e-03 1.000e-03 1.000e-03 1.000e-03 1.000e-03 1.000e-03 1.000e-03 1.000e-03 1.000e-03 1.000e-03 1.000e-03 1.000e-03 1.000e-03 1.000e-03 1.000e-03 1.000e-03 1.000e-03 1.000e-03 1.000e-03 1.000e-03 1.000e-03 1.000e-03 1.000e-03 1.000e-03 1.000e-03 1.000e-03 1.000e-03 1.000e-03 1.000e-03 1.000e-03 1.000e-03 1.000e-03 1.000e-03 1.000e-03 1.000e-03 1.000e-03 1.000e-03 1.000e-03 1.000e-03 1.000e-03 1.000e-03 1.000e-03 1.000e-03 1.000e-03 1.000e-03 1.000e-03 1.000e-03 1.000e-03 1.000e-03 1.000e-03 1.000e-03 1.000e-03 1.000e-03 1.000e-03 1.000e-03 1.000e-03 1.000e-03 1.000e-03 1.000e-03 1.000e-03 1.000e-03 1.000e-03 1.000e-03 1.000e-03 1.000e-03 1.000e-03 1.000e-03 1.000e-03 1.000e-03 1.000e-03 1.000e-03 1.000e-03 1.000e-03 1.000e-03 1.000e-03 1.000e-03 1.000e-03 1.000e-03 1.000e-03 1.000e-03 1.000e-03 1.000e-03 1.000e-03 1.000e-03 1.000e-03 1.000e-03 1.000e-03 1.000e-03
           </DataArray>
           <DataArray type="Float32" Name="nitrate/Imax" NumberOfComponents="1" format="ascii">
 1.900e+00 1.900e+00 1.900e+00 1.900e+00 1.900e+00 1.900e+00 1.900e+00 1.900e+00 1.900e+00 1.900e+00 1.900e+00 1.900e+00 1.900e+00 1.900e+00 1.900e+00 1.900e+00 1.900e+00 1.900e+00 1.900e+00 1.900e+00 1.900e+00 1.900e+00 1.900e+00 1.900e+00 1.900e+00 1.900e+00 1.900e+00 1.900e+00 1.900e+00 1.900e+00 1.900e+00 1.900e+00 1.900e+00 1.900e+00 1.900e+00 1.900e+00 1.900e+00 1.900e+00 1.900e+00 1.900e+00 1.900e+00 1.900e+00 1.900e+00 1.900e+00 1.900e+00 1.900e+00 1.900e+00 1.900e+00 1.900e+00 1.900e+00 1.900e+00 1.900e+00 1.900e+00 1.900e+00 1.900e+00 1.900e+00 1.900e+00 1.900e+00 1.900e+00 1.900e+00 1.900e+00 1.900e+00 1.900e+00 1.900e+00 1.900e+00 1.900e+00 1.900e+00 1.900e+00 1.900e+00 1.900e+00 1.900e+00 1.900e+00 1.900e+00 1.900e+00 1.900e+00 1.900e+00 1.900e+00 1.900e+00 1.900e+00 1.900e+00 1.900e+00 1.900e+00 1.900e+00 1.900e+00 1.900e+00 1.900e+00 1.900e+00 1.900e+00 1.900e+00 1.900e+00 1.900e+00 1.900e+00 1.900e+00 1.900e+00
           </DataArray>
           <DataArray type="Float32" Name="nitrate/Km" NumberOfComponents="1" format="ascii">
 1.610e-02 1.610e-02 1.610e-02 1.610e-02 1.610e-02 1.610e-02 1.610e-02 1.610e-02 1.610e-02 1.610e-02 1.610e-02 1.610e-02 1.610e-02 1.610e-02 1.610e-02 1.610e-02 1.610e-02 1.610e-02 1.610e-02 1.610e-02 1.610e-02 1.610e-02 1.610e-02 1.610e-02 1.610e-02 1.610e-02 1.610e-02 1.610e-02 1.610e-02 1.610e-02 1.610e-02 1.610e-02 1.610e-02 1.610e-02 1.610e-02 1.610e-02 1.610e-02 1.610e-02 1.610e-02 1.610e-02 1.610e-02 1.610e-02 1.610e-02 1.610e-02 1.610e-02 1.610e-02 1.610e-02 1.610e-02 1.610e-02 1.610e-02 1.610e-02 1.610e-02 1.610e-02 1.610e-02 1.610e-02 1.610e-02 1.610e-02 1.610e-02 1.610e-02 1.610e-02 1.610e-02 1.610e-02 1.610e-02 1.610e-02 1.610e-02 1.610e-02 1.610e-02 1.610e-02 1.610e-02 1.610e-02 1.610e-02 1.610e-02 1.610e-02 1.610e-02 1.610e-02 1.610e-02 1.610e-02 1.610e-02 1.610e-02 1.610e-02 1.610e-02 1.610e-02 1.610e-02 1.610e-02 1.610e-02 1.610e-02 1.610e-02 1.610e-02 1.610e-02 1.610e-02 1.610e-02 1.610e-02 1.610e-02 1.610e-02
           </DataArray>
           <DataArray type="Float32" Name="nitrate/minimalNutrientConcentration" NumberOfComponents="1" format="ascii">
 6.000e+02 6.000e+02 6.000e+02 6.000e+02 6.000e+02 6.000e+02 6.000e+02 6.000e+02 6.000e+02 6.000e+02 6.000e+02 6.000e+02 6.000e+02 6.000e+02 6.000e+02 6.000e+02 6.000e+02 6.000e+02 6.000e+02 6.000e+02 6.000e+02 6.000e+02 6.000e+02 6.000e+02 6.000e+02 6.000e+02 6.000e+02 6.000e+02 6.000e+02 6.000e+02 6.000e+02 6.000e+02 6.000e+02 6.000e+02 6.000e+02 6.000e+02 6.000e+02 6.000e+02 6.000e+02 6.000e+02 6.000e+02 6.000e+02 6.000e+02 6.000e+02 6.000e+02 6.000e+02 6.000e+02 6.000e+02 6.000e+02 6.000e+02 6.000e+02 6.000e+02 6.000e+02 6.000e+02 6.000e+02 6.000e+02 6.000e+02 6.000e+02 6.000e+02 6.000e+02 6.000e+02 6.000e+02 6.000e+02 6.000e+02 6.000e+02 6.000e+02 6.000e+02 6.000e+02 6.000e+02 6.000e+02 6.000e+02 6.000e+02 6.000e+02 6.000e+02 6.000e+02 6.000e+02 6.000e+02 6.000e+02 6.000e+02 6.000e+02 6.000e+02 6.000e+02 6.000e+02 6.000e+02 6.000e+02 6.000e+02 6.000e+02 6.000e+02 6.000e+02 6.000e+02 6.000e+02 6.000e+02 6.000e+02 6.000e+02
           </DataArray>
           <DataArray type="Float32" Name="nitrate/nutrientConcentrationAtTheRootSurface" NumberOfComponents="1" format="ascii">
 1.666e+00 1.783e+00 2.126e+00 1.666e+00 1.758e+00 2.109e+00 1.666e+00 1.767e+00 2.107e+00 1.666e+00 1.718e+00 2.088e+00 1.668e+00 1.388e+00 1.061e+00 8.132e-01 6.770e-01 6.062e-01 4.220e-01 0.000e+00 0.000e+00 0.000e+00 1.744e+00 1.781e+00 1.762e+00 1.687e+00 2.080e+00 2.148e+00 2.090e+00 2.172e+00 2.103e+00 2.121e+00 2.141e+00 2.161e+00 2.178e+00 2.192e+00 2.208e+00 2.227e+00 1.788e+00 1.777e+00 2.243e+00 2.263e+00 2.271e+00 2.281e+00 2.291e+00 2.301e+00 2.308e+00 2.313e+00 2.319e+00 2.328e+00 1.820e+00 1.972e+00 2.338e+00 2.348e+00 2.367e+00 2.381e+00 2.397e+00 2.411e+00 2.421e+00 2.425e+00 2.430e+00 1.332e+00 1.856e+00 1.989e+00 6.444e-01 1.893e+00 2.039e+00 1.925e+00 2.005e+00 1.952e+00 1.874e+00 1.971e+00 2.046e+00 2.027e+00 2.430e+00 1.668e+00 1.927e+00 2.123e+00 2.251e+00 2.314e+00 2.403e+00 2.528e+00 2.615e+00 2.742e+00 2.907e+00 3.022e+00 3.078e+00 3.209e+00 3.313e+00 3.422e+00 3.432e+00 3.553e+00 3.680e+00 3.739e+00
           </DataArray>
           <DataArray type="Float32" Name="nitrate/optimalNutrientConcentration" NumberOfComponents="1" format="ascii">
 1.200e+03 1.200e+03 1.200e+03 1.200e+03 1.200e+03 1.200e+03 1.200e+03 1.200e+03 1.200e+03 1.200e+03 1.200e+03 1.200e+03 1.200e+03 1.200e+03 1.200e+03 1.200e+03 1.200e+03 1.200e+03 1.200e+03 1.200e+03 1.200e+03 1.200e+03 1.200e+03 1.200e+03 1.200e+03 1.200e+03 1.200e+03 1.200e+03 1.200e+03 1.200e+03 1.200e+03 1.200e+03 1.200e+03 1.200e+03 1.200e+03 1.200e+03 1.200e+03 1.200e+03 1.200e+03 1.200e+03 1.200e+03 1.200e+03 1.200e+03 1.200e+03 1.200e+03 1.200e+03 1.200e+03 1.200e+03 1.200e+03 1.200e+03 1.200e+03 1.200e+03 1.200e+03 1.200e+03 1.200e+03 1.200e+03 1.200e+03 1.200e+03 1.200e+03 1.200e+03 1.200e+03 1.200e+03 1.200e+03 1.200e+03 1.200e+03 1.200e+03 1.200e+03 1.200e+03 1.200e+03 1.200e+03 1.200e+03 1.200e+03 1.200e+03 1.200e+03 1.200e+03 1.200e+03 1.200e+03 1.200e+03 1.200e+03 1.200e+03 1.200e+03 1.200e+03 1.200e+03 1.200e+03 1.200e+03 1.200e+03 1.200e+03 1.200e+03 1.200e+03 1.200e+03 1.200e+03 1.200e+03 1.200e+03 1.200e+03
           </DataArray>
           <DataArray type="Float32" Name="nitrate/rootSegmentMinimalNutrientContent" NumberOfComponents="1" format="ascii">
 1.632e-01 1.811e-01 1.406e-01 1.632e-01 1.811e-01 1.406e-01 1.632e-01 1.811e-01 1.406e-01 1.632e-01 1.811e-01 1.406e-01 5.806e+00 7.305e+00 6.690e+00 4.488e+00 4.462e+00 6.659e+00 6.322e+00 6.436e+00 6.333e+00 1.809e+00 3.474e-02 1.868e-02 3.547e-02 1.511e-02 3.445e-02 6.313e-03 3.515e-02 3.060e-03 3.249e-02 3.720e-02 3.482e-02 3.131e-02 3.150e-02 3.290e-02 2.735e-02 3.330e-02 3.539e-02 2.059e-02 2.705e-02 2.533e-02 2.495e-02 1.948e-02 2.416e-02 2.379e-02 1.499e-02 1.771e-02 1.666e-02 1.490e-02 3.637e-02 1.224e-02 1.459e-02 1.203e-02 1.027e-02 1.030e-02 7.777e-03 5.633e-03 5.572e-03 4.477e-03 2.928e-03 1.648e-03 3.567e-02 1.705e-02 5.150e-04 3.307e-02 1.199e-02 3.400e-02 1.281e-02 3.556e-02 5.834e-03 3.550e-02 6.035e-03 3.667e-02 5.936e-03 3.227e-01 3.135e-01 3.050e-01 2.972e-01 2.901e-01 3.789e-01 2.780e-01 2.745e-01 3.617e-01 2.674e-01 2.649e-01 3.501e-01 2.600e-01 2.583e-01 2.569e-01 2.557e-01 2.549e-01 2.542e-01 2.538e-01
           </DataArray>
           <DataArray type="Float32" Name="nitrate/rootSegmentNutrientUptake" NumberOfComponents="1" format="ascii">
 0.000e+00 2.082e-01 5.418e-02 0.000e+00 2.081e-01 5.418e-02 0.000e+00 2.081e-01 5.418e-02 0.000e+00 2.081e-01 5.417e-02 0.000e+00 5.574e+00 4.420e+00 3.454e+00 2.786e+00 2.217e+00 1.291e+00 5.794e-02 0.000e+00 0.000e+00 0.000e+00 2.910e-02 0.000e+00 2.017e-02 0.000e+00 4.221e-03 0.000e+00 1.364e-03 0.000e+00 0.000e+00 0.000e+00 0.000e+00 0.000e+00 0.000e+00 0.000e+00 0.000e+00 0.000e+00 3.209e-02 0.000e+00 0.000e+00 0.000e+00 0.000e+00 0.000e+00 0.000e+00 0.000e+00 0.000e+00 0.000e+00 0.000e+00 0.000e+00 1.363e-02 0.000e+00 0.000e+00 0.000e+00 0.000e+00 0.000e+00 0.000e+00 0.000e+00 0.000e+00 0.000e+00 0.000e+00 0.000e+00 2.279e-02 0.000e+00 0.000e+00 1.336e-02 0.000e+00 1.428e-02 0.000e+00 3.899e-03 0.000e+00 4.034e-03 0.000e+00 0.000e+00 0.000e+00 2.183e+00 2.058e+00 1.936e+00 1.814e+00 2.233e+00 1.535e+00 1.417e+00 1.708e+00 1.144e+00 1.028e+00 1.192e+00 7.595e-01 6.450e-01 5.307e-01 4.166e-01 3.029e-01 1.892e-01 7.566e-02
           </DataArray>
           <DataArray type="Float32" Name="nitrate/rootSegmentOptimalNutrientContent" NumberOfComponents="1" format="ascii">
 3.265e-01 3.621e-01 2.812e-01 3.265e-01 3.621e-01 2.812e-01 3.265e-01 3.621e-01 2.812e-01 3.265e-01 3.621e-01 2.812e-01 1.161e+01 1.461e+01 1.338e+01 8.976e+00 8.924e+00 1.332e+01 1.264e+01 1.287e+01 1.267e+01 3.619e+00 6.948e-02 3.735e-02 7.094e-02 3.022e-02 6.890e-02 1.263e-02 7.031e-02 6.119e-03 6.497e-02 7.441e-02 6.964e-02 6.262e-02 6.300e-02 6.579e-02 5.470e-02 6.659e-02 7.078e-02 4.119e-02 5.410e-02 5.065e-02 4.991e-02 3.896e-02 4.832e-02 4.758e-02 2.998e-02 3.541e-02 3.332e-02 2.979e-02 7.274e-02 2.448e-02 2.918e-02 2.406e-02 2.054e-02 2.060e-02 1.555e-02 1.127e-02 1.114e-02 8.955e-03 5.856e-03 3.296e-03 7.134e-02 3.410e-02 1.030e-03 6.615e-02 2.397e-02 6.799e-02 2.563e-02 7.112e-02 1.167e-02 7.100e-02 1.207e-02 7.335e-02 1.187e-02 6.454e-01 6.270e-01 6.100e-01 5.944e-01 5.802e-01 7.578e-01 5.560e-01 5.489e-01 7.234e-01 5.349e-01 5.298e-01 7.003e-01 5.199e-01 5.166e-01 5.138e-01 5.115e-01 5.097e-01 5.084e-01 5.077e-01
           </DataArray>
           <DataArray type="Float32" Name="parentRootClassID" NumberOfComponents="1" format="ascii">
 -2.000e+00 -2.000e+00 -2.000e+00 -2.000e+00 -2.000e+00 -2.000e+00 -2.000e+00 -2.000e+00 -2.000e+00 -2.000e+00 -2.000e+00 -2.000e+00 -3.000e+00 -3.000e+00 -3.000e+00 -3.000e+00 -3.000e+00 -3.000e+00 -3.000e+00 -3.000e+00 -3.000e+00 -3.000e+00 -4.000e+00 -4.000e+00 -4.000e+00 -4.000e+00 -4.000e+00 -4.000e+00 -4.000e+00 -4.000e+00 -4.000e+00 -4.000e+00 -4.000e+00 -4.000e+00 -4.000e+00 -4.000e+00 -4.000e+00 -4.000e+00 -4.000e+00 -4.000e+00 -4.000e+00 -4.000e+00 -4.000e+00 -4.000e+00 -4.000e+00 -4.000e+00 -4.000e+00 -4.000e+00 -4.000e+00 -4.000e+00 -4.000e+00 -4.000e+00 -4.000e+00 -4.000e+00 -4.000e+00 -4.000e+00 -4.000e+00 -4.000e+00 -4.000e+00 -4.000e+00 -4.000e+00 -4.000e+00 -4.000e+00 -4.000e+00 -4.000e+00 -4.000e+00 -4.000e+00 -4.000e+00 -4.000e+00 -4.000e+00 -4.000e+00 -4.000e+00 -4.000e+00 -4.000e+00 -4.000e+00 -3.000e+00 -3.000e+00 -3.000e+00 -3.000e+00 -3.000e+00 -3.000e+00 -3.000e+00 -3.000e+00 -3.000e+00 -3.000e+00 -3.000e+00 -3.000e+00 -3.000e+00 -3.000e+00 -3.000e+00 -3.000e+00 -3.000e+00 -3.000e+00 -3.000e+00
           </DataArray>
           <DataArray type="Float32" Name="plantID" NumberOfComponents="1" format="ascii">
 7.000e+00 7.000e+00 7.000e+00 7.000e+00 7.000e+00 7.000e+00 7.000e+00 7.000e+00 7.000e+00 7.000e+00 7.000e+00 7.000e+00 7.000e+00 7.000e+00 7.000e+00 7.000e+00 7.000e+00 7.000e+00 7.000e+00 7.000e+00 7.000e+00 7.000e+00 7.000e+00 7.000e+00 7.000e+00 7.000e+00 7.000e+00 7.000e+00 7.000e+00 7.000e+00 7.000e+00 7.000e+00 7.000e+00 7.000e+00 7.000e+00 7.000e+00 7.000e+00 7.000e+00 7.000e+00 7.000e+00 7.000e+00 7.000e+00 7.000e+00 7.000e+00 7.000e+00 7.000e+00 7.000e+00 7.000e+00 7.000e+00 7.000e+00 7.000e+00 7.000e+00 7.000e+00 7.000e+00 7.000e+00 7.000e+00 7.000e+00 7.000e+00 7.000e+00 7.000e+00 7.000e+00 7.000e+00 7.000e+00 7.000e+00 7.000e+00 7.000e+00 7.000e+00 7.000e+00 7.000e+00 7.000e+00 7.000e+00 7.000e+00 7.000e+00 7.000e+00 7.000e+00 7.000e+00 7.000e+00 7.000e+00 7.000e+00 7.000e+00 7.000e+00 7.000e+00 7.000e+00 7.000e+00 7.000e+00 7.000e+00 7.000e+00 7.000e+00 7.000e+00 7.000e+00 7.000e+00 7.000e+00 7.000e+00 7.000e+00
           </DataArray>
           <DataArray type="Float32" Name="plantTypeID" NumberOfComponents="1" format="ascii">
 0.000e+00 0.000e+00 0.000e+00 0.000e+00 0.000e+00 0.000e+00 0.000e+00 0.000e+00 0.000e+00 0.000e+00 0.000e+00 0.000e+00 0.000e+00 0.000e+00 0.000e+00 0.000e+00 0.000e+00 0.000e+00 0.000e+00 0.000e+00 0.000e+00 0.000e+00 0.000e+00 0.000e+00 0.000e+00 0.000e+00 0.000e+00 0.000e+00 0.000e+00 0.000e+00 0.000e+00 0.000e+00 0.000e+00 0.000e+00 0.000e+00 0.000e+00 0.000e+00 0.000e+00 0.000e+00 0.000e+00 0.000e+00 0.000e+00 0.000e+00 0.000e+00 0.000e+00 0.000e+00 0.000e+00 0.000e+00 0.000e+00 0.000e+00 0.000e+00 0.000e+00 0.000e+00 0.000e+00 0.000e+00 0.000e+00 0.000e+00 0.000e+00 0.000e+00 0.000e+00 0.000e+00 0.000e+00 0.000e+00 0.000e+00 0.000e+00 0.000e+00 0.000e+00 0.000e+00 0.000e+00 0.000e+00 0.000e+00 0.000e+00 0.000e+00 0.000e+00 0.000e+00 0.000e+00 0.000e+00 0.000e+00 0.000e+00 0.000e+00 0.000e+00 0.000e+00 0.000e+00 0.000e+00 0.000e+00 0.000e+00 0.000e+00 0.000e+00 0.000e+00 0.000e+00 0.000e+00 0.000e+00 0.000e+00 0.000e+00
           </DataArray>
           <DataArray type="Float32" Name="potassium/Cmin" NumberOfComponents="1" format="ascii">
 2.000e-03 2.000e-03 2.000e-03 2.000e-03 2.000e-03 2.000e-03 2.000e-03 2.000e-03 2.000e-03 2.000e-03 2.000e-03 2.000e-03 2.000e-03 2.000e-03 2.000e-03 2.000e-03 2.000e-03 2.000e-03 2.000e-03 2.000e-03 2.000e-03 2.000e-03 2.000e-03 2.000e-03 2.000e-03 2.000e-03 2.000e-03 2.000e-03 2.000e-03 2.000e-03 2.000e-03 2.000e-03 2.000e-03 2.000e-03 2.000e-03 2.000e-03 2.000e-03 2.000e-03 2.000e-03 2.000e-03 2.000e-03 2.000e-03 2.000e-03 2.000e-03 2.000e-03 2.000e-03 2.000e-03 2.000e-03 2.000e-03 2.000e-03 2.000e-03 2.000e-03 2.000e-03 2.000e-03 2.000e-03 2.000e-03 2.000e-03 2.000e-03 2.000e-03 2.000e-03 2.000e-03 2.000e-03 2.000e-03 2.000e-03 2.000e-03 2.000e-03 2.000e-03 2.000e-03 2.000e-03 2.000e-03 2.000e-03 2.000e-03 2.000e-03 2.000e-03 2.000e-03 2.000e-03 2.000e-03 2.000e-03 2.000e-03 2.000e-03 2.000e-03 2.000e-03 2.000e-03 2.000e-03 2.000e-03 2.000e-03 2.000e-03 2.000e-03 2.000e-03 2.000e-03 2.000e-03 2.000e-03 2.000e-03 2.000e-03
           </DataArray>
           <DataArray type="Float32" Name="potassium/Imax" NumberOfComponents="1" format="ascii">
 4.670e-01 4.670e-01 4.670e-01 4.670e-01 4.670e-01 4.670e-01 4.670e-01 4.670e-01 4.670e-01 4.670e-01 4.670e-01 4.670e-01 4.670e-01 4.670e-01 4.670e-01 4.670e-01 4.670e-01 4.670e-01 4.670e-01 4.670e-01 4.670e-01 4.670e-01 4.670e-01 4.670e-01 4.670e-01 4.670e-01 4.670e-01 4.670e-01 4.670e-01 4.670e-01 4.670e-01 4.670e-01 4.670e-01 4.670e-01 4.670e-01 4.670e-01 4.670e-01 4.670e-01 4.670e-01 4.670e-01 4.670e-01 4.670e-01 4.670e-01 4.670e-01 4.670e-01 4.670e-01 4.670e-01 4.670e-01 4.670e-01 4.670e-01 4.670e-01 4.670e-01 4.670e-01 4.670e-01 4.670e-01 4.670e-01 4.670e-01 4.670e-01 4.670e-01 4.670e-01 4.670e-01 4.670e-01 4.670e-01 4.670e-01 4.670e-01 4.670e-01 4.670e-01 4.670e-01 4.670e-01 4.670e-01 4.670e-01 4.670e-01 4.670e-01 4.670e-01 4.670e-01 4.670e-01 4.670e-01 4.670e-01 4.670e-01 4.670e-01 4.670e-01 4.670e-01 4.670e-01 4.670e-01 4.670e-01 4.670e-01 4.670e-01 4.670e-01 4.670e-01 4.670e-01 4.670e-01 4.670e-01 4.670e-01 4.670e-01
           </DataArray>
           <DataArray type="Float32" Name="potassium/Km" NumberOfComponents="1" format="ascii">
 3.900e-02 3.900e-02 3.900e-02 3.900e-02 3.900e-02 3.900e-02 3.900e-02 3.900e-02 3.900e-02 3.900e-02 3.900e-02 3.900e-02 3.900e-02 3.900e-02 3.900e-02 3.900e-02 3.900e-02 3.900e-02 3.900e-02 3.900e-02 3.900e-02 3.900e-02 3.900e-02 3.900e-02 3.900e-02 3.900e-02 3.900e-02 3.900e-02 3.900e-02 3.900e-02 3.900e-02 3.900e-02 3.900e-02 3.900e-02 3.900e-02 3.900e-02 3.900e-02 3.900e-02 3.900e-02 3.900e-02 3.900e-02 3.900e-02 3.900e-02 3.900e-02 3.900e-02 3.900e-02 3.900e-02 3.900e-02 3.900e-02 3.900e-02 3.900e-02 3.900e-02 3.900e-02 3.900e-02 3.900e-02 3.900e-02 3.900e-02 3.900e-02 3.900e-02 3.900e-02 3.900e-02 3.900e-02 3.900e-02 3.900e-02 3.900e-02 3.900e-02 3.900e-02 3.900e-02 3.900e-02 3.900e-02 3.900e-02 3.900e-02 3.900e-02 3.900e-02 3.900e-02 3.900e-02 3.900e-02 3.900e-02 3.900e-02 3.900e-02 3.900e-02 3.900e-02 3.900e-02 3.900e-02 3.900e-02 3.900e-02 3.900e-02 3.900e-02 3.900e-02 3.900e-02 3.900e-02 3.900e-02 3.900e-02 3.900e-02
           </DataArray>
           <DataArray type="Float32" Name="potassium/minimalNutrientConcentration" NumberOfComponents="1" format="ascii">
 1.680e+02 1.680e+02 1.680e+02 1.680e+02 1.680e+02 1.680e+02 1.680e+02 1.680e+02 1.680e+02 1.680e+02 1.680e+02 1.680e+02 1.680e+02 1.680e+02 1.680e+02 1.680e+02 1.680e+02 1.680e+02 1.680e+02 1.680e+02 1.680e+02 1.680e+02 1.680e+02 1.680e+02 1.680e+02 1.680e+02 1.680e+02 1.680e+02 1.680e+02 1.680e+02 1.680e+02 1.680e+02 1.680e+02 1.680e+02 1.680e+02 1.680e+02 1.680e+02 1.680e+02 1.680e+02 1.680e+02 1.680e+02 1.680e+02 1.680e+02 1.680e+02 1.680e+02 1.680e+02 1.680e+02 1.680e+02 1.680e+02 1.680e+02 1.680e+02 1.680e+02 1.680e+02 1.680e+02 1.680e+02 1.680e+02 1.680e+02 1.680e+02 1.680e+02 1.680e+02 1.680e+02 1.680e+02 1.680e+02 1.680e+02 1.680e+02 1.680e+02 1.680e+02 1.680e+02 1.680e+02 1.680e+02 1.680e+02 1.680e+02 1.680e+02 1.680e+02 1.680e+02 1.680e+02 1.680e+02 1.680e+02 1.680e+02 1.680e+02 1.680e+02 1.680e+02 1.680e+02 1.680e+02 1.680e+02 1.680e+02 1.680e+02 1.680e+02 1.680e+02 1.680e+02 1.680e+02 1.680e+02 1.680e+02 1.680e+02
           </DataArray>
           <DataArray type="Float32" Name="potassium/nutrientConcentrationAtTheRootSurface" NumberOfComponents="1" format="ascii">