<?xml version="1.0"?>
<VTKFile type="UnstructuredGrid" version="0.1" byte_order="LittleEndian">
   <UnstructuredGrid>
      <Piece NumberOfPoints="90" NumberOfCells="7">
         <Points>
            <DataArray type="Float32" Name="Position" NumberOfComponents="3" format="ascii">
-0.142	-4.999	0.141
-0.032	-5.000	0.198
0.090	-5.001	0.179
0.178	-5.001	0.092
0.198	-5.002	-0.031
0.142	-5.001	-0.141
0.032	-5.000	-0.198
-0.090	-4.999	-0.179
-0.178	-4.999	-0.092
-0.198	-4.998	0.031
-0.136	-4.250	0.141
-0.026	-4.250	0.197
0.096	-4.251	0.178
0.184	-4.251	0.090
0.203	-4.251	-0.032
0.147	-4.250	-0.142
0.037	-4.250	-0.198
-0.085	-4.249	-0.179
-0.172	-4.249	-0.092
-0.192	-4.249	0.031
-0.135	-3.291	0.145
-0.025	-3.291	0.201
0.097	-3.291	0.181
0.184	-3.290	0.094
0.203	-3.290	-0.029
0.147	-3.289	-0.139
0.036	-3.289	-0.194
-0.086	-3.289	-0.175
-0.173	-3.290	-0.087
-0.192	-3.290	0.035
-0.136	-3.001	0.147
-0.025	-3.001	0.202
0.097	-3.001	0.183
0.184	-3.000	0.095
0.203	-3.000	-0.027
0.146	-2.999	-0.137
0.036	-2.999	-0.193
-0.086	-2.999	-0.173
-0.173	-3.000	-0.086
-0.192	-3.000	0.037
0.033	-5.001	-0.031
0.045	-5.004	-0.006
0.040	-5.005	0.021
0.019	-5.004	0.041
-0.008	-5.001	0.044
-0.033	-4.999	0.031
-0.045	-4.996	0.006
-0.040	-4.995	-0.021
-0.019	-4.996	-0.041
0.008	-4.999	-0.044
-0.030	-5.705	-0.066
-0.018	-5.707	-0.041
-0.023	-5.707	-0.013
-0.043	-5.706	0.006
-0.071	-5.704	0.010
-0.095	-5.701	-0.004
-0.107	-5.700	-0.029
-0.102	-5.699	-0.056
-0.081	-5.700	-0.075
-0.054	-5.703	-0.079
-0.090	-6.410	-0.078
-0.078	-6.411	-0.053
-0.084	-6.411	-0.026
-0.104	-6.409	-0.007
-0.131	-6.407	-0.004
-0.156	-6.405	-0.017
-0.167	-6.404	-0.042
-0.162	-6.404	-0.070
-0.141	-6.406	-0.089
-0.114	-6.408	-0.092
-0.143	-7.114	-0.076
-0.131	-7.115	-0.051
-0.136	-7.115	-0.024
-0.156	-7.114	-0.005
-0.184	-7.113	-0.001
-0.208	-7.111	-0.014
-0.220	-7.110	-0.039
-0.215	-7.110	-0.067
-0.195	-7.111	-0.086
-0.168	-7.113	-0.090
-0.152	-7.348	-0.084
-0.139	-7.349	-0.059
-0.144	-7.350	-0.031
-0.164	-7.350	-0.012
-0.191	-7.349	-0.007
-0.216	-7.348	-0.020
-0.228	-7.347	-0.045
-0.224	-7.346	-0.072
-0.204	-7.346	-0.092
-0.177	-7.347	-0.096
		    </DataArray>
         </Points>
         <Cells>
            <DataArray type="Int32" Name="connectivity" NumberOfComponents="1" format="ascii">
 0 10 1 11 2 12 3 13 4 14 5 15 6 16 7 17 8 18 9 19 0 10
 10 20 11 21 12 22 13 23 14 24 15 25 16 26 17 27 18 28 19 29 10 20
 20 30 21 31 22 32 23 33 24 34 25 35 26 36 27 37 28 38 29 39 20 30
 40 50 41 51 42 52 43 53 44 54 45 55 46 56 47 57 48 58 49 59 40 50
 50 60 51 61 52 62 53 63 54 64 55 65 56 66 57 67 58 68 59 69 50 60
 60 70 61 71 62 72 63 73 64 74 65 75 66 76 67 77 68 78 69 79 60 70
 70 80 71 81 72 82 73 83 74 84 75 85 76 86 77 87 78 88 79 89 70 80

            </DataArray>
            <DataArray type="Int32" Name="offsets" NumberOfComponents="1" format="ascii">
 22 44 66 88 110 132 154
            </DataArray>
            <DataArray type="UInt8"  Name="types" NumberOfComponents="1" format="ascii">
6 6 6 6 6 6 6
            </DataArray>
         </Cells>
         <CellData>
           <DataArray type="Float32" Name="aerenchymaFormation" NumberOfComponents="1" format="ascii">
 0.000e+00 0.000e+00 0.000e+00 0.000e+00 0.000e+00 0.000e+00 0.000e+00
           </DataArray>
           <DataArray type="Float32" Name="combinedRootClassID" NumberOfComponents="1" format="ascii">
 -2.000e+00 -2.000e+00 -2.000e+00 -4.000e+00 -4.000e+00 -4.000e+00 -4.000e+00
           </DataArray>
           <DataArray type="Float32" Name="nitrate/Cmin" NumberOfComponents="1" format="ascii">
 1.000e-03 1.000e-03 1.000e-03 1.000e-03 1.000e-03 1.000e-03 1.000e-03
           </DataArray>
           <DataArray type="Float32" Name="nitrate/Imax" NumberOfComponents="1" format="ascii">
 1.900e+00 1.900e+00 1.900e+00 1.900e+00 1.900e+00 1.900e+00 1.900e+00
           </DataArray>
           <DataArray type="Float32" Name="nitrate/Km" NumberOfComponents="1" format="ascii">
 1.610e-02 1.610e-02 1.610e-02 1.610e-02 1.610e-02 1.610e-02 1.610e-02
           </DataArray>
           <DataArray type="Float32" Name="nitrate/minimalNutrientConcentration" NumberOfComponents="1" format="ascii">
 6.000e+02 6.000e+02 6.000e+02 6.000e+02 6.000e+02 6.000e+02 6.000e+02
           </DataArray>
           <DataArray type="Float32" Name="nitrate/nutrientConcentrationAtTheRootSurface" NumberOfComponents="1" format="ascii">
 2.384e+00 2.363e+00 2.385e+00 2.384e+00 2.461e+00 2.589e+00 2.666e+00
           </DataArray>
           <DataArray type="Float32" Name="nitrate/optimalNutrientConcentration" NumberOfComponents="1" format="ascii">
 1.200e+03 1.200e+03 1.200e+03 1.200e+03 1.200e+03 1.200e+03 1.200e+03
           </DataArray>
           <DataArray type="Float32" Name="nitrate/rootSegmentMinimalNutrientContent" NumberOfComponents="1" format="ascii">
 5.327e+00 6.808e+00 2.055e+00 2.551e-01 2.544e-01 2.539e-01 8.457e-02
           </DataArray>
           <DataArray type="Float32" Name="nitrate/rootSegmentNutrientUptake" NumberOfComponents="1" format="ascii">
 0.000e+00 5.533e-01 6.878e-02 0.000e+00 2.266e-01 1.133e-01 1.258e-02
           </DataArray>
           <DataArray type="Float32" Name="nitrate/rootSegmentOptimalNutrientContent" NumberOfComponents="1" format="ascii">
 1.065e+01 1.362e+01 4.111e+00 5.102e-01 5.088e-01 5.079e-01 1.691e-01
           </DataArray>
           <DataArray type="Float32" Name="parentRootClassID" NumberOfComponents="1" format="ascii">
 -3.000e+00 -3.000e+00 -3.000e+00 -3.000e+00 -3.000e+00 -3.000e+00 -3.000e+00
           </DataArray>
           <DataArray type="Float32" Name="plantID" NumberOfComponents="1" format="ascii">
 2.000e+00 2.000e+00 2.000e+00 2.000e+00 2.000e+00 2.000e+00 2.000e+00
           </DataArray>
           <DataArray type="Float32" Name="plantTypeID" NumberOfComponents="1" format="ascii">
 0.000e+00 0.000e+00 0.000e+00 0.000e+00 0.000e+00 0.000e+00 0.000e+00
           </DataArray>
           <DataArray type="Float32" Name="potassium/Cmin" NumberOfComponents="1" format="ascii">
 2.000e-03 2.000e-03 2.000e-03 2.000e-03 2.000e-03 2.000e-03 2.000e-03
           </DataArray>
           <DataArray type="Float32" Name="potassium/Imax" NumberOfComponents="1" format="ascii">
 4.670e-01 4.670e-01 4.670e-01 4.670e-01 4.670e-01 4.670e-01 4.670e-01
           </DataArray>
           <DataArray type="Float32" Name="potassium/Km" NumberOfComponents="1" format="ascii">
 3.900e-02 3.900e-02 3.900e-02 3.900e-02 3.900e-02 3.900e-02 3.900e-02
           </DataArray>
           <DataArray type="Float32" Name="potassium/minimalNutrientConcentration" NumberOfComponents="1" format="ascii">
 1.680e+02 1.680e+02 1.680e+02 1.680e+02 1.680e+02 1.680e+02 1.680e+02
           </DataArray>
           <DataArray type="Float32" Name="potassium/nutrientConcentrationAtTheRootSurface" NumberOfComponents="1" format="ascii">
 1.499e-01 1.499e-01 1.499e-01 1.499e-01 1.499e-01 1.499e-01 1.499e-01
           </DataArray>
           <DataArray type="Float32" Name="potassium/optimalNutrientConcentration" NumberOfComponents="1" format="ascii">
 2.340e+02 2.340e+02 2.340e+02 2.340e+02 2.340e+02 2.340e+02 2.340e+02
           </DataArray>
           <DataArray type="Float32" Name="potassium/rootSegmentMinimalNutrientContent" NumberOfComponents="1" format="ascii">
 1.492e+00 1.906e+00 5.755e-01 7.143e-02 7.123e-02 7.110e-02 2.368e-02
           </DataArray>
           <DataArray type="Float32" Name="potassium/rootSegmentNutrientUptake" NumberOfComponents="1" format="ascii">
 0.000e+00 4.097e-02 8.194e-03 0.000e+00 4.436e-02 2.217e-02 2.463e-03
           </DataArray>
           <DataArray type="Float32" Name="potassium/rootSegmentOptimalNutrientContent" NumberOfComponents="1" format="ascii">
 2.078e+00 2.655e+00 8.016e-01 9.950e-02 9.922e-02 9.903e-02 3.298e-02
           </DataArray>
           <DataArray type="Float32" Name="rootCircumference" NumberOfComponents="1" format="ascii">
 1.258e+00 1.257e+00 1.257e+00 2.835e-01 2.831e-01 2.829e-01 2.828e-01
           </DataArray>
           <DataArray type="Float32" Name="rootClassID" NumberOfComponents="1" format="ascii">
 -2.000e+00 -2.000e+00 -2.000e+00 -4.000e+00 -4.000e+00 -4.000e+00 -4.000e+00
           </DataArray>
           <DataArray type="Float32" Name="rootDiameter" NumberOfComponents="1" format="ascii">
 4.004e-01 4.001e-01 4.000e-01 9.025e-02 9.012e-02 9.004e-02 9.000e-02
           </DataArray>
           <DataArray type="Float32" Name="rootLength2Base" NumberOfComponents="1" format="ascii">
 0.000e+00 7.500e-01 1.710e+00 0.000e+00 7.071e-01 1.414e+00 2.121e+00
           </DataArray>
           <DataArray type="Float32" Name="rootPotentialSecondaryGrowth" NumberOfComponents="1" format="ascii">
 4.004e-01 4.001e-01 4.000e-01 9.025e-02 9.012e-02 9.004e-02 9.000e-02
           </DataArray>
           <DataArray type="Float32" Name="rootSegmentAge" NumberOfComponents="1" format="ascii">
 1.000e+00 5.000e-01 1.000e-01 1.000e+00 7.000e-01 4.000e-01 1.000e-01
           </DataArray>
           <DataArray type="Float32" Name="rootSegmentCarbonCostOfExudates" NumberOfComponents="1" format="ascii">
 0.000e+00 0.000e+00 0.000e+00 1.081e-05 7.083e-06 3.355e-06 2.239e-07
           </DataArray>
           <DataArray type="Float32" Name="rootSegmentDryWeight" NumberOfComponents="1" format="ascii">
 8.879e-03 1.135e-02 3.426e-03 4.252e-04 4.240e-04 4.232e-04 1.410e-04
           </DataArray>
           <DataArray type="Float32" Name="rootSegmentLength" NumberOfComponents="1" format="ascii">
 7.500e-01 9.600e-01 2.900e-01 7.071e-01 7.071e-01 7.071e-01 2.357e-01
           </DataArray>
           <DataArray type="Float32" Name="rootSegmentLengthDuration" NumberOfComponents="1" format="ascii">
 5.450e-01 2.773e-01 2.917e-02 6.050e-01 3.928e-01 1.807e-01 2.357e-02
           </DataArray>
           <DataArray type="Float32" Name="rootSegmentRespiration" NumberOfComponents="1" format="ascii">
 5.771e-04 8.793e-04 2.997e-04 2.764e-05 3.074e-05 3.386e-05 1.233e-05
           </DataArray>
           <DataArray type="Float32" Name="rootSegmentSecondaryPotentialCarbonSinkForGrowth" NumberOfComponents="1" format="ascii">
 5.035e-06 1.132e-06 1.124e-08 7.729e-07 3.280e-07 7.402e-08 1.175e-09
           </DataArray>
           <DataArray type="Float32" Name="rootSegmentSurfaceArea" NumberOfComponents="1" format="ascii">
 9.435e-01 1.207e+00 3.644e-01 2.005e-01 2.002e-01 2.000e-01 6.664e-02
           </DataArray>
           <DataArray type="Float32" Name="rootSegmentVolume" NumberOfComponents="1" format="ascii">
 9.445e-02 1.207e-01 3.644e-02 4.523e-03 4.511e-03 4.502e-03 1.500e-03
           </DataArray>
           <DataArray type="Float32" Name="rootSegmentWaterUptake" NumberOfComponents="1" format="ascii">
 0.000e+00 0.000e+00 0.000e+00 0.000e+00 0.000e+00 0.000e+00 0.000e+00
           </DataArray>
           <DataArray type="Float32" Name="spatialRootDensity" NumberOfComponents="1" format="ascii">
 3.376e-01 1.688e-01 0.000e+00 4.082e-01 1.790e-01 0.000e+00 0.000e+00
           </DataArray>
           <DataArray type="Float32" Name="volumetricWaterContentAtTheRootSurface" NumberOfComponents="1" format="ascii">
 2.772e-01 2.771e-01 2.771e-01 2.772e-01 2.772e-01 2.772e-01 2.772e-01
           </DataArray>
         </CellData>
      </Piece>
   </UnstructuredGrid>
</VTKFile>
