<?xml version="1.0"?>
<VTKFile type="UnstructuredGrid" version="0.1" byte_order="LittleEndian">
   <UnstructuredGrid>
      <Piece NumberOfPoints="210" NumberOfCells="19">
         <Points>
            <DataArray type="Float32" Name="Position" NumberOfComponents="3" format="ascii">
-0.143	-4.999	0.142
-0.032	-5.000	0.199
0.091	-5.001	0.180
0.180	-5.001	0.092
0.200	-5.002	-0.031
0.143	-5.001	-0.142
0.032	-5.000	-0.199
-0.091	-4.999	-0.180
-0.180	-4.999	-0.092
-0.200	-4.998	0.031
-0.137	-4.250	0.142
-0.026	-4.250	0.198
0.097	-4.251	0.179
0.185	-4.251	0.091
0.205	-4.251	-0.032
0.148	-4.250	-0.143
0.037	-4.250	-0.199
-0.086	-4.249	-0.180
-0.174	-4.249	-0.092
-0.193	-4.249	0.031
-0.136	-3.290	0.145
-0.026	-3.290	0.202
0.097	-3.291	0.182
0.185	-3.290	0.094
0.204	-3.290	-0.028
0.148	-3.290	-0.139
0.037	-3.290	-0.195
-0.086	-3.290	-0.176
-0.173	-3.290	-0.088
-0.193	-3.290	0.035
-0.135	-2.400	0.145
-0.025	-2.400	0.202
0.098	-2.400	0.183
0.186	-2.400	0.095
0.205	-2.400	-0.028
0.149	-2.400	-0.138
0.039	-2.400	-0.195
-0.084	-2.400	-0.175
-0.172	-2.400	-0.088
-0.191	-2.400	0.035
-0.134	-1.800	0.144
-0.024	-1.800	0.201
0.099	-1.800	0.181
0.186	-1.800	0.094
0.206	-1.800	-0.029
0.150	-1.800	-0.139
0.039	-1.800	-0.196
-0.083	-1.800	-0.176
-0.171	-1.800	-0.089
-0.190	-1.800	0.034
-0.133	-1.200	0.144
-0.023	-1.200	0.200
0.100	-1.200	0.180
0.187	-1.200	0.093
0.207	-1.200	-0.030
0.150	-1.200	-0.140
0.040	-1.200	-0.196
-0.082	-1.200	-0.177
-0.170	-1.200	-0.089
-0.189	-1.200	0.033
-0.136	-0.301	0.145
-0.025	-0.300	0.201
0.097	-0.300	0.181
0.184	-0.299	0.094
0.203	-0.299	-0.029
0.147	-0.299	-0.139
0.036	-0.300	-0.195
-0.086	-0.300	-0.175
-0.173	-0.301	-0.087
-0.192	-0.301	0.035
-0.141	0.560	0.145
-0.030	0.560	0.201
0.092	0.560	0.182
0.179	0.560	0.094
0.198	0.560	-0.028
0.142	0.560	-0.138
0.032	0.560	-0.194
-0.090	0.560	-0.175
-0.178	0.560	-0.087
-0.197	0.559	0.035
-0.140	1.440	0.145
-0.030	1.440	0.201
0.092	1.440	0.181
0.180	1.440	0.094
0.199	1.440	-0.028
0.143	1.440	-0.138
0.032	1.440	-0.194
-0.090	1.440	-0.175
-0.177	1.440	-0.087
-0.196	1.440	0.035
-0.141	1.999	0.146
-0.031	1.999	0.202
0.092	2.000	0.183
0.179	2.000	0.095
0.198	2.000	-0.027
0.141	2.000	-0.137
0.031	2.000	-0.193
-0.091	2.000	-0.173
-0.178	2.000	-0.086
-0.197	1.999	0.036
0.033	-5.001	-0.032
0.046	-5.004	-0.006
0.040	-5.005	0.022
0.020	-5.004	0.041
-0.008	-5.002	0.045
-0.033	-4.999	0.032
-0.046	-4.996	0.006
-0.040	-4.995	-0.022
-0.020	-4.996	-0.041
0.008	-4.998	-0.045
-0.029	-5.705	-0.066
-0.017	-5.707	-0.041
-0.022	-5.708	-0.013
-0.043	-5.706	0.007
-0.071	-5.704	0.010
-0.096	-5.701	-0.003
-0.108	-5.700	-0.029
-0.102	-5.699	-0.057
-0.082	-5.700	-0.076
-0.054	-5.703	-0.080
-0.089	-6.410	-0.079
-0.077	-6.411	-0.053
-0.083	-6.411	-0.025
-0.104	-6.409	-0.006
-0.132	-6.407	-0.003
-0.156	-6.405	-0.017
-0.168	-6.404	-0.042
-0.162	-6.404	-0.070
-0.142	-6.406	-0.089
-0.114	-6.408	-0.093
-0.143	-7.114	-0.077
-0.131	-7.115	-0.051
-0.136	-7.116	-0.024
-0.156	-7.115	-0.004
-0.184	-7.113	-0.001
-0.209	-7.111	-0.014
-0.221	-7.110	-0.039
-0.216	-7.110	-0.067
-0.196	-7.111	-0.086
-0.168	-7.112	-0.090
-0.182	-7.817	-0.112
-0.169	-7.820	-0.087
-0.173	-7.822	-0.059
-0.193	-7.822	-0.039
-0.221	-7.821	-0.035
-0.246	-7.818	-0.047
-0.259	-7.816	-0.072
-0.255	-7.814	-0.100
-0.235	-7.814	-0.120
-0.207	-7.815	-0.124
-0.227	-8.517	-0.185
-0.213	-8.520	-0.161
-0.217	-8.522	-0.133
-0.236	-8.523	-0.112
-0.263	-8.523	-0.107
-0.288	-8.522	-0.119
-0.302	-8.520	-0.143
-0.299	-8.518	-0.171
-0.280	-8.516	-0.191
-0.252	-8.516	-0.197
-0.190	-9.457	-0.237
-0.177	-9.457	-0.213
-0.180	-9.458	-0.185
-0.199	-9.459	-0.165
-0.227	-9.460	-0.159
-0.252	-9.461	-0.171
-0.265	-9.461	-0.196
-0.262	-9.460	-0.223
-0.243	-9.459	-0.244
-0.215	-9.458	-0.249
-0.158	-10.166	-0.230
-0.146	-10.165	-0.206
-0.150	-10.164	-0.178
-0.170	-10.164	-0.159
-0.198	-10.164	-0.154
-0.222	-10.165	-0.167
-0.235	-10.166	-0.192
-0.230	-10.166	-0.220
-0.210	-10.167	-0.239
-0.183	-10.167	-0.243
-0.170	-10.873	-0.190
-0.158	-10.872	-0.165
-0.163	-10.871	-0.137
-0.183	-10.870	-0.118
-0.211	-10.869	-0.115
-0.235	-10.869	-0.129
-0.247	-10.870	-0.154
-0.242	-10.871	-0.181
-0.221	-10.873	-0.200
-0.194	-10.873	-0.203
-0.197	-11.813	-0.152
-0.185	-11.813	-0.127
-0.190	-11.813	-0.100
-0.210	-11.813	-0.081
-0.237	-11.812	-0.077
-0.262	-11.811	-0.090
-0.274	-11.810	-0.115
-0.269	-11.810	-0.142
-0.249	-11.811	-0.161
-0.222	-11.812	-0.165
-0.209	-12.046	-0.167
-0.196	-12.048	-0.143
-0.200	-12.050	-0.115
-0.220	-12.050	-0.095
-0.247	-12.049	-0.091
-0.272	-12.047	-0.103
-0.285	-12.045	-0.128
-0.281	-12.044	-0.155
-0.261	-12.043	-0.175
-0.234	-12.044	-0.179
		    </DataArray>
         </Points>
         <Cells>
            <DataArray type="Int32" Name="connectivity" NumberOfComponents="1" format="ascii">
 0 10 1 11 2 12 3 13 4 14 5 15 6 16 7 17 8 18 9 19 0 10
 10 20 11 21 12 22 13 23 14 24 15 25 16 26 17 27 18 28 19 29 10 20
 20 30 21 31 22 32 23 33 24 34 25 35 26 36 27 37 28 38 29 39 20 30
 30 40 31 41 32 42 33 43 34 44 35 45 36 46 37 47 38 48 39 49 30 40
 40 50 41 51 42 52 43 53 44 54 45 55 46 56 47 57 48 58 49 59 40 50
 50 60 51 61 52 62 53 63 54 64 55 65 56 66 57 67 58 68 59 69 50 60
 60 70 61 71 62 72 63 73 64 74 65 75 66 76 67 77 68 78 69 79 60 70
 70 80 71 81 72 82 73 83 74 84 75 85 76 86 77 87 78 88 79 89 70 80
 80 90 81 91 82 92 83 93 84 94 85 95 86 96 87 97 88 98 89 99 80 90
 100 110 101 111 102 112 103 113 104 114 105 115 106 116 107 117 108 118 109 119 100 110
 110 120 111 121 112 122 113 123 114 124 115 125 116 126 117 127 118 128 119 129 110 120
 120 130 121 131 122 132 123 133 124 134 125 135 126 136 127 137 128 138 129 139 120 130
 130 140 131 141 132 142 133 143 134 144 135 145 136 146 137 147 138 148 139 149 130 140
 140 150 141 151 142 152 143 153 144 154 145 155 146 156 147 157 148 158 149 159 140 150
 150 160 151 161 152 162 153 163 154 164 155 165 156 166 157 167 158 168 159 169 150 160
 160 170 161 171 162 172 163 173 164 174 165 175 166 176 167 177 168 178 169 179 160 170
 170 180 171 181 172 182 173 183 174 184 175 185 176 186 177 187 178 188 179 189 170 180
 180 190 181 191 182 192 183 193 184 194 185 195 186 196 187 197 188 198 189 199 180 190
 190 200 191 201 192 202 193 203 194 204 195 205 196 206 197 207 198 208 199 209 190 200

            </DataArray>
            <DataArray type="Int32" Name="offsets" NumberOfComponents="1" format="ascii">
 22 44 66 88 110 132 154 176 198 220 242 264 286 308 330 352 374 396 418
            </DataArray>
            <DataArray type="UInt8"  Name="types" NumberOfComponents="1" format="ascii">
6 6 6 6 6 6 6 6 6 6 6 6 6 6 6 6 6 6 6
            </DataArray>
         </Cells>
         <CellData>
           <DataArray type="Float32" Name="aerenchymaFormation" NumberOfComponents="1" format="ascii">
 0.000e+00 0.000e+00 0.000e+00 0.000e+00 0.000e+00 0.000e+00 0.000e+00 0.000e+00 0.000e+00 0.000e+00 0.000e+00 0.000e+00 0.000e+00 0.000e+00 0.000e+00 0.000e+00 0.000e+00 0.000e+00 0.000e+00
           </DataArray>
           <DataArray type="Float32" Name="combinedRootClassID" NumberOfComponents="1" format="ascii">
 -2.000e+00 -2.000e+00 -2.000e+00 -2.000e+00 -2.000e+00 -2.000e+00 -2.000e+00 -2.000e+00 -2.000e+00 -4.000e+00 -4.000e+00 -4.000e+00 -4.000e+00 -4.000e+00 -4.000e+00 -4.000e+00 -4.000e+00 -4.000e+00 -4.000e+00
           </DataArray>
           <DataArray type="Float32" Name="nitrate/Cmin" NumberOfComponents="1" format="ascii">
 1.000e-03 1.000e-03 1.000e-03 1.000e-03 1.000e-03 1.000e-03 1.000e-03 1.000e-03 1.000e-03 1.000e-03 1.000e-03 1.000e-03 1.000e-03 1.000e-03 1.000e-03 1.000e-03 1.000e-03 1.000e-03 1.000e-03
           </DataArray>
           <DataArray type="Float32" Name="nitrate/Imax" NumberOfComponents="1" format="ascii">
 1.900e+00 1.900e+00 1.900e+00 1.900e+00 1.900e+00 1.900e+00 1.900e+00 1.900e+00 1.900e+00 1.900e+00 1.900e+00 1.900e+00 1.900e+00 1.900e+00 1.900e+00 1.900e+00 1.900e+00 1.900e+00 1.900e+00
           </DataArray>
           <DataArray type="Float32" Name="nitrate/Km" NumberOfComponents="1" format="ascii">
 1.610e-02 1.610e-02 1.610e-02 1.610e-02 1.610e-02 1.610e-02 1.610e-02 1.610e-02 1.610e-02 1.610e-02 1.610e-02 1.610e-02 1.610e-02 1.610e-02 1.610e-02 1.610e-02 1.610e-02 1.610e-02 1.610e-02
           </DataArray>
           <DataArray type="Float32" Name="nitrate/minimalNutrientConcentration" NumberOfComponents="1" format="ascii">
 6.000e+02 6.000e+02 6.000e+02 6.000e+02 6.000e+02 6.000e+02 6.000e+02 6.000e+02 6.000e+02 6.000e+02 6.000e+02 6.000e+02 6.000e+02 6.000e+02 6.000e+02 6.000e+02 6.000e+02 6.000e+02 6.000e+02
           </DataArray>
           <DataArray type="Float32" Name="nitrate/nutrientConcentrationAtTheRootSurface" NumberOfComponents="1" format="ascii">
 1.951e+00 1.752e+00 1.457e+00 1.152e+00 9.264e-01 7.502e-01 4.578e-01 0.000e+00 0.000e+00 1.951e+00 2.112e+00 2.251e+00 2.378e+00 2.486e+00 2.617e+00 2.789e+00 2.921e+00 3.084e+00 3.118e+00
           </DataArray>
           <DataArray type="Float32" Name="nitrate/optimalNutrientConcentration" NumberOfComponents="1" format="ascii">
 1.200e+03 1.200e+03 1.200e+03 1.200e+03 1.200e+03 1.200e+03 1.200e+03 1.200e+03 1.200e+03 1.200e+03 1.200e+03 1.200e+03 1.200e+03 1.200e+03 1.200e+03 1.200e+03 1.200e+03 1.200e+03 1.200e+03
           </DataArray>
           <DataArray type="Float32" Name="nitrate/rootSegmentMinimalNutrientContent" NumberOfComponents="1" format="ascii">
 5.421e+00 6.897e+00 6.369e+00 4.283e+00 4.276e+00 6.406e+00 6.111e+00 6.246e+00 3.970e+00 2.666e-01 2.641e-01 2.619e-01 2.600e-01 2.583e-01 3.425e-01 2.554e-01 2.546e-01 3.387e-01 8.457e-02
           </DataArray>
           <DataArray type="Float32" Name="nitrate/rootSegmentNutrientUptake" NumberOfComponents="1" format="ascii">
 0.000e+00 2.949e+00 2.379e+00 1.899e+00 1.529e+00 1.145e+00 4.429e-01 5.794e-02 0.000e+00 0.000e+00 9.882e-01 8.731e-01 7.585e-01 6.441e-01 6.816e-01 3.783e-01 2.647e-01 1.764e-01 1.260e-02
           </DataArray>
           <DataArray type="Float32" Name="nitrate/rootSegmentOptimalNutrientContent" NumberOfComponents="1" format="ascii">
 1.084e+01 1.379e+01 1.274e+01 8.565e+00 8.553e+00 1.281e+01 1.222e+01 1.249e+01 7.941e+00 5.331e-01 5.282e-01 5.238e-01 5.199e-01 5.166e-01 6.850e-01 5.108e-01 5.092e-01 6.775e-01 1.691e-01
           </DataArray>
           <DataArray type="Float32" Name="parentRootClassID" NumberOfComponents="1" format="ascii">
 -3.000e+00 -3.000e+00 -3.000e+00 -3.000e+00 -3.000e+00 -3.000e+00 -3.000e+00 -3.000e+00 -3.000e+00 -3.000e+00 -3.000e+00 -3.000e+00 -3.000e+00 -3.000e+00 -3.000e+00 -3.000e+00 -3.000e+00 -3.000e+00 -3.000e+00
           </DataArray>
           <DataArray type="Float32" Name="plantID" NumberOfComponents="1" format="ascii">
 4.000e+00 4.000e+00 4.000e+00 4.000e+00 4.000e+00 4.000e+00 4.000e+00 4.000e+00 4.000e+00 4.000e+00 4.000e+00 4.000e+00 4.000e+00 4.000e+00 4.000e+00 4.000e+00 4.000e+00 4.000e+00 4.000e+00
           </DataArray>
           <DataArray type="Float32" Name="plantTypeID" NumberOfComponents="1" format="ascii">
 0.000e+00 0.000e+00 0.000e+00 0.000e+00 0.000e+00 0.000e+00 0.000e+00 0.000e+00 0.000e+00 0.000e+00 0.000e+00 0.000e+00 0.000e+00 0.000e+00 0.000e+00 0.000e+00 0.000e+00 0.000e+00 0.000e+00
           </DataArray>
           <DataArray type="Float32" Name="potassium/Cmin" NumberOfComponents="1" format="ascii">
 2.000e-03 2.000e-03 2.000e-03 2.000e-03 2.000e-03 2.000e-03 2.000e-03 2.000e-03 2.000e-03 2.000e-03 2.000e-03 2.000e-03 2.000e-03 2.000e-03 2.000e-03 2.000e-03 2.000e-03 2.000e-03 2.000e-03
           </DataArray>
           <DataArray type="Float32" Name="potassium/Imax" NumberOfComponents="1" format="ascii">
 4.670e-01 4.670e-01 4.670e-01 4.670e-01 4.670e-01 4.670e-01 4.670e-01 4.670e-01 4.670e-01 4.670e-01 4.670e-01 4.670e-01 4.670e-01 4.670e-01 4.670e-01 4.670e-01 4.670e-01 4.670e-01 4.670e-01
           </DataArray>
           <DataArray type="Float32" Name="potassium/Km" NumberOfComponents="1" format="ascii">
 3.900e-02 3.900e-02 3.900e-02 3.900e-02 3.900e-02 3.900e-02 3.900e-02 3.900e-02 3.900e-02 3.900e-02 3.900e-02 3.900e-02 3.900e-02 3.900e-02 3.900e-02 3.900e-02 3.900e-02 3.900e-02 3.900e-02
           </DataArray>
           <DataArray type="Float32" Name="potassium/minimalNutrientConcentration" NumberOfComponents="1" format="ascii">
 1.680e+02 1.680e+02 1.680e+02 1.680e+02 1.680e+02 1.680e+02 1.680e+02 1.680e+02 1.680e+02 1.680e+02 1.680e+02 1.680e+02 1.680e+02 1.680e+02 1.680e+02 1.680e+02 1.680e+02 1.680e+02 1.680e+02
           </DataArray>
           <DataArray type="Float32" Name="potassium/nutrientConcentrationAtTheRootSurface" NumberOfComponents="1" format="ascii">
 1.493e-01 1.493e-01 1.492e-01 1.492e-01 1.492e-01 1.492e-01 1.450e-01 0.000e+00 0.000e+00 1.493e-01 1.492e-01 1.491e-01 1.490e-01 1.491e-01 1.493e-01 1.495e-01 1.496e-01 1.498e-01 1.499e-01
           </DataArray>
           <DataArray type="Float32" Name="potassium/optimalNutrientConcentration" NumberOfComponents="1" format="ascii">
 2.340e+02 2.340e+02 2.340e+02 2.340e+02 2.340e+02 2.340e+02 2.340e+02 2.340e+02 2.340e+02 2.340e+02 2.340e+02 2.340e+02 2.340e+02 2.340e+02 2.340e+02 2.340e+02 2.340e+02 2.340e+02 2.340e+02
           </DataArray>
           <DataArray type="Float32" Name="potassium/rootSegmentMinimalNutrientContent" NumberOfComponents="1" format="ascii">
 1.518e+00 1.931e+00 1.783e+00 1.199e+00 1.197e+00 1.794e+00 1.711e+00 1.749e+00 1.112e+00 7.463e-02 7.394e-02 7.333e-02 7.279e-02 7.232e-02 9.591e-02 7.152e-02 7.129e-02 9.485e-02 2.368e-02
           </DataArray>
           <DataArray type="Float32" Name="potassium/rootSegmentNutrientUptake" NumberOfComponents="1" format="ascii">
 0.000e+00 2.101e-01 1.777e-01 1.535e-01 1.374e-01 1.213e-01 9.525e-02 9.520e-03 0.000e+00 0.000e+00 1.934e-01 1.708e-01 1.484e-01 1.260e-01 1.172e-01 7.397e-02 5.175e-02 3.257e-02 2.463e-03
           </DataArray>
           <DataArray type="Float32" Name="potassium/rootSegmentOptimalNutrientContent" NumberOfComponents="1" format="ascii">
 2.114e+00 2.690e+00 2.484e+00 1.670e+00 1.668e+00 2.498e+00 2.383e+00 2.436e+00 1.548e+00 1.040e-01 1.030e-01 1.021e-01 1.014e-01 1.007e-01 1.336e-01 9.961e-02 9.930e-02 1.321e-01 3.298e-02
           </DataArray>
           <DataArray type="Float32" Name="rootCircumference" NumberOfComponents="1" format="ascii">
 1.269e+00 1.265e+00 1.263e+00 1.261e+00 1.260e+00 1.259e+00 1.258e+00 1.258e+00 1.257e+00 2.898e-01 2.885e-01 2.873e-01 2.862e-01 2.853e-01 2.845e-01 2.837e-01 2.832e-01 2.829e-01 2.828e-01
           </DataArray>
           <DataArray type="Float32" Name="rootClassID" NumberOfComponents="1" format="ascii">
 -2.000e+00 -2.000e+00 -2.000e+00 -2.000e+00 -2.000e+00 -2.000e+00 -2.000e+00 -2.000e+00 -2.000e+00 -4.000e+00 -4.000e+00 -4.000e+00 -4.000e+00 -4.000e+00 -4.000e+00 -4.000e+00 -4.000e+00 -4.000e+00 -4.000e+00
           </DataArray>
           <DataArray type="Float32" Name="rootDiameter" NumberOfComponents="1" format="ascii">
 4.039e-01 4.027e-01 4.019e-01 4.014e-01 4.011e-01 4.009e-01 4.005e-01 4.003e-01 4.001e-01 9.225e-02 9.182e-02 9.144e-02 9.110e-02 9.081e-02 9.056e-02 9.030e-02 9.016e-02 9.006e-02 9.000e-02
           </DataArray>
           <DataArray type="Float32" Name="rootLength2Base" NumberOfComponents="1" format="ascii">
 0.000e+00 7.500e-01 1.710e+00 2.600e+00 3.200e+00 3.800e+00 4.700e+00 5.560e+00 6.440e+00 0.000e+00 7.071e-01 1.414e+00 2.121e+00 2.828e+00 3.535e+00 4.478e+00 5.185e+00 5.893e+00 6.835e+00
           </DataArray>
           <DataArray type="Float32" Name="rootPotentialSecondaryGrowth" NumberOfComponents="1" format="ascii">
 4.039e-01 4.027e-01 4.019e-01 4.014e-01 4.011e-01 4.009e-01 4.005e-01 4.003e-01 4.001e-01 9.225e-02 9.182e-02 9.144e-02 9.110e-02 9.081e-02 9.056e-02 9.030e-02 9.016e-02 9.006e-02 9.000e-02
           </DataArray>
           <DataArray type="Float32" Name="rootSegmentAge" NumberOfComponents="1" format="ascii">
 3.000e+00 2.500e+00 2.100e+00 1.800e+00 1.600e+00 1.400e+00 1.100e+00 8.000e-01 4.000e-01 3.000e+00 2.700e+00 2.400e+00 2.100e+00 1.800e+00 1.500e+00 1.100e+00 8.000e-01 5.000e-01 1.000e-01
           </DataArray>
           <DataArray type="Float32" Name="rootSegmentCarbonCostOfExudates" NumberOfComponents="1" format="ascii">
 0.000e+00 0.000e+00 0.000e+00 0.000e+00 0.000e+00 0.000e+00 0.000e+00 0.000e+00 0.000e+00 3.343e-05 2.983e-05 2.646e-05 2.305e-05 1.987e-05 2.122e-05 1.193e-05 8.390e-06 5.280e-06 2.239e-07
           </DataArray>
           <DataArray type="Float32" Name="rootSegmentDryWeight" NumberOfComponents="1" format="ascii">
 9.035e-03 1.150e-02 1.061e-02 7.138e-03 7.127e-03 1.068e-02 1.019e-02 1.041e-02 6.617e-03 4.443e-04 4.401e-04 4.365e-04 4.333e-04 4.305e-04 5.709e-04 4.257e-04 4.244e-04 5.646e-04 1.410e-04
           </DataArray>
           <DataArray type="Float32" Name="rootSegmentLength" NumberOfComponents="1" format="ascii">
 7.500e-01 9.600e-01 8.900e-01 6.000e-01 6.000e-01 9.000e-01 8.600e-01 8.800e-01 5.600e-01 7.071e-01 7.071e-01 7.071e-01 7.071e-01 7.071e-01 9.428e-01 7.071e-01 7.071e-01 9.428e-01 2.357e-01
           </DataArray>
           <DataArray type="Float32" Name="rootSegmentLengthDuration" NumberOfComponents="1" format="ascii">
 2.045e+00 2.197e+00 1.739e+00 1.020e+00 9.000e-01 1.130e+00 8.247e-01 5.387e-01 1.227e-01 2.019e+00 1.807e+00 1.595e+00 1.383e+00 1.171e+00 1.226e+00 6.757e-01 4.635e-01 2.828e-01 2.357e-02
           </DataArray>
           <DataArray type="Float32" Name="rootSegmentRespiration" NumberOfComponents="1" format="ascii">
 3.614e-04 4.598e-04 4.246e-04 3.212e-04 3.564e-04 5.872e-04 6.366e-04 7.287e-04 5.294e-04 1.777e-05 1.761e-05 1.746e-05 1.733e-05 1.937e-05 2.997e-05 2.661e-05 2.970e-05 4.375e-05 1.233e-05
           </DataArray>
           <DataArray type="Float32" Name="rootSegmentSecondaryPotentialCarbonSinkForGrowth" NumberOfComponents="1" format="ascii">
 6.642e-05 5.939e-05 3.953e-05 2.022e-05 1.574e-05 1.645e-05 9.113e-06 3.846e-06 3.721e-07 8.705e-06 6.954e-06 5.404e-06 4.053e-06 2.900e-06 2.409e-06 9.637e-07 4.550e-07 1.457e-07 1.175e-09
           </DataArray>
           <DataArray type="Float32" Name="rootSegmentSurfaceArea" NumberOfComponents="1" format="ascii">
 9.518e-01 1.215e+00 1.124e+00 7.567e-01 7.561e-01 1.133e+00 1.082e+00 1.107e+00 7.038e-01 2.049e-01 2.040e-01 2.031e-01 2.024e-01 2.017e-01 2.682e-01 2.006e-01 2.003e-01 2.668e-01 6.664e-02
           </DataArray>
           <DataArray type="Float32" Name="rootSegmentVolume" NumberOfComponents="1" format="ascii">
 9.611e-02 1.223e-01 1.129e-01 7.593e-02 7.582e-02 1.136e-01 1.084e-01 1.107e-01 7.040e-02 4.726e-03 4.682e-03 4.643e-03 4.609e-03 4.580e-03 6.073e-03 4.529e-03 4.514e-03 6.006e-03 1.500e-03
           </DataArray>
           <DataArray type="Float32" Name="rootSegmentWaterUptake" NumberOfComponents="1" format="ascii">
 4.431e-03 5.672e-03 5.258e-03 3.545e-03 3.545e-03 5.317e-03 5.065e-03 0.000e+00 0.000e+00 4.178e-03 4.178e-03 4.178e-03 4.178e-03 4.178e-03 5.570e-03 4.164e-03 3.920e-03 3.390e-03 1.799e-04
           </DataArray>
           <DataArray type="Float32" Name="spatialRootDensity" NumberOfComponents="1" format="ascii">
 3.376e-01 1.688e-01 0.000e+00 0.000e+00 0.000e+00 0.000e+00 0.000e+00 0.000e+00 0.000e+00 4.082e-01 1.790e-01 0.000e+00 0.000e+00 0.000e+00 0.000e+00 0.000e+00 0.000e+00 0.000e+00 0.000e+00
           </DataArray>
           <DataArray type="Float32" Name="volumetricWaterContentAtTheRootSurface" NumberOfComponents="1" format="ascii">
 3.089e-01 3.098e-01 3.110e-01 3.122e-01 3.131e-01 3.137e-01 3.150e-01 0.000e+00 0.000e+00 3.089e-01 3.080e-01 3.071e-01 3.062e-01 3.054e-01 3.046e-01 3.035e-01 3.027e-01 3.018e-01 3.008e-01
           </DataArray>
         </CellData>
      </Piece>
   </UnstructuredGrid>
</VTKFile>
