<?xml version="1.0"?>
<VTKFile type="UnstructuredGrid" version="0.1" byte_order="LittleEndian">
   <UnstructuredGrid>
      <Piece NumberOfPoints="13550" NumberOfCells="947">
         <Points>
            <DataArray type="Float32" Name="Position" NumberOfComponents="3" format="ascii">
0.140	-5.038	-0.072
0.140	-5.029	-0.071
0.136	-5.021	-0.068
0.128	-5.019	-0.063
0.121	-5.022	-0.059
0.116	-5.029	-0.056
0.116	-5.039	-0.057
0.120	-5.046	-0.060
0.128	-5.049	-0.065
0.135	-5.046	-0.069
0.598	-5.083	0.668
0.599	-5.074	0.668
0.595	-5.066	0.670
0.588	-5.062	0.674
0.579	-5.064	0.678
0.573	-5.071	0.680
0.572	-5.080	0.680
0.576	-5.088	0.678
0.584	-5.092	0.675
0.592	-5.090	0.671
0.674	-5.075	0.952
0.674	-5.070	0.960
0.674	-5.072	0.969
0.674	-5.078	0.976
0.674	-5.088	0.977
0.674	-5.096	0.973
0.674	-5.100	0.965
0.674	-5.099	0.956
0.674	-5.092	0.949
0.674	-5.083	0.948
0.259	-5.095	-0.137
0.259	-5.087	-0.133
0.255	-5.083	-0.125
0.249	-5.084	-0.118
0.243	-5.090	-0.114
0.239	-5.098	-0.115
0.239	-5.106	-0.119
0.243	-5.111	-0.126
0.249	-5.110	-0.133
0.255	-5.104	-0.137
0.894	-5.379	0.387
0.894	-5.371	0.391
0.890	-5.366	0.397
0.883	-5.366	0.404
0.877	-5.372	0.408
0.873	-5.380	0.408
0.874	-5.389	0.404
0.878	-5.394	0.397
0.884	-5.393	0.391
0.890	-5.388	0.387
1.326	-5.573	0.879
1.326	-5.565	0.883
1.326	-5.556	0.882
1.326	-5.549	0.875
1.326	-5.548	0.866
1.326	-5.552	0.858
1.326	-5.560	0.854
1.326	-5.570	0.855
1.326	-5.576	0.862
1.326	-5.578	0.871
1.238	-5.923	-0.547
1.238	-5.914	-0.546
1.233	-5.908	-0.541
1.226	-5.906	-0.535
1.219	-5.911	-0.530
1.215	-5.919	-0.529
1.216	-5.928	-0.530
1.221	-5.934	-0.535
1.228	-5.936	-0.541
1.234	-5.931	-0.545
1.755	-6.014	0.108
1.754	-6.005	0.110
1.749	-5.999	0.114
1.742	-5.997	0.120
1.735	-6.002	0.125
1.732	-6.010	0.127
1.733	-6.019	0.125
1.738	-6.026	0.121
1.745	-6.027	0.115
1.751	-6.022	0.110
1.934	-6.043	0.344
1.934	-6.035	0.348
1.934	-6.026	0.347
1.934	-6.019	0.340
1.934	-6.018	0.331
1.934	-6.022	0.323
1.934	-6.030	0.319
1.934	-6.039	0.320
1.934	-6.046	0.327
1.934	-6.047	0.336
1.313	-6.023	-0.586
1.317	-6.020	-0.578
1.321	-6.022	-0.570
1.322	-6.030	-0.564
1.322	-6.039	-0.564
1.319	-6.047	-0.568
1.316	-6.050	-0.576
1.312	-6.047	-0.584
1.310	-6.040	-0.590
1.310	-6.031	-0.590
2.095	-6.081	-0.945
2.100	-6.078	-0.937
2.104	-6.080	-0.929
2.106	-6.088	-0.924
2.105	-6.097	-0.923
2.102	-6.104	-0.928
2.098	-6.107	-0.935
2.094	-6.105	-0.943
2.092	-6.097	-0.948
2.092	-6.088	-0.949
2.426	-6.126	-1.150
2.431	-6.123	-1.143
2.435	-6.125	-1.135
2.438	-6.133	-1.130
2.437	-6.142	-1.129
2.433	-6.150	-1.133
2.428	-6.152	-1.141
2.424	-6.150	-1.148
2.422	-6.142	-1.153
2.422	-6.133	-1.154
1.393	-6.140	-0.619
1.401	-6.136	-0.620
1.410	-6.139	-0.621
1.416	-6.146	-0.620
1.417	-6.155	-0.618
1.412	-6.162	-0.616
1.403	-6.165	-0.614
1.394	-6.163	-0.614
1.388	-6.156	-0.615
1.388	-6.147	-0.617
1.313	-6.324	-1.431
1.322	-6.321	-1.432
1.331	-6.324	-1.432
1.337	-6.331	-1.431
1.337	-6.340	-1.429
1.332	-6.347	-1.426
1.323	-6.350	-1.425
1.314	-6.347	-1.424
1.309	-6.340	-1.426
1.308	-6.331	-1.428
1.275	-6.440	-1.804
1.284	-6.437	-1.805
1.292	-6.440	-1.805
1.298	-6.447	-1.804
1.298	-6.456	-1.801
1.293	-6.463	-1.798
1.284	-6.466	-1.797
1.275	-6.463	-1.797
1.270	-6.456	-1.798
1.270	-6.447	-1.801
1.484	-6.257	-0.668
1.487	-6.253	-0.660
1.490	-6.256	-0.652
1.491	-6.263	-0.646
1.491	-6.272	-0.645
1.488	-6.280	-0.649
1.485	-6.283	-0.657
1.482	-6.281	-0.666
1.480	-6.274	-0.671
1.481	-6.264	-0.672
2.284	-6.354	-0.972
2.287	-6.351	-0.964
2.290	-6.353	-0.956
2.291	-6.360	-0.950
2.290	-6.370	-0.949
2.288	-6.377	-0.953
2.286	-6.381	-0.961
2.283	-6.379	-0.970
2.282	-6.372	-0.976
2.282	-6.362	-0.977
2.448	-6.362	-1.010
2.450	-6.358	-1.001
2.452	-6.360	-0.993
2.453	-6.367	-0.987
2.453	-6.377	-0.986
2.452	-6.385	-0.990
2.450	-6.388	-0.999
2.448	-6.386	-1.008
2.447	-6.379	-1.014
2.447	-6.370	-1.014
1.577	-6.397	-0.700
1.579	-6.388	-0.700
1.575	-6.380	-0.698
1.568	-6.376	-0.695
1.559	-6.377	-0.692
1.553	-6.383	-0.690
1.551	-6.392	-0.690
1.555	-6.401	-0.692
1.562	-6.405	-0.695
1.571	-6.404	-0.698
1.866	-6.461	0.078
1.869	-6.452	0.078
1.865	-6.443	0.080
1.858	-6.438	0.082
1.849	-6.439	0.085
1.842	-6.445	0.086
1.840	-6.454	0.087
1.843	-6.463	0.085
1.850	-6.467	0.083
1.859	-6.467	0.080
1.904	-6.467	0.243
1.907	-6.458	0.243
1.904	-6.450	0.244
1.897	-6.444	0.245
1.888	-6.444	0.248
1.880	-6.450	0.249
1.877	-6.459	0.249
1.880	-6.467	0.248
1.888	-6.473	0.247
1.897	-6.473	0.245
1.638	-6.502	-0.738
1.643	-6.499	-0.731
1.648	-6.502	-0.724
1.651	-6.509	-0.719
1.650	-6.519	-0.718
1.646	-6.526	-0.722
1.641	-6.529	-0.729
1.636	-6.526	-0.736
1.634	-6.519	-0.741
1.634	-6.509	-0.742
2.331	-6.593	-1.235
2.337	-6.590	-1.229
2.343	-6.593	-1.222
2.346	-6.601	-1.217
2.344	-6.610	-1.216
2.340	-6.617	-1.220
2.334	-6.620	-1.226
2.328	-6.617	-1.233
2.326	-6.610	-1.238
2.327	-6.600	-1.238
2.501	-6.643	-1.416
2.508	-6.641	-1.411
2.514	-6.644	-1.404
2.517	-6.651	-1.400
2.515	-6.660	-1.398
2.510	-6.668	-1.401
2.503	-6.670	-1.407
2.497	-6.667	-1.413
2.494	-6.660	-1.418
2.496	-6.651	-1.419
1.728	-6.642	-0.772
1.728	-6.633	-0.768
1.724	-6.627	-0.762
1.717	-6.627	-0.756
1.710	-6.631	-0.752
1.705	-6.639	-0.752
1.705	-6.648	-0.756
1.709	-6.654	-0.762
1.716	-6.654	-0.768
1.723	-6.650	-0.772
2.269	-6.927	-0.134
2.269	-6.919	-0.131
2.265	-6.913	-0.125
2.258	-6.912	-0.118
2.251	-6.917	-0.114
2.247	-6.925	-0.114
2.247	-6.933	-0.118
2.251	-6.939	-0.124
2.258	-6.940	-0.130
2.265	-6.935	-0.134
1.779	-6.758	-0.790
1.786	-6.753	-0.793
1.795	-6.753	-0.796
1.802	-6.758	-0.798
1.805	-6.767	-0.798
1.802	-6.776	-0.796
1.796	-6.781	-0.794
1.787	-6.781	-0.791
1.779	-6.776	-0.789
1.776	-6.767	-0.789
1.545	-6.827	-1.538
1.545	-6.823	-1.529
1.545	-6.824	-1.520
1.545	-6.831	-1.514
1.545	-6.840	-1.512
1.545	-6.848	-1.516
1.545	-6.853	-1.525
1.545	-6.851	-1.534
1.545	-6.845	-1.540
1.545	-6.835	-1.542
1.875	-6.905	-0.822
1.875	-6.900	-0.814
1.871	-6.892	-0.810
1.865	-6.885	-0.811
1.859	-6.881	-0.817
1.855	-6.882	-0.826
1.855	-6.887	-0.833
1.859	-6.895	-0.837
1.865	-6.902	-0.836
1.871	-6.906	-0.830
1.256	-7.376	-0.514
1.256	-7.370	-0.507
1.253	-7.363	-0.503
1.247	-7.355	-0.505
1.241	-7.352	-0.511
1.237	-7.353	-0.519
1.237	-7.358	-0.527
1.240	-7.366	-0.530
1.246	-7.373	-0.529
1.252	-7.377	-0.523
1.051	-7.500	-0.393
1.052	-7.494	-0.386
1.049	-7.486	-0.383
1.043	-7.479	-0.385
1.037	-7.475	-0.391
1.033	-7.477	-0.399
1.033	-7.482	-0.406
1.036	-7.491	-0.410
1.041	-7.498	-0.408
1.047	-7.502	-0.402
1.952	-7.026	-0.858
1.955	-7.018	-0.855
1.951	-7.010	-0.851
1.944	-7.006	-0.848
1.935	-7.008	-0.845
1.928	-7.014	-0.846
1.926	-7.023	-0.849
1.929	-7.031	-0.853
1.937	-7.034	-0.856
1.946	-7.033	-0.859
2.183	-7.319	-0.116
2.186	-7.311	-0.114
2.183	-7.303	-0.110
2.175	-7.298	-0.107
2.166	-7.299	-0.106
2.159	-7.305	-0.106
2.156	-7.313	-0.109
2.159	-7.321	-0.112
2.167	-7.326	-0.115
2.176	-7.325	-0.117
2.206	-7.398	0.146
2.209	-7.390	0.148
2.206	-7.381	0.151
2.199	-7.376	0.153
2.189	-7.376	0.154
2.182	-7.382	0.153
2.179	-7.390	0.151
2.182	-7.398	0.148
2.189	-7.404	0.146
2.198	-7.404	0.145
0.365	-5.159	-0.193
0.367	-5.156	-0.185
0.369	-5.157	-0.176
0.370	-5.164	-0.170
0.369	-5.174	-0.169
0.368	-5.181	-0.173
0.365	-5.185	-0.181
0.364	-5.183	-0.190
0.363	-5.176	-0.196
0.364	-5.167	-0.198
1.220	-5.233	-0.370
1.222	-5.230	-0.361
1.224	-5.232	-0.352
1.225	-5.239	-0.346
1.224	-5.248	-0.345
1.223	-5.256	-0.350
1.221	-5.260	-0.358
1.219	-5.257	-0.367
1.218	-5.251	-0.373
1.218	-5.241	-0.374
1.687	-5.249	-0.487
1.689	-5.246	-0.479
1.691	-5.248	-0.470
1.693	-5.255	-0.464
1.693	-5.264	-0.464
1.691	-5.272	-0.468
1.689	-5.275	-0.477
1.687	-5.273	-0.485
1.686	-5.266	-0.491
1.686	-5.257	-0.492
2.004	-7.137	-0.878
2.012	-7.133	-0.883
2.020	-7.134	-0.886
2.027	-7.141	-0.886
2.030	-7.149	-0.884
2.027	-7.157	-0.880
2.019	-7.161	-0.876
2.011	-7.160	-0.873
2.004	-7.154	-0.873
2.001	-7.145	-0.875
1.727	-7.375	-1.586
1.735	-7.370	-1.590
1.743	-7.372	-1.593
1.750	-7.378	-1.594
1.752	-7.387	-1.592
1.749	-7.395	-1.588
1.742	-7.399	-1.584
1.734	-7.397	-1.581
1.727	-7.391	-1.580
1.724	-7.382	-1.582
2.096	-7.289	-0.902
2.095	-7.285	-0.893
2.091	-7.278	-0.888
2.085	-7.271	-0.889
2.079	-7.267	-0.894
2.075	-7.267	-0.903
2.076	-7.271	-0.911
2.080	-7.277	-0.916
2.086	-7.284	-0.916
2.092	-7.288	-0.910
1.491	-7.849	-0.667
1.495	-7.841	-0.667
1.494	-7.832	-0.667
1.487	-7.825	-0.667
1.478	-7.824	-0.667
1.470	-7.828	-0.667
1.466	-7.836	-0.667
1.467	-7.845	-0.667
1.474	-7.852	-0.667
1.483	-7.853	-0.667
2.166	-7.419	-0.925
2.166	-7.416	-0.917
2.161	-7.410	-0.911
2.154	-7.404	-0.910
2.148	-7.400	-0.915
2.144	-7.399	-0.923
2.144	-7.402	-0.932
2.148	-7.408	-0.938
2.155	-7.414	-0.938
2.162	-7.418	-0.934
1.606	-8.064	-0.709
1.605	-8.061	-0.700
1.601	-8.055	-0.694
1.594	-8.049	-0.694
1.587	-8.044	-0.698
1.583	-8.044	-0.707
1.584	-8.047	-0.715
1.588	-8.053	-0.721
1.595	-8.059	-0.722
1.601	-8.063	-0.717
2.213	-7.534	-0.950
2.216	-7.531	-0.941
2.218	-7.533	-0.933
2.219	-7.540	-0.927
2.218	-7.549	-0.926
2.217	-7.557	-0.930
2.214	-7.560	-0.939
2.212	-7.558	-0.947
2.211	-7.551	-0.953
2.211	-7.542	-0.954
3.031	-7.599	-1.169
3.034	-7.596	-1.161
3.037	-7.598	-1.153
3.039	-7.605	-1.147
3.038	-7.614	-1.146
3.036	-7.622	-1.151
3.033	-7.625	-1.159
3.030	-7.623	-1.167
3.028	-7.616	-1.173
3.029	-7.607	-1.174
3.088	-7.605	-1.194
3.091	-7.601	-1.186
3.095	-7.604	-1.178
3.096	-7.611	-1.172
3.096	-7.620	-1.171
3.093	-7.628	-1.176
3.089	-7.631	-1.184
3.086	-7.629	-1.192
3.084	-7.622	-1.198
3.085	-7.612	-1.198
2.273	-7.671	-0.965
2.275	-7.668	-0.957
2.278	-7.670	-0.948
2.278	-7.677	-0.942
2.278	-7.686	-0.941
2.275	-7.694	-0.945
2.272	-7.697	-0.953
2.270	-7.695	-0.962
2.269	-7.688	-0.968
2.270	-7.679	-0.969
2.976	-7.771	-1.158
2.984	-7.766	-1.158
2.993	-7.768	-1.158
3.000	-7.774	-1.158
3.001	-7.783	-1.158
2.997	-7.792	-1.158
2.989	-7.796	-1.158
2.980	-7.794	-1.158
2.973	-7.788	-1.158
2.972	-7.779	-1.158
2.333	-7.808	-0.979
2.336	-7.804	-0.971
2.338	-7.806	-0.962
2.339	-7.813	-0.956
2.338	-7.822	-0.954
2.336	-7.830	-0.959
2.333	-7.834	-0.967
2.331	-7.832	-0.976
2.330	-7.825	-0.982
2.331	-7.816	-0.983
[...]
         <CellData>
           <DataArray type="Float32" Name="aerenchymaFormation" NumberOfComponents="1" format="ascii">
 0.000e+00 0.000e+00 0.000e+00 0.000e+00 0.000e+00 0.000e+00 0.000e+00 0.000e+00 0.000e+00 0.000e+00 0.000e+00 0.000e+00 0.000e+00 0.000e+00 0.000e+00 0.000e+00 0.000e+00 0.000e+00 0.000e+00 0.000e+00 0.000e+00 0.000e+00 0.000e+00 0.000e+00 0.000e+00 0.000e+00 0.000e+00 0.000e+00 0.000e+00 0.000e+00 0.000e+00 0.000e+00 0.000e+00 0.000e+00 0.000e+00 0.000e+00 0.000e+00 0.000e+00 0.000e+00 0.000e+00 0.000e+00 0.000e+00 0.000e+00 0.000e+00 0.000e+00 0.000e+00 0.000e+00 0.000e+00 0.000e+00 0.000e+00 0.000e+00 0.000e+00 0.000e+00 0.000e+00 0.000e+00 0.000e+00 0.000e+00 0.000e+00 0.000e+00 0.000e+00 0.000e+00 0.000e+00 0.000e+00 0.000e+00 0.000e+00 0.000e+00 0.000e+00 0.000e+00 0.000e+00 0.000e+00 0.000e+00 0.000e+00 0.000e+00 0.000e+00 0.000e+00 0.000e+00 0.000e+00 0.000e+00 0.000e+00 0.000e+00 0.000e+00 0.000e+00 0.000e+00 5.833e-02 4.500e-02 3.250e-02 2.500e-02 1.750e-02 1.250e-02 7.500e-03 2.500e-03 0.000e+00 0.000e+00 0.000e+00 0.000e+00 0.000e+00 0.000e+00 0.000e+00 0.000e+00 0.000e+00 0.000e+00 0.000e+00 0.000e+00 0.000e+00 0.000e+00 0.000e+00 0.000e+00 0.000e+00 0.000e+00 0.000e+00 0.000e+00 0.000e+00 0.000e+00 0.000e+00 0.000e+00 0.000e+00 0.000e+00 0.000e+00 0.000e+00 0.000e+00 0.000e+00 0.000e+00 0.000e+00 0.000e+00 0.000e+00 0.000e+00 0.000e+00 0.000e+00 0.000e+00 0.000e+00 0.000e+00 0.000e+00 0.000e+00 0.000e+00 0.000e+00 0.000e+00 0.000e+00 0.000e+00 0.000e+00 0.000e+00 0.000e+00 0.000e+00 0.000e+00 0.000e+00 0.000e+00 0.000e+00 0.000e+00 0.000e+00 0.000e+00 0.000e+00 0.000e+00 0.000e+00 0.000e+00 0.000e+00 0.000e+00 0.000e+00 0.000e+00 0.000e+00 0.000e+00 0.000e+00 0.000e+00 0.000e+00 0.000e+00 0.000e+00 0.000e+00 0.000e+00 0.000e+00 0.000e+00 0.000e+00 0.000e+00 0.000e+00 0.000e+00 0.000e+00 0.000e+00 0.000e+00 0.000e+00 0.000e+00 0.000e+00 0.000e+00 0.000e+00 0.000e+00 0.000e+00 0.000e+00 0.000e+00 0.000e+00 0.000e+00 0.000e+00 0.000e+00 0.000e+00 0.000e+00 0.000e+00 0.000e+00 5.833e-02 4.500e-02 3.250e-02 2.500e-02 1.750e-02 1.250e-02 7.500e-03 2.500e-03 0.000e+00 0.000e+00 0.000e+00 0.000e+00 0.000e+00 0.000e+00 0.000e+00 0.000e+00 0.000e+00 0.000e+00 0.000e+00 0.000e+00 0.000e+00 0.000e+00 0.000e+00 0.000e+00 0.000e+00 0.000e+00 0.000e+00 0.000e+00 0.000e+00 0.000e+00 0.000e+00 0.000e+00 0.000e+00 0.000e+00 0.000e+00 0.000e+00 0.000e+00 0.000e+00 0.000e+00 0.000e+00 0.000e+00 0.000e+00 0.000e+00 0.000e+00 0.000e+00 0.000e+00 0.000e+00 0.000e+00 0.000e+00 0.000e+00 0.000e+00 0.000e+00 0.000e+00 0.000e+00 0.000e+00 0.000e+00 0.000e+00 0.000e+00 0.000e+00 0.000e+00 0.000e+00 0.000e+00 0.000e+00 0.000e+00 0.000e+00 0.000e+00 0.000e+00 0.000e+00 0.000e+00 0.000e+00 0.000e+00 0.000e+00 0.000e+00 0.000e+00 0.000e+00 0.000e+00 0.000e+00 0.000e+00 0.000e+00 0.000e+00 0.000e+00 0.000e+00 0.000e+00 0.000e+00 0.000e+00 0.000e+00 0.000e+00 0.000e+00 0.000e+00 0.000e+00 0.000e+00 0.000e+00 0.000e+00 0.000e+00 0.000e+00 0.000e+00 0.000e+00 0.000e+00 0.000e+00 0.000e+00 0.000e+00 0.000e+00 0.000e+00 0.000e+00 0.000e+00 0.000e+00 0.000e+00 0.000e+00 5.833e-02 4.500e-02 3.250e-02 2.500e-02 1.750e-02 1.250e-02 7.500e-03 2.500e-03 0.000e+00 0.000e+00 0.000e+00 0.000e+00 0.000e+00 0.000e+00 0.000e+00 0.000e+00 0.000e+00 0.000e+00 0.000e+00 0.000e+00 0.000e+00 0.000e+00 0.000e+00 0.000e+00 0.000e+00 0.000e+00 0.000e+00 0.000e+00 0.000e+00 0.000e+00 0.000e+00 0.000e+00 0.000e+00 0.000e+00 0.000e+00 0.000e+00 0.000e+00 0.000e+00 0.000e+00 0.000e+00 0.000e+00 0.000e+00 0.000e+00 0.000e+00 0.000e+00 0.000e+00 0.000e+00 0.000e+00 0.000e+00 0.000e+00 0.000e+00 0.000e+00 0.000e+00 0.000e+00 0.000e+00 0.000e+00 0.000e+00 0.000e+00 0.000e+00 0.000e+00 0.000e+00 0.000e+00 0.000e+00 0.000e+00 0.000e+00 0.000e+00 0.000e+00 0.000e+00 0.000e+00 0.000e+00 0.000e+00 0.000e+00 0.000e+00 0.000e+00 0.000e+00 0.000e+00 0.000e+00 0.000e+00 0.000e+00 0.000e+00 0.000e+00 0.000e+00 0.000e+00 0.000e+00 0.000e+00 0.000e+00 0.000e+00 0.000e+00 0.000e+00 0.000e+00 0.000e+00 0.000e+00 0.000e+00 0.000e+00 0.000e+00 0.000e+00 0.000e+00 0.000e+00 0.000e+00 0.000e+00 0.000e+00 0.000e+00 0.000e+00 0.000e+00 0.000e+00 0.000e+00 0.000e+00 0.000e+00 0.000e+00 0.000e+00 5.833e-02 4.500e-02 3.250e-02 2.500e-02 1.750e-02 1.250e-02 7.500e-03 2.500e-03 0.000e+00 0.000e+00 0.000e+00 0.000e+00 0.000e+00 0.000e+00 0.000e+00 0.000e+00 0.000e+00 0.000e+00 0.000e+00 0.000e+00 0.000e+00 0.000e+00 0.000e+00 1.875e-02 0.000e+00 0.000e+00 0.000e+00 0.000e+00 0.000e+00 0.000e+00 0.000e+00 0.000e+00 0.000e+00 0.000e+00 0.000e+00 1.875e-02 0.000e+00 0.000e+00 0.000e+00 0.000e+00 0.000e+00 0.000e+00 0.000e+00 0.000e+00 0.000e+00 0.000e+00 0.000e+00 1.875e-02 0.000e+00 0.000e+00 0.000e+00 0.000e+00 0.000e+00 0.000e+00 0.000e+00 0.000e+00 0.000e+00 0.000e+00 0.000e+00 1.875e-02 0.000e+00 0.000e+00 0.000e+00 0.000e+00 0.000e+00 0.000e+00 0.000e+00 0.000e+00 0.000e+00 0.000e+00 0.000e+00 0.000e+00 0.000e+00 0.000e+00 0.000e+00 0.000e+00 0.000e+00 0.000e+00 0.000e+00 0.000e+00 0.000e+00 5.715e-02 4.000e-02 1.000e-02 0.000e+00 0.000e+00 5.672e-02 3.750e-02 1.000e-02 0.000e+00 0.000e+00 5.291e-02 3.000e-02 2.500e-03 0.000e+00 0.000e+00 0.000e+00 0.000e+00 0.000e+00 0.000e+00 0.000e+00 0.000e+00 0.000e+00 0.000e+00 0.000e+00 0.000e+00 0.000e+00 0.000e+00 0.000e+00 0.000e+00 0.000e+00 0.000e+00 0.000e+00 0.000e+00 5.248e-02 2.750e-02 0.000e+00 0.000e+00 0.000e+00 0.000e+00 0.000e+00 0.000e+00 0.000e+00 0.000e+00 0.000e+00 0.000e+00 0.000e+00 0.000e+00 0.000e+00 5.206e-02 2.250e-02 0.000e+00 0.000e+00 0.000e+00 0.000e+00 0.000e+00 0.000e+00 0.000e+00 0.000e+00 0.000e+00 0.000e+00 0.000e+00 0.000e+00 5.163e-02 2.500e-02 0.000e+00 0.000e+00 0.000e+00 0.000e+00 0.000e+00 0.000e+00 0.000e+00 0.000e+00 5.121e-02 2.500e-02 0.000e+00 0.000e+00 0.000e+00 5.078e-02 2.000e-02 0.000e+00 0.000e+00 0.000e+00 5.036e-02 2.250e-02 0.000e+00 0.000e+00 0.000e+00 4.984e-02 2.500e-02 0.000e+00 0.000e+00 0.000e+00 4.878e-02 2.000e-02 0.000e+00 0.000e+00 0.000e+00 0.000e+00 4.772e-02 2.500e-02 0.000e+00 0.000e+00 0.000e+00 0.000e+00 5.630e-02 4.000e-02 1.500e-02 0.000e+00 0.000e+00 0.000e+00 4.666e-02 2.000e-02 0.000e+00 0.000e+00 0.000e+00 4.560e-02 1.750e-02 0.000e+00 0.000e+00 0.000e+00 4.454e-02 2.000e-02 0.000e+00 0.000e+00 0.000e+00 4.348e-02 1.000e-02 0.000e+00 0.000e+00 4.242e-02 1.750e-02 0.000e+00 0.000e+00 0.000e+00 4.136e-02 1.750e-02 0.000e+00 0.000e+00 0.000e+00 4.029e-02 5.000e-03 0.000e+00 0.000e+00 3.923e-02 1.000e-02 0.000e+00 0.000e+00 3.817e-02 1.000e-02 0.000e+00 0.000e+00 0.000e+00 3.711e-02 1.000e-02 0.000e+00 0.000e+00 5.588e-02 3.500e-02 5.000e-03 0.000e+00 0.000e+00 3.605e-02 1.000e-02 0.000e+00 0.000e+00 0.000e+00 3.499e-02 5.000e-03 0.000e+00 0.000e+00 3.393e-02 5.000e-03 0.000e+00 0.000e+00 3.287e-02 5.000e-03 0.000e+00 0.000e+00 0.000e+00 3.181e-02 0.000e+00 0.000e+00 0.000e+00 3.075e-02 0.000e+00 0.000e+00 2.969e-02 0.000e+00 0.000e+00 0.000e+00 2.863e-02 0.000e+00 0.000e+00 0.000e+00 2.757e-02 0.000e+00 0.000e+00 0.000e+00 2.651e-02 0.000e+00 0.000e+00 0.000e+00 0.000e+00 5.545e-02 3.750e-02 1.000e-02 0.000e+00 0.000e+00 0.000e+00 2.545e-02 0.000e+00 0.000e+00 0.000e+00 2.438e-02 0.000e+00 0.000e+00 0.000e+00 2.332e-02 0.000e+00 0.000e+00 0.000e+00 2.226e-02 0.000e+00 0.000e+00 0.000e+00 2.120e-02 0.000e+00 0.000e+00 0.000e+00 2.014e-02 0.000e+00 0.000e+00 0.000e+00 1.908e-02 0.000e+00 0.000e+00 0.000e+00 1.802e-02 0.000e+00 0.000e+00 0.000e+00 1.696e-02 0.000e+00 0.000e+00 1.590e-02 0.000e+00 0.000e+00 0.000e+00 5.503e-02 3.500e-02 5.000e-03 0.000e+00 0.000e+00 1.484e-02 0.000e+00 0.000e+00 0.000e+00 1.378e-02 0.000e+00 0.000e+00 0.000e+00 1.272e-02 0.000e+00 0.000e+00 1.166e-02 0.000e+00 0.000e+00 1.060e-02 0.000e+00 0.000e+00 0.000e+00 9.535e-03 0.000e+00 0.000e+00 8.475e-03 0.000e+00 0.000e+00 7.414e-03 0.000e+00 0.000e+00 6.353e-03 0.000e+00 0.000e+00 5.293e-03 0.000e+00 0.000e+00 5.460e-02 3.500e-02 7.500e-03 0.000e+00 0.000e+00 4.232e-03 0.000e+00 0.000e+00 0.000e+00 3.171e-03 0.000e+00 0.000e+00 2.111e-03 0.000e+00 0.000e+00 1.050e-03 0.000e+00 0.000e+00 0.000e+00 0.000e+00 0.000e+00 0.000e+00 0.000e+00 0.000e+00 0.000e+00 0.000e+00 0.000e+00 0.000e+00 0.000e+00 0.000e+00 0.000e+00 0.000e+00 0.000e+00 0.000e+00 0.000e+00 0.000e+00 5.418e-02 3.000e-02 0.000e+00 0.000e+00 0.000e+00 0.000e+00 0.000e+00 0.000e+00 0.000e+00 0.000e+00 0.000e+00 0.000e+00 0.000e+00 0.000e+00 0.000e+00 0.000e+00 0.000e+00 0.000e+00 0.000e+00 0.000e+00 0.000e+00 0.000e+00 0.000e+00 0.000e+00 0.000e+00 0.000e+00 0.000e+00 0.000e+00 0.000e+00 0.000e+00 5.375e-02 3.000e-02 0.000e+00 0.000e+00 0.000e+00 0.000e+00 0.000e+00 0.000e+00 0.000e+00 0.000e+00 0.000e+00 0.000e+00 0.000e+00 0.000e+00 0.000e+00 0.000e+00 0.000e+00 0.000e+00 0.000e+00 0.000e+00 0.000e+00 0.000e+00 0.000e+00 0.000e+00 0.000e+00 5.333e-02 2.500e-02 0.000e+00 0.000e+00 0.000e+00 0.000e+00 0.000e+00 0.000e+00 0.000e+00 0.000e+00 0.000e+00 0.000e+00 0.000e+00 0.000e+00 0.000e+00 0.000e+00 0.000e+00 0.000e+00 0.000e+00 0.000e+00 0.000e+00 0.000e+00 0.000e+00 0.000e+00 0.000e+00 0.000e+00 0.000e+00 0.000e+00 2.769e-02 1.250e-02 0.000e+00 0.000e+00 0.000e+00 0.000e+00 0.000e+00 1.274e-03 0.000e+00 0.000e+00 0.000e+00 0.000e+00 0.000e+00 0.000e+00 0.000e+00 0.000e+00 0.000e+00 0.000e+00 0.000e+00 1.000e-01 9.700e-02 9.400e-02 9.100e-02 8.800e-02 8.500e-02 8.100e-02 7.800e-02 7.500e-02 7.100e-02 6.800e-02 6.500e-02 6.100e-02 5.800e-02 5.500e-02 5.200e-02 4.750e-02 4.000e-02 3.250e-02 2.500e-02 1.750e-02 1.000e-02 2.500e-03 0.000e+00 0.000e+00 0.000e+00 0.000e+00 0.000e+00 0.000e+00 0.000e+00 0.000e+00 0.000e+00
           </DataArray>
           <DataArray type="Float32" Name="combinedRootClassID" NumberOfComponents="1" format="ascii">
 -1.300e+01 -1.300e+01 -1.300e+01 -1.300e+01 -1.300e+01 -1.300e+01 -1.300e+01 -1.300e+01 -1.300e+01 -1.300e+01 -1.300e+01 -1.300e+01 -1.300e+01 -1.300e+01 -1.300e+01 -1.300e+01 -1.300e+01 -1.300e+01 -1.300e+01 -1.300e+01 -1.300e+01 -1.300e+01 -1.300e+01 -1.300e+01 -1.300e+01 -1.300e+01 -1.300e+01 -1.300e+01 -1.300e+01 -1.300e+01 -1.300e+01 -1.300e+01 -1.300e+01 -1.300e+01 -1.300e+01 -1.300e+01 -1.300e+01 -1.300e+01 -1.300e+01 -1.300e+01 -1.300e+01 -1.300e+01 -1.300e+01 -1.300e+01 -1.300e+01 -1.300e+01 -1.300e+01 -1.300e+01 -1.300e+01 -1.300e+01 -1.300e+01 -1.300e+01 -1.300e+01 -1.300e+01 -1.300e+01 -1.300e+01 -1.300e+01 -1.300e+01 -1.300e+01 -1.300e+01 -1.300e+01 -1.300e+01 -1.300e+01 -1.300e+01 -1.300e+01 -1.300e+01 -1.300e+01 -1.300e+01 -1.300e+01 -1.300e+01 -1.300e+01 -1.300e+01 -1.300e+01 -1.300e+01 -1.300e+01 -1.300e+01 -1.300e+01 -1.300e+01 -1.300e+01 -1.300e+01 -1.300e+01 -1.300e+01 -1.300e+01 -5.000e+00 -5.000e+00 -5.000e+00 -5.000e+00 -5.000e+00 -5.000e+00 -5.000e+00 -5.000e+00 -5.000e+00 -5.000e+00 -5.000e+00 -5.000e+00 -5.000e+00 -5.000e+00 -5.000e+00 -5.000e+00 -5.000e+00 -5.000e+00 -5.000e+00 -5.000e+00 -5.000e+00 -5.000e+00 -5.000e+00 -1.300e+01 -1.300e+01 -1.300e+01 -1.300e+01 -1.300e+01 -1.300e+01 -1.300e+01 -1.300e+01 -1.300e+01 -1.300e+01 -1.300e+01 -1.300e+01 -1.300e+01 -1.300e+01 -1.300e+01 -1.300e+01 -1.300e+01 -1.300e+01 -1.300e+01 -1.300e+01 -1.300e+01 -1.300e+01 -1.300e+01 -1.300e+01 -1.300e+01 -1.300e+01 -1.300e+01 -1.300e+01 -1.300e+01 -1.300e+01 -1.300e+01 -1.300e+01 -1.300e+01 -1.300e+01 -1.300e+01 -1.300e+01 -1.300e+01 -1.300e+01 -1.300e+01 -1.300e+01 -1.300e+01 -1.300e+01 -1.300e+01 -1.300e+01 -1.300e+01 -1.300e+01 -1.300e+01 -1.300e+01 -1.300e+01 -1.300e+01 -1.300e+01 -1.300e+01 -1.300e+01 -1.300e+01 -1.300e+01 -1.300e+01 -1.300e+01 -1.300e+01 -1.300e+01 -1.300e+01 -1.300e+01 -1.300e+01 -1.300e+01 -1.300e+01 -1.300e+01 -1.300e+01 -1.300e+01 -1.300e+01 -1.300e+01 -1.300e+01 -1.300e+01 -1.300e+01 -1.300e+01 -1.300e+01 -1.300e+01 -1.300e+01 -1.300e+01 -1.300e+01 -1.300e+01 -1.300e+01 -1.300e+01 -1.300e+01 -1.300e+01 -1.300e+01 -1.300e+01 -1.300e+01 -5.000e+00 -5.000e+00 -5.000e+00 -5.000e+00 -5.000e+00 -5.000e+00 -5.000e+00 -5.000e+00 -5.000e+00 -5.000e+00 -5.000e+00 -5.000e+00 -5.000e+00 -5.000e+00 -5.000e+00 -5.000e+00 -5.000e+00 -5.000e+00 -5.000e+00 -5.000e+00 -5.000e+00 -5.000e+00 -5.000e+00 -1.300e+01 -1.300e+01 -1.300e+01 -1.300e+01 -1.300e+01 -1.300e+01 -1.300e+01 -1.300e+01 -1.300e+01 -1.300e+01 -1.300e+01 -1.300e+01 -1.300e+01 -1.300e+01 -1.300e+01 -1.300e+01 -1.300e+01 -1.300e+01 -1.300e+01 -1.300e+01 -1.300e+01 -1.300e+01 -1.300e+01 -1.300e+01 -1.300e+01 -1.300e+01 -1.300e+01 -1.300e+01 -1.300e+01 -1.300e+01 -1.300e+01 -1.300e+01 -1.300e+01 -1.300e+01 -1.300e+01 -1.300e+01 -1.300e+01 -1.300e+01 -1.300e+01 -1.300e+01 -1.300e+01 -1.300e+01 -1.300e+01 -1.300e+01 -1.300e+01 -1.300e+01 -1.300e+01 -1.300e+01 -1.300e+01 -1.300e+01 -1.300e+01 -1.300e+01 -1.300e+01 -1.300e+01 -1.300e+01 -1.300e+01 -1.300e+01 -1.300e+01 -1.300e+01 -1.300e+01 -1.300e+01 -1.300e+01 -1.300e+01 -1.300e+01 -1.300e+01 -1.300e+01 -1.300e+01 -1.300e+01 -1.300e+01 -1.300e+01 -1.300e+01 -1.300e+01 -1.300e+01 -1.300e+01 -1.300e+01 -1.300e+01 -1.300e+01 -1.300e+01 -1.300e+01 -1.300e+01 -1.300e+01 -1.300e+01 -1.300e+01 -1.300e+01 -1.300e+01 -5.000e+00 -5.000e+00 -5.000e+00 -5.000e+00 -5.000e+00 -5.000e+00 -5.000e+00 -5.000e+00 -5.000e+00 -5.000e+00 -5.000e+00 -5.000e+00 -5.000e+00 -5.000e+00 -5.000e+00 -5.000e+00 -5.000e+00 -5.000e+00 -5.000e+00 -5.000e+00 -5.000e+00 -5.000e+00 -5.000e+00 -1.300e+01 -1.300e+01 -1.300e+01 -1.300e+01 -1.300e+01 -1.300e+01 -1.300e+01 -1.300e+01 -1.300e+01 -1.300e+01 -1.300e+01 -1.300e+01 -1.300e+01 -1.300e+01 -1.300e+01 -1.300e+01 -1.300e+01 -1.300e+01 -1.300e+01 -1.300e+01 -1.300e+01 -1.300e+01 -1.300e+01 -1.300e+01 -1.300e+01 -1.300e+01 -1.300e+01 -1.300e+01 -1.300e+01 -1.300e+01 -1.300e+01 -1.300e+01 -1.300e+01 -1.300e+01 -1.300e+01 -1.300e+01 -1.300e+01 -1.300e+01 -1.300e+01 -1.300e+01 -1.300e+01 -1.300e+01 -1.300e+01 -1.300e+01 -1.300e+01 -1.300e+01 -1.300e+01 -1.300e+01 -1.300e+01 -1.300e+01 -1.300e+01 -1.300e+01 -1.300e+01 -1.300e+01 -1.300e+01 -1.300e+01 -1.300e+01 -1.300e+01 -1.300e+01 -1.300e+01 -1.300e+01 -1.300e+01 -1.300e+01 -1.300e+01 -1.300e+01 -1.300e+01 -1.300e+01 -1.300e+01 -1.300e+01 -1.300e+01 -1.300e+01 -1.300e+01 -1.300e+01 -1.300e+01 -1.300e+01 -1.300e+01 -1.300e+01 -1.300e+01 -1.300e+01 -1.300e+01 -1.300e+01 -1.300e+01 -1.300e+01 -1.300e+01 -1.300e+01 -1.300e+01 -1.300e+01 -5.000e+00 -5.000e+00 -5.000e+00 -5.000e+00 -5.000e+00 -5.000e+00 -5.000e+00 -5.000e+00 -5.000e+00 -5.000e+00 -5.000e+00 -5.000e+00 -5.000e+00 -5.000e+00 -5.000e+00 -5.000e+00 -5.000e+00 -5.000e+00 -5.000e+00 -5.000e+00 -5.000e+00 -5.000e+00 -5.000e+00 -1.100e+01 -1.100e+01 -1.100e+01 -1.100e+01 -1.100e+01 -1.100e+01 -1.100e+01 -1.100e+01 -1.100e+01 -1.100e+01 -1.100e+01 -1.100e+01 -1.100e+01 -1.100e+01 -1.100e+01 -1.100e+01 -1.100e+01 -1.100e+01 -1.100e+01 -1.100e+01 -1.100e+01 -1.100e+01 -1.100e+01 -1.100e+01 -1.100e+01 -1.100e+01 -1.100e+01 -1.100e+01 -1.100e+01 -1.100e+01 -1.100e+01 -1.100e+01 -1.100e+01 -1.100e+01 -1.100e+01 -1.100e+01 -1.100e+01 -1.100e+01 -1.100e+01 -1.100e+01 -1.100e+01 -1.100e+01 -1.100e+01 -1.100e+01 -1.100e+01 -1.100e+01 -1.100e+01 -1.100e+01 -2.000e+00 -2.000e+00 -2.000e+00 -2.000e+00 -2.000e+00 -2.000e+00 -2.000e+00 -2.000e+00 -2.000e+00 -2.000e+00 -7.000e+00 -7.000e+00 -7.000e+00 -7.000e+00 -7.000e+00 -7.000e+00 -7.000e+00 -7.000e+00 -7.000e+00 -7.000e+00 -7.000e+00 -7.000e+00 -7.000e+00 -7.000e+00 -7.000e+00 -7.000e+00 -7.000e+00 -7.000e+00 -7.000e+00 -7.000e+00 -7.000e+00 -7.000e+00 -7.000e+00 -7.000e+00 -7.000e+00 -7.000e+00 -7.000e+00 -7.000e+00 -7.000e+00 -7.000e+00 -7.000e+00 -7.000e+00 -7.000e+00 -7.000e+00 -7.000e+00 -7.000e+00 -7.000e+00 -7.000e+00 -7.000e+00 -7.000e+00 -7.000e+00 -7.000e+00 -7.000e+00 -7.000e+00 -7.000e+00 -7.000e+00 -7.000e+00 -7.000e+00 -7.000e+00 -7.000e+00 -7.000e+00 -7.000e+00 -7.000e+00 -7.000e+00 -7.000e+00 -7.000e+00 -7.000e+00 -7.000e+00 -7.000e+00 -7.000e+00 -7.000e+00 -7.000e+00 -7.000e+00 -7.000e+00 -7.000e+00 -7.000e+00 -7.000e+00 -7.000e+00 -7.000e+00 -7.000e+00 -7.000e+00 -7.000e+00 -7.000e+00 -7.000e+00 -7.000e+00 -7.000e+00 -7.000e+00 -7.000e+00 -7.000e+00 -7.000e+00 -7.000e+00 -7.000e+00 -7.000e+00 -7.000e+00 -7.000e+00 -7.000e+00 -7.000e+00 -7.000e+00 -7.000e+00 -7.000e+00 -7.000e+00 -7.000e+00 -7.000e+00 -7.000e+00 -7.000e+00 -7.000e+00 -7.000e+00 -1.500e+01 -7.000e+00 -7.000e+00 -7.000e+00 -7.000e+00 -7.000e+00 -1.500e+01 -7.000e+00 -7.000e+00 -7.000e+00 -7.000e+00 -7.000e+00 -7.000e+00 -7.000e+00 -7.000e+00 -7.000e+00 -7.000e+00 -7.000e+00 -7.000e+00 -7.000e+00 -7.000e+00 -7.000e+00 -7.000e+00 -7.000e+00 -7.000e+00 -7.000e+00 -7.000e+00 -7.000e+00 -7.000e+00 -7.000e+00 -7.000e+00 -7.000e+00 -7.000e+00 -7.000e+00 -7.000e+00 -7.000e+00 -7.000e+00 -7.000e+00 -7.000e+00 -7.000e+00 -7.000e+00 -7.000e+00 -7.000e+00 -7.000e+00 -7.000e+00 -7.000e+00 -7.000e+00 -7.000e+00 -7.000e+00 -7.000e+00 -7.000e+00 -7.000e+00 -7.000e+00 -7.000e+00 -7.000e+00 -7.000e+00 -7.000e+00 -7.000e+00 -7.000e+00 -7.000e+00 -7.000e+00 -7.000e+00 -7.000e+00 -7.000e+00 -7.000e+00 -7.000e+00 -7.000e+00 -7.000e+00 -7.000e+00 -7.000e+00 -7.000e+00 -7.000e+00 -7.000e+00 -7.000e+00 -7.000e+00 -7.000e+00 -7.000e+00 -7.000e+00 -7.000e+00 -7.000e+00 -7.000e+00 -7.000e+00 -7.000e+00 -7.000e+00 -7.000e+00 -7.000e+00 -7.000e+00 -7.000e+00 -7.000e+00 -7.000e+00 -7.000e+00 -7.000e+00 -7.000e+00 -7.000e+00 -7.000e+00 -7.000e+00 -7.000e+00 -7.000e+00 -7.000e+00 -7.000e+00 -7.000e+00 -7.000e+00 -7.000e+00 -7.000e+00 -7.000e+00 -1.500e+01 -7.000e+00 -7.000e+00 -7.000e+00 -7.000e+00 -7.000e+00 -7.000e+00 -7.000e+00 -7.000e+00 -7.000e+00 -7.000e+00 -7.000e+00 -7.000e+00 -7.000e+00 -7.000e+00 -7.000e+00 -7.000e+00 -7.000e+00 -7.000e+00 -7.000e+00 -7.000e+00 -7.000e+00 -7.000e+00 -7.000e+00 -7.000e+00 -7.000e+00 -7.000e+00 -7.000e+00 -7.000e+00 -7.000e+00 -7.000e+00 -7.000e+00 -7.000e+00 -7.000e+00 -7.000e+00 -7.000e+00 -7.000e+00 -7.000e+00 -7.000e+00 -7.000e+00 -7.000e+00 -7.000e+00 -7.000e+00 -7.000e+00 -7.000e+00 -7.000e+00 -7.000e+00 -7.000e+00 -7.000e+00 -7.000e+00 -7.000e+00 -7.000e+00 -7.000e+00 -7.000e+00 -7.000e+00 -7.000e+00 -7.000e+00 -7.000e+00 -7.000e+00 -7.000e+00 -7.000e+00 -7.000e+00 -7.000e+00 -7.000e+00 -7.000e+00 -7.000e+00 -7.000e+00 -7.000e+00 -7.000e+00 -7.000e+00 -7.000e+00 -7.000e+00 -7.000e+00 -7.000e+00 -7.000e+00 -7.000e+00 -7.000e+00 -7.000e+00 -7.000e+00 -7.000e+00 -7.000e+00 -7.000e+00 -7.000e+00 -7.000e+00 -7.000e+00 -7.000e+00 -7.000e+00 -7.000e+00 -7.000e+00 -7.000e+00 -7.000e+00 -7.000e+00 -7.000e+00 -7.000e+00 -7.000e+00 -7.000e+00 -7.000e+00 -7.000e+00 -7.000e+00 -7.000e+00 -7.000e+00 -7.000e+00 -7.000e+00 -7.000e+00 -7.000e+00 -7.000e+00 -7.000e+00 -7.000e+00 -7.000e+00 -7.000e+00 -7.000e+00 -7.000e+00 -7.000e+00 -7.000e+00 -7.000e+00 -7.000e+00 -7.000e+00 -7.000e+00 -7.000e+00 -7.000e+00 -7.000e+00 -7.000e+00 -7.000e+00 -7.000e+00 -7.000e+00 -7.000e+00 -7.000e+00 -7.000e+00 -7.000e+00 -7.000e+00 -7.000e+00 -7.000e+00 -7.000e+00 -7.000e+00 -7.000e+00 -7.000e+00 -7.000e+00 -7.000e+00 -7.000e+00 -7.000e+00 -7.000e+00 -7.000e+00 -7.000e+00 -7.000e+00 -7.000e+00 -7.000e+00 -7.000e+00 -7.000e+00 -7.000e+00 -7.000e+00 -7.000e+00 -7.000e+00 -7.000e+00 -7.000e+00 -7.000e+00 -7.000e+00 -7.000e+00 -7.000e+00 -7.000e+00 -7.000e+00 -7.000e+00 -7.000e+00 -7.000e+00 -7.000e+00 -7.000e+00 -7.000e+00 -7.000e+00 -7.000e+00 -7.000e+00 -7.000e+00 -7.000e+00 -7.000e+00 -7.000e+00 -7.000e+00 -7.000e+00 -7.000e+00 -7.000e+00 -7.000e+00 -7.000e+00 -7.000e+00 -7.000e+00 -7.000e+00 -7.000e+00 -7.000e+00 -7.000e+00 -7.000e+00 -7.000e+00 -7.000e+00 -7.000e+00 -7.000e+00 -7.000e+00 -7.000e+00 -7.000e+00 -7.000e+00 -7.000e+00 -7.000e+00 -7.000e+00 -7.000e+00 -7.000e+00 -7.000e+00 -1.700e+01 -1.700e+01 -1.700e+01 -9.000e+00 -9.000e+00 -9.000e+00 -9.000e+00 -9.000e+00 -9.000e+00 -9.000e+00 -9.000e+00 -9.000e+00 -9.000e+00 -9.000e+00 -9.000e+00 -9.000e+00 -9.000e+00 -9.000e+00 -9.000e+00 -9.000e+00 -9.000e+00 -9.000e+00 -4.000e+00 -4.000e+00 -4.000e+00 -4.000e+00 -4.000e+00 -4.000e+00 -4.000e+00 -4.000e+00 -4.000e+00 -4.000e+00 -4.000e+00 -4.000e+00 -4.000e+00 -4.000e+00 -4.000e+00 -4.000e+00 -4.000e+00 -4.000e+00 -4.000e+00 -4.0