<?xml version="1.0"?>
<VTKFile type="UnstructuredGrid" version="0.1" byte_order="LittleEndian">
   <UnstructuredGrid>
      <Piece NumberOfPoints="4600" NumberOfCells="323">
         <Points>
            <DataArray type="Float32" Name="Position" NumberOfComponents="3" format="ascii">
0.140	-5.037	-0.072
0.140	-5.028	-0.071
0.135	-5.021	-0.067
0.128	-5.019	-0.062
0.121	-5.022	-0.058
0.116	-5.030	-0.056
0.116	-5.039	-0.057
0.121	-5.046	-0.060
0.128	-5.049	-0.066
0.135	-5.045	-0.070
0.221	-5.060	0.085
0.221	-5.051	0.090
0.221	-5.042	0.088
0.221	-5.036	0.082
0.221	-5.034	0.073
0.221	-5.038	0.064
0.221	-5.047	0.060
0.221	-5.056	0.061
0.221	-5.062	0.068
0.221	-5.064	0.077
0.260	-5.097	-0.136
0.259	-5.088	-0.133
0.254	-5.083	-0.128
0.248	-5.083	-0.121
0.241	-5.088	-0.117
0.238	-5.096	-0.116
0.239	-5.105	-0.118
0.244	-5.111	-0.124
0.250	-5.111	-0.131
0.257	-5.106	-0.135
0.395	-5.132	0.006
0.394	-5.123	0.009
0.389	-5.117	0.015
0.383	-5.117	0.022
0.376	-5.122	0.026
0.373	-5.131	0.027
0.374	-5.139	0.024
0.379	-5.145	0.019
0.385	-5.145	0.012
0.391	-5.140	0.008
0.365	-5.159	-0.193
0.367	-5.155	-0.185
0.368	-5.157	-0.176
0.369	-5.164	-0.170
0.369	-5.174	-0.169
0.368	-5.182	-0.173
0.366	-5.185	-0.182
0.365	-5.183	-0.190
0.364	-5.176	-0.197
0.364	-5.167	-0.198
0.517	-5.165	-0.220
0.519	-5.161	-0.212
0.521	-5.163	-0.203
0.521	-5.170	-0.197
0.521	-5.180	-0.196
0.520	-5.188	-0.200
0.519	-5.191	-0.209
0.517	-5.189	-0.218
0.516	-5.182	-0.224
0.516	-5.173	-0.225
0.498	-5.253	-0.238
0.500	-5.251	-0.229
0.497	-5.249	-0.221
0.490	-5.246	-0.216
0.481	-5.244	-0.216
0.474	-5.244	-0.222
0.471	-5.245	-0.231
0.474	-5.248	-0.239
0.482	-5.251	-0.244
0.491	-5.252	-0.244
0.475	-5.359	-0.214
0.478	-5.358	-0.205
0.475	-5.355	-0.196
0.467	-5.353	-0.192
0.458	-5.351	-0.192
0.451	-5.351	-0.198
0.448	-5.352	-0.207
0.451	-5.354	-0.215
0.459	-5.357	-0.220
0.468	-5.359	-0.219
0.613	-5.334	-0.285
0.613	-5.325	-0.284
0.609	-5.318	-0.280
0.601	-5.316	-0.274
0.594	-5.320	-0.270
0.590	-5.328	-0.268
0.590	-5.337	-0.270
0.594	-5.344	-0.274
0.602	-5.346	-0.279
0.609	-5.342	-0.284
0.678	-5.350	-0.193
0.678	-5.341	-0.191
0.673	-5.334	-0.187
0.666	-5.332	-0.182
0.658	-5.336	-0.177
0.654	-5.344	-0.175
0.654	-5.353	-0.177
0.659	-5.359	-0.181
0.666	-5.361	-0.187
0.673	-5.358	-0.191
0.724	-5.421	-0.334
0.723	-5.412	-0.332
0.719	-5.406	-0.326
0.712	-5.405	-0.320
0.705	-5.410	-0.316
0.702	-5.418	-0.314
0.703	-5.427	-0.316
0.707	-5.433	-0.321
0.714	-5.434	-0.328
0.721	-5.430	-0.332
0.775	-5.431	-0.275
0.774	-5.422	-0.273
0.769	-5.416	-0.268
0.762	-5.416	-0.261
0.756	-5.420	-0.257
0.752	-5.429	-0.255
0.753	-5.438	-0.257
0.758	-5.444	-0.263
0.765	-5.445	-0.269
0.771	-5.440	-0.273
0.816	-5.501	-0.381
0.820	-5.498	-0.373
0.825	-5.501	-0.365
0.827	-5.508	-0.361
0.827	-5.517	-0.361
0.824	-5.525	-0.365
0.820	-5.528	-0.373
0.815	-5.525	-0.380
0.813	-5.517	-0.385
0.813	-5.508	-0.385
0.871	-5.502	-0.413
0.876	-5.499	-0.405
0.880	-5.502	-0.398
0.883	-5.509	-0.393
0.883	-5.519	-0.393
0.880	-5.526	-0.397
0.875	-5.529	-0.405
0.871	-5.526	-0.413
0.868	-5.519	-0.418
0.869	-5.509	-0.418
0.938	-5.612	-0.425
0.938	-5.603	-0.423
0.933	-5.597	-0.419
0.926	-5.595	-0.413
0.919	-5.599	-0.409
0.914	-5.607	-0.408
0.914	-5.616	-0.410
0.918	-5.622	-0.414
0.926	-5.624	-0.420
0.933	-5.620	-0.424
0.962	-5.621	-0.391
0.962	-5.612	-0.388
0.958	-5.605	-0.384
0.951	-5.603	-0.378
0.943	-5.607	-0.374
0.939	-5.615	-0.373
0.939	-5.624	-0.375
0.943	-5.631	-0.380
0.950	-5.633	-0.385
0.958	-5.629	-0.389
1.019	-5.699	-0.457
1.027	-5.695	-0.459
1.036	-5.697	-0.461
1.043	-5.704	-0.461
1.044	-5.713	-0.459
1.040	-5.721	-0.457
1.032	-5.725	-0.455
1.023	-5.723	-0.453
1.016	-5.716	-0.453
1.015	-5.707	-0.455
1.016	-5.703	-0.475
1.024	-5.699	-0.477
1.033	-5.701	-0.479
1.039	-5.707	-0.479
1.041	-5.716	-0.477
1.037	-5.724	-0.475
1.029	-5.728	-0.473
1.020	-5.727	-0.471
1.013	-5.720	-0.471
1.012	-5.711	-0.473
0.002	-4.967	-0.025
0.014	-4.960	-0.009
0.020	-4.964	0.011
0.019	-4.979	0.026
0.010	-4.997	0.032
-0.002	-5.013	0.025
-0.013	-5.020	0.009
-0.020	-5.016	-0.011
-0.018	-5.001	-0.026
-0.010	-4.983	-0.032
0.642	-5.337	-0.318
0.654	-5.330	-0.302
0.659	-5.334	-0.282
0.657	-5.347	-0.266
0.646	-5.365	-0.259
0.632	-5.379	-0.265
0.621	-5.386	-0.281
0.615	-5.382	-0.301
0.618	-5.369	-0.317
0.628	-5.351	-0.324
1.256	-5.925	-0.573
1.269	-5.920	-0.557
1.273	-5.924	-0.537
1.268	-5.935	-0.520
1.254	-5.949	-0.513
1.238	-5.961	-0.519
1.225	-5.966	-0.534
1.220	-5.962	-0.555
1.226	-5.951	-0.572
1.240	-5.937	-0.579
1.638	-6.471	-0.751
1.651	-6.467	-0.735
1.655	-6.470	-0.714
1.647	-6.480	-0.697
1.632	-6.492	-0.690
1.614	-6.502	-0.695
1.601	-6.506	-0.711
1.597	-6.502	-0.732
1.605	-6.493	-0.749
1.620	-6.481	-0.756
2.041	-7.152	-0.911
2.053	-7.148	-0.895
2.055	-7.151	-0.874
2.046	-7.159	-0.857
2.029	-7.169	-0.850
2.011	-7.178	-0.855
1.998	-7.181	-0.872
1.996	-7.179	-0.893
2.005	-7.170	-0.910
2.022	-7.160	-0.917
2.299	-7.691	-0.985
2.311	-7.688	-0.968
2.312	-7.689	-0.947
2.302	-7.696	-0.930
2.284	-7.705	-0.924
2.265	-7.712	-0.930
2.253	-7.716	-0.947
2.252	-7.714	-0.968
2.263	-7.708	-0.985
2.281	-7.699	-0.991
2.556	-8.291	-1.032
2.568	-8.288	-1.015
2.569	-8.289	-0.994
2.558	-8.295	-0.977
2.539	-8.303	-0.971
2.520	-8.309	-0.978
2.508	-8.312	-0.995
2.508	-8.311	-1.016
2.519	-8.305	-1.033
2.538	-8.297	-1.039
2.784	-8.956	-1.093
2.796	-8.954	-1.076
2.796	-8.955	-1.055
2.784	-8.960	-1.038
2.765	-8.967	-1.032
2.746	-8.972	-1.039
2.734	-8.975	-1.056
2.734	-8.973	-1.077
2.746	-8.968	-1.094
2.765	-8.961	-1.100
2.991	-9.683	-1.145
3.003	-9.681	-1.128
3.002	-9.683	-1.107
2.990	-9.687	-1.090
2.971	-9.693	-1.085
2.952	-9.697	-1.092
2.940	-9.699	-1.109
2.940	-9.697	-1.130
2.952	-9.693	-1.147
2.972	-9.687	-1.152
3.180	-10.454	-1.206
3.192	-10.453	-1.188
3.191	-10.455	-1.167
3.179	-10.459	-1.151
3.159	-10.463	-1.145
3.140	-10.467	-1.153
3.128	-10.468	-1.170
3.128	-10.466	-1.191
3.141	-10.462	-1.207
3.160	-10.457	-1.213
3.317	-11.240	-1.277
3.328	-11.240	-1.260
3.327	-11.242	-1.239
3.314	-11.245	-1.223
3.294	-11.248	-1.218
3.275	-11.250	-1.225
3.263	-11.250	-1.243
3.264	-11.249	-1.264
3.278	-11.246	-1.280
3.298	-11.243	-1.285
3.401	-12.036	-1.320
3.412	-12.036	-1.302
3.410	-12.037	-1.281
3.396	-12.039	-1.266
3.376	-12.041	-1.261
3.357	-12.043	-1.269
3.346	-12.043	-1.287
3.348	-12.042	-1.308
3.361	-12.040	-1.324
3.382	-12.038	-1.329
3.478	-12.833	-1.345
3.489	-12.832	-1.327
3.487	-12.833	-1.306
3.473	-12.835	-1.290
3.452	-12.837	-1.286
3.433	-12.838	-1.295
3.423	-12.839	-1.313
3.425	-12.838	-1.334
3.439	-12.836	-1.349
3.459	-12.834	-1.354
3.514	-13.231	-1.354
3.524	-13.230	-1.336
3.522	-13.231	-1.315
3.508	-13.233	-1.300
3.488	-13.235	-1.295
3.469	-13.236	-1.304
3.458	-13.237	-1.322
3.460	-13.236	-1.343
3.474	-13.234	-1.358
3.495	-13.233	-1.363
-0.071	-5.004	-0.139
-0.066	-5.001	-0.132
-0.061	-5.004	-0.125
-0.058	-5.012	-0.120
-0.059	-5.021	-0.120
-0.062	-5.028	-0.124
-0.067	-5.031	-0.131
-0.072	-5.028	-0.139
-0.075	-5.021	-0.143
-0.075	-5.012	-0.143
0.115	-5.035	-0.251
0.119	-5.027	-0.251
0.117	-5.018	-0.251
0.111	-5.011	-0.251
0.102	-5.010	-0.251
0.093	-5.014	-0.251
0.089	-5.023	-0.251
0.091	-5.032	-0.251
0.097	-5.038	-0.251
0.106	-5.040	-0.251
-0.131	-5.041	-0.272
-0.125	-5.038	-0.265
-0.120	-5.041	-0.258
-0.117	-5.048	-0.253
-0.118	-5.057	-0.253
-0.122	-5.065	-0.257
-0.127	-5.068	-0.263
-0.132	-5.065	-0.271
-0.135	-5.057	-0.275
-0.134	-5.048	-0.276
0.018	-5.079	-0.363
0.022	-5.071	-0.364
0.022	-5.062	-0.366
0.016	-5.055	-0.366
0.006	-5.053	-0.367
-0.002	-5.057	-0.366
-0.007	-5.065	-0.365
-0.006	-5.074	-0.364
0.000	-5.081	-0.363
0.009	-5.083	-0.363
-0.194	-5.097	-0.388
-0.189	-5.090	-0.391
-0.181	-5.088	-0.396
-0.173	-5.092	-0.399
-0.169	-5.100	-0.401
-0.170	-5.110	-0.400
-0.175	-5.116	-0.397
-0.183	-5.118	-0.392
-0.191	-5.114	-0.389
-0.195	-5.106	-0.387
-0.259	-5.105	-0.514
-0.253	-5.098	-0.518
-0.245	-5.096	-0.522
-0.238	-5.100	-0.525
-0.234	-5.108	-0.527
-0.234	-5.117	-0.526
-0.240	-5.124	-0.523
-0.248	-5.126	-0.519
-0.255	-5.122	-0.515
-0.260	-5.114	-0.513
-0.223	-5.168	-0.529
-0.220	-5.166	-0.520
-0.222	-5.164	-0.512
-0.230	-5.162	-0.506
-0.239	-5.161	-0.506
-0.246	-5.162	-0.511
-0.250	-5.163	-0.520
-0.247	-5.165	-0.529
-0.240	-5.167	-0.534
-0.231	-5.168	-0.534
-0.235	-5.309	-0.498
-0.232	-5.307	-0.490
-0.235	-5.305	-0.481
-0.242	-5.303	-0.476
-0.251	-5.302	-0.476
-0.259	-5.303	-0.481
-0.262	-5.304	-0.489
-0.259	-5.306	-0.498
-0.252	-5.308	-0.503
-0.243	-5.309	-0.504
-0.294	-5.226	-0.641
-0.287	-5.220	-0.643
-0.279	-5.219	-0.646
-0.271	-5.224	-0.648
-0.268	-5.233	-0.649
-0.270	-5.242	-0.648
-0.277	-5.248	-0.646
-0.286	-5.248	-0.643
-0.293	-5.243	-0.641
-0.296	-5.235	-0.640
-0.324	-5.227	-0.731
-0.317	-5.221	-0.733
-0.308	-5.220	-0.736
-0.301	-5.225	-0.738
-0.298	-5.234	-0.739
-0.300	-5.243	-0.738
-0.307	-5.249	-0.736
-0.316	-5.249	-0.733
-0.323	-5.244	-0.731
-0.326	-5.236	-0.730
-0.327	-5.321	-0.756
-0.327	-5.314	-0.751
-0.328	-5.304	-0.751
-0.329	-5.297	-0.756
-0.331	-5.295	-0.765
-0.332	-5.298	-0.774
-0.332	-5.306	-0.779
-0.332	-5.315	-0.779
-0.330	-5.322	-0.773
-0.328	-5.324	-0.764
-0.431	-5.331	-0.738
-0.431	-5.323	-0.733
-0.432	-5.314	-0.733
-0.434	-5.307	-0.739
-0.435	-5.304	-0.747
-0.436	-5.308	-0.756
-0.437	-5.315	-0.761
-0.436	-5.325	-0.761
-0.434	-5.332	-0.755
-0.432	-5.334	-0.746
-0.375	-5.402	-0.873
-0.375	-5.395	-0.867
-0.377	-5.386	-0.867
-0.379	-5.379	-0.873
-0.380	-5.376	-0.881
-0.381	-5.379	-0.890
-0.380	-5.386	-0.896
-0.379	-5.395	-0.896
-0.377	-5.403	-0.890
-0.375	-5.405	-0.882
-0.443	-5.415	-0.864
-0.444	-5.408	-0.859
-0.446	-5.398	-0.859
-0.448	-5.391	-0.864
-0.449	-5.388	-0.873
-0.450	-5.391	-0.882
-0.449	-5.399	-0.887
-0.447	-5.408	-0.887
-0.445	-5.415	-0.882
-0.444	-5.418	-0.873
-0.415	-5.481	-1.002
-0.412	-5.477	-0.994
-0.414	-5.474	-0.985
-0.421	-5.473	-0.979
-0.430	-5.475	-0.978
-0.438	-5.477	-0.982
-0.442	-5.481	-0.990
-0.439	-5.484	-0.999
-0.432	-5.485	-1.005
-0.423	-5.484	-1.006
-0.419	-5.511	-0.986
-0.419	-5.507	-0.978
-0.419	-5.508	-0.969
-0.419	-5.515	-0.962
-0.419	-5.524	-0.961
-0.419	-5.532	-0.965
-0.419	-5.537	-0.973
[...]
         <CellData>
           <DataArray type="Float32" Name="aerenchymaFormation" NumberOfComponents="1" format="ascii">
 0.000e+00 0.000e+00 0.000e+00 0.000e+00 0.000e+00 0.000e+00 0.000e+00 0.000e+00 0.000e+00 2.083e-02 0.000e+00 0.000e+00 0.000e+00 0.000e+00 0.000e+00 0.000e+00 0.000e+00 0.000e+00 0.000e+00 0.000e+00 0.000e+00 0.000e+00 0.000e+00 0.000e+00 0.000e+00 0.000e+00 0.000e+00 0.000e+00 0.000e+00 0.000e+00 0.000e+00 2.083e-02 0.000e+00 0.000e+00 0.000e+00 0.000e+00 0.000e+00 0.000e+00 0.000e+00 0.000e+00 0.000e+00 0.000e+00 0.000e+00 0.000e+00 0.000e+00 0.000e+00 0.000e+00 0.000e+00 0.000e+00 0.000e+00 0.000e+00 0.000e+00 0.000e+00 2.083e-02 0.000e+00 0.000e+00 0.000e+00 0.000e+00 0.000e+00 0.000e+00 0.000e+00 0.000e+00 0.000e+00 0.000e+00 0.000e+00 0.000e+00 0.000e+00 0.000e+00 0.000e+00 0.000e+00 0.000e+00 0.000e+00 0.000e+00 0.000e+00 0.000e+00 2.083e-02 0.000e+00 0.000e+00 0.000e+00 0.000e+00 0.000e+00 0.000e+00 0.000e+00 0.000e+00 0.000e+00 0.000e+00 0.000e+00 0.000e+00 0.000e+00 0.000e+00 0.000e+00 0.000e+00 0.000e+00 0.000e+00 0.000e+00 0.000e+00 0.000e+00 0.000e+00 0.000e+00 0.000e+00 0.000e+00 0.000e+00 0.000e+00 0.000e+00 0.000e+00 0.000e+00 0.000e+00 0.000e+00 0.000e+00 0.000e+00 1.787e-02 0.000e+00 0.000e+00 0.000e+00 1.681e-02 0.000e+00 0.000e+00 0.000e+00 7.266e-03 0.000e+00 0.000e+00 6.205e-03 0.000e+00 0.000e+00 5.144e-03 0.000e+00 0.000e+00 4.084e-03 0.000e+00 0.000e+00 3.023e-03 0.000e+00 0.000e+00 1.962e-03 0.000e+00 0.000e+00 9.016e-04 0.000e+00 0.000e+00 0.000e+00 0.000e+00 0.000e+00 0.000e+00 0.000e+00 0.000e+00 0.000e+00 0.000e+00 0.000e+00 1.575e-02 0.000e+00 0.000e+00 0.000e+00 0.000e+00 0.000e+00 0.000e+00 0.000e+00 0.000e+00 0.000e+00 0.000e+00 0.000e+00 0.000e+00 0.000e+00 0.000e+00 0.000e+00 0.000e+00 0.000e+00 0.000e+00 0.000e+00 0.000e+00 0.000e+00 0.000e+00 0.000e+00 0.000e+00 0.000e+00 0.000e+00 0.000e+00 0.000e+00 0.000e+00 0.000e+00 0.000e+00 1.469e-02 0.000e+00 0.000e+00 0.000e+00 0.000e+00 0.000e+00 0.000e+00 0.000e+00 0.000e+00 0.000e+00 0.000e+00 0.000e+00 0.000e+00 0.000e+00 0.000e+00 0.000e+00 0.000e+00 0.000e+00 0.000e+00 0.000e+00 0.000e+00 0.000e+00 0.000e+00 0.000e+00 0.000e+00 1.363e-02 0.000e+00 0.000e+00 0.000e+00 0.000e+00 0.000e+00 0.000e+00 0.000e+00 0.000e+00 0.000e+00 0.000e+00 0.000e+00 0.000e+00 0.000e+00 0.000e+00 0.000e+00 0.000e+00 0.000e+00 0.000e+00 0.000e+00 0.000e+00 0.000e+00 0.000e+00 0.000e+00 1.257e-02 0.000e+00 0.000e+00 0.000e+00 0.000e+00 0.000e+00 0.000e+00 0.000e+00 0.000e+00 0.000e+00 0.000e+00 0.000e+00 0.000e+00 0.000e+00 0.000e+00 0.000e+00 0.000e+00 0.000e+00 0.000e+00 1.151e-02 0.000e+00 0.000e+00 0.000e+00 0.000e+00 0.000e+00 0.000e+00 0.000e+00 0.000e+00 0.000e+00 0.000e+00 0.000e+00 0.000e+00 0.000e+00 0.000e+00 1.045e-02 0.000e+00 0.000e+00 0.000e+00 0.000e+00 0.000e+00 0.000e+00 0.000e+00 0.000e+00 0.000e+00 0.000e+00 0.000e+00 0.000e+00 9.387e-03 0.000e+00 0.000e+00 0.000e+00 0.000e+00 0.000e+00 0.000e+00 0.000e+00 0.000e+00 0.000e+00 0.000e+00 8.326e-03 0.000e+00 0.000e+00 0.000e+00 0.000e+00 0.000e+00 0.000e+00 0.000e+00 0.000e+00 0.000e+00 8.000e-02 7.700e-02 7.400e-02 7.100e-02 6.800e-02 6.500e-02 6.100e-02 5.800e-02 5.500e-02 5.100e-02 4.500e-02 3.750e-02 2.750e-02 2.000e-02 1.250e-02 5.000e-03 0.000e+00 0.000e+00 0.000e+00 0.000e+00 0.000e+00 0.000e+00 0.000e+00 0.000e+00 0.000e+00 0.000e+00
           </DataArray>
           <DataArray type="Float32" Name="combinedRootClassID" NumberOfComponents="1" format="ascii">
 -1.300e+01 -1.300e+01 -1.300e+01 -1.300e+01 -1.300e+01 -1.300e+01 -1.300e+01 -1.300e+01 -1.300e+01 -5.000e+00 -5.000e+00 -5.000e+00 -5.000e+00 -5.000e+00 -5.000e+00 -5.000e+00 -5.000e+00 -5.000e+00 -5.000e+00 -5.000e+00 -5.000e+00 -5.000e+00 -1.300e+01 -1.300e+01 -1.300e+01 -1.300e+01 -1.300e+01 -1.300e+01 -1.300e+01 -1.300e+01 -1.300e+01 -5.000e+00 -5.000e+00 -5.000e+00 -5.000e+00 -5.000e+00 -5.000e+00 -5.000e+00 -5.000e+00 -5.000e+00 -5.000e+00 -5.000e+00 -5.000e+00 -5.000e+00 -1.300e+01 -1.300e+01 -1.300e+01 -1.300e+01 -1.300e+01 -1.300e+01 -1.300e+01 -1.300e+01 -1.300e+01 -5.000e+00 -5.000e+00 -5.000e+00 -5.000e+00 -5.000e+00 -5.000e+00 -5.000e+00 -5.000e+00 -5.000e+00 -5.000e+00 -5.000e+00 -5.000e+00 -5.000e+00 -1.300e+01 -1.300e+01 -1.300e+01 -1.300e+01 -1.300e+01 -1.300e+01 -1.300e+01 -1.300e+01 -1.300e+01 -5.000e+00 -5.000e+00 -5.000e+00 -5.000e+00 -5.000e+00 -5.000e+00 -5.000e+00 -5.000e+00 -5.000e+00 -5.000e+00 -5.000e+00 -5.000e+00 -5.000e+00 -1.100e+01 -1.100e+01 -1.100e+01 -1.100e+01 -1.100e+01 -1.100e+01 -1.100e+01 -1.100e+01 -1.100e+01 -1.100e+01 -1.100e+01 -1.100e+01 -2.000e+00 -2.000e+00 -2.000e+00 -2.000e+00 -2.000e+00 -2.000e+00 -2.000e+00 -2.000e+00 -2.000e+00 -2.000e+00 -7.000e+00 -7.000e+00 -7.000e+00 -7.000e+00 -7.000e+00 -7.000e+00 -7.000e+00 -7.000e+00 -7.000e+00 -7.000e+00 -7.000e+00 -7.000e+00 -7.000e+00 -7.000e+00 -7.000e+00 -7.000e+00 -7.000e+00 -7.000e+00 -7.000e+00 -7.000e+00 -7.000e+00 -7.000e+00 -7.000e+00 -7.000e+00 -7.000e+00 -7.000e+00 -7.000e+00 -7.000e+00 -7.000e+00 -7.000e+00 -7.000e+00 -7.000e+00 -7.000e+00 -7.000e+00 -7.000e+00 -7.000e+00 -7.000e+00 -7.000e+00 -7.000e+00 -7.000e+00 -7.000e+00 -7.000e+00 -7.000e+00 -7.000e+00 -7.000e+00 -7.000e+00 -7.000e+00 -7.000e+00 -7.000e+00 -7.000e+00 -7.000e+00 -7.000e+00 -7.000e+00 -7.000e+00 -7.000e+00 -7.000e+00 -7.000e+00 -7.000e+00 -7.000e+00 -7.000e+00 -7.000e+00 -7.000e+00 -7.000e+00 -7.000e+00 -7.000e+00 -7.000e+00 -7.000e+00 -7.000e+00 -7.000e+00 -7.000e+00 -7.000e+00 -7.000e+00 -7.000e+00 -7.000e+00 -7.000e+00 -7.000e+00 -7.000e+00 -7.000e+00 -7.000e+00 -7.000e+00 -7.000e+00 -7.000e+00 -7.000e+00 -7.000e+00 -7.000e+00 -7.000e+00 -7.000e+00 -7.000e+00 -7.000e+00 -7.000e+00 -7.000e+00 -7.000e+00 -7.000e+00 -7.000e+00 -7.000e+00 -7.000e+00 -7.000e+00 -7.000e+00 -7.000e+00 -7.000e+00 -7.000e+00 -7.000e+00 -7.000e+00 -7.000e+00 -7.000e+00 -7.000e+00 -7.000e+00 -7.000e+00 -7.000e+00 -7.000e+00 -7.000e+00 -7.000e+00 -7.000e+00 -7.000e+00 -7.000e+00 -7.000e+00 -7.000e+00 -7.000e+00 -7.000e+00 -7.000e+00 -7.000e+00 -7.000e+00 -7.000e+00 -7.000e+00 -7.000e+00 -7.000e+00 -7.000e+00 -7.000e+00 -7.000e+00 -7.000e+00 -7.000e+00 -7.000e+00 -7.000e+00 -7.000e+00 -7.000e+00 -7.000e+00 -7.000e+00 -7.000e+00 -7.000e+00 -7.000e+00 -7.000e+00 -7.000e+00 -7.000e+00 -7.000e+00 -7.000e+00 -7.000e+00 -7.000e+00 -7.000e+00 -7.000e+00 -7.000e+00 -7.000e+00 -7.000e+00 -7.000e+00 -7.000e+00 -7.000e+00 -7.000e+00 -7.000e+00 -7.000e+00 -7.000e+00 -7.000e+00 -7.000e+00 -7.000e+00 -7.000e+00 -7.000e+00 -7.000e+00 -7.000e+00 -7.000e+00 -7.000e+00 -7.000e+00 -7.000e+00 -7.000e+00 -7.000e+00 -7.000e+00 -7.000e+00 -7.000e+00 -7.000e+00 -7.000e+00 -7.000e+00 -7.000e+00 -7.000e+00 -9.000e+00 -9.000e+00 -9.000e+00 -9.000e+00 -9.000e+00 -9.000e+00 -9.000e+00 -4.000e+00 -4.000e+00 -4.000e+00 -4.000e+00 -4.000e+00 -4.000e+00 -4.000e+00 -4.000e+00 -4.000e+00 -4.000e+00 -4.000e+00 -4.000e+00 -4.000e+00 -4.000e+00 -4.000e+00 -4.000e+00 -4.000e+00 -4.000e+00 -4.000e+00 -4.000e+00 -4.000e+00 -4.000e+00 -4.000e+00 -4.000e+00 -4.000e+00 -4.000e+00
           </DataArray>
           <DataArray type="Float32" Name="nitrate/Cmin" NumberOfComponents="1" format="ascii">
 1.000e-03 1.000e-03 1.000e-03 1.000e-03 1.000e-03 1.000e-03 1.000e-03 1.000e-03 1.000e-03 1.000e-03 1.000e-03 1.000e-03 1.000e-03 1.000e-03 1.000e-03 1.000e-03 1.000e-03 1.000e-03 1.000e-03 1.000e-03 1.000e-03 1.000e-03 1.000e-03 1.000e-03 1.000e-03 1.000e-03 1.000e-03 1.000e-03 1.000e-03 1.000e-03 1.000e-03 1.000e-03 1.000e-03 1.000e-03 1.000e-03 1.000e-03 1.000e-03 1.000e-03 1.000e-03 1.000e-03 1.000e-03 1.000e-03 1.000e-03 1.000e-03 1.000e-03 1.000e-03 1.000e-03 1.000e-03 1.000e-03 1.000e-03 1.000e-03 1.000e-03 1.000e-03 1.000e-03 1.000e-03 1.000e-03 1.000e-03 1.000e-03 1.000e-03 1.000e-03 1.000e-03 1.000e-03 1.000e-03 1.000e-03 1.000e-03 1.000e-03 1.000e-03 1.000e-03 1.000e-03 1.000e-03 1.000e-03 1.000e-03 1.000e-03 1.000e-03 1.000e-03 1.000e-03 1.000e-03 1.000e-03 1.000e-03 1.000e-03 1.000e-03 1.000e-03 1.000e-03 1.000e-03 1.000e-03 1.000e-03 1.000e-03 1.000e-03 1.000e-03 1.000e-03 1.000e-03 1.000e-03 1.000e-03 1.000e-03 1.000e-03 1.000e-03 1.000e-03 1.000e-03 1.000e-03 1.000e-03 1.000e-03 1.000e-03 1.000e-03 1.000e-03 1.000e-03 1.000e-03 1.000e-03 1.000e-03 1.000e-03 1.000e-03 1.000e-03 1.000e-03 1.000e-03 1.000e-03 1.000e-03 1.000e-03 1.000e-03 1.000e-03 1.000e-03 1.000e-03 1.000e-03 1.000e-03 1.000e-03 1.000e-03 1.000e-03 1.000e-03 1.000e-03 1.000e-03 1.000e-03 1.000e-03 1.000e-03 1.000e-03 1.000e-03 1.000e-03 1.000e-03 1.000e-03 1.000e-03 1.000e-03 1.000e-03 1.000e-03 1.000e-03 1.000e-03 1.000e-03 1.000e-03 1.000e-03 1.000e-03 1.000e-03 1.000e-03 1.000e-03 1.000e-03 1.000e-03 1.000e-03 1.000e-03 1.000e-03 1.000e-03 1.000e-03 1.000e-03 1.000e-03 1.000e-03 1.000e-03 1.000e-03 1.000e-03 1.000e-03 1.000e-03 1.000e-03 1.000e-03 1.000e-03 1.000e-03 1.000e-03 1.000e-03 1.000e-03 1.000e-03 1.000e-03 1.000e-03 1.000e-03 1.000e-03 1.000e-03 1.000e-03 1.000e-03 1.000e-03 1.000e-03 1.000e-03 1.000e-03 1.000e-03 1.000e-03 1.000e-03 1.000e-03 1.000e-03 1.000e-03 1.000e-03 1.000e-03 1.000e-03 1.000e-03 1.000e-03 1.000e-03 1.000e-03 1.000e-03 1.000e-03 1.000e-03 1.000e-03 1.000e-03 1.000e-03 1.000e-03 1.000e-03 1.000e-03 1.000e-03 1.000e-03 1.000e-03 1.000e-03 1.000e-03 1.000e-03 1.000e-03 1.000e-03 1.000e-03 1.000e-03 1.000e-03 1.000e-03 1.000e-03 1.000e-03 1.000e-03 1.000e-03 1.000e-03 1.000e-03 1.000e-03 1.000e-03 1.000e-03 1.000e-03 1.000e-03 1.000e-03 1.000e-03 1.000e-03 1.000e-03 1.000e-03 1.000e-03 1.000e-03 1.000e-03 1.000e-03 1.000e-03 1.000e-03 1.000e-03 1.000e-03 1.000e-03 1.000e-03 1.000e-03 1.000e-03 1.000e-03 1.000e-03 1.000e-03 1.000e-03 1.000e-03 1.000e-03 1.000e-03 1.000e-03 1.000e-03 1.000e-03 1.000e-03 1.000e-03 1.000e-03 1.000e-03 1.000e-03 1.000e-03 1.000e-03 1.000e-03 1.000e-03 1.000e-03 1.000e-03 1.000e-03 1.000e-03 1.000e-03 1.000e-03 1.000e-03 1.000e-03 1.000e-03 1.000e-03 1.000e-03 1.000e-03 1.000e-03 1.000e-03 1.000e-03 1.000e-03 1.000e-03 1.000e-03 1.000e-03 1.000e-03 1.000e-03 1.000e-03 1.000e-03 1.000e-03 1.000e-03 1.000e-03 1.000e-03 1.000e-03 1.000e-03 1.000e-03 1.000e-03 1.000e-03 1.000e-03 1.000e-03 1.000e-03 1.000e-03 1.000e-03 1.000e-03 1.000e-03 1.000e-03 1.000e-03 1.000e-03 1.000e-03 1.000e-03 1.000e-03 1.000e-03 1.000e-03 1.000e-03 1.000e-03 1.000e-03 1.000e-03 1.000e-03 1.000e-03 1.000e-03 1.000e-03 1.000e-03 1.000e-03 1.000e-03 1.000e-03
           </DataArray>
           <DataArray type="Float32" Name="nitrate/Imax" NumberOfComponents="1" format="ascii">
 1.900e+00 1.900e+00 1.900e+00 1.900e+00 1.900e+00 1.900e+00 1.900e+00 1.900e+00 1.900e+00 1.900e+00 1.900e+00 1.900e+00 1.900e+00 1.900e+00 1.900e+00 1.900e+00 1.900e+00 1.900e+00 1.900e+00 1.900e+00 1.900e+00 1.900e+00 1.900e+00 1.900e+00 1.900e+00 1.900e+00 1.900e+00 1.900e+00 1.900e+00 1.900e+00 1.900e+00 1.900e+00 1.900e+00 1.900e+00 1.900e+00 1.900e+00 1.900e+00 1.900e+00 1.900e+00 1.900e+00 1.900e+00 1.900e+00 1.900e+00 1.900e+00 1.900e+00 1.900e+00 1.900e+00 1.900e+00 1.900e+00 1.900e+00 1.900e+00 1.900e+00 1.900e+00 1.900e+00 1.900e+00 1.900e+00 1.900e+00 1.900e+00 1.900e+00 1.900e+00 1.900e+00 1.900e+00 1.900e+00 1.900e+00 1.900e+00 1.900e+00 1.900e+00 1.900e+00 1.900e+00 1.900e+00 1.900e+00 1.900e+00 1.900e+00 1.900e+00 1.900e+00 1.900e+00 1.900e+00 1.900e+00 1.900e+00 1.900e+00 1.900e+00 1.900e+00 1.900e+00 1.900e+00 1.900e+00 1.900e+00 1.900e+00 1.900e+00 1.900e+00 1.900e+00 1.900e+00 1.900e+00 1.900e+00 1.900e+00 1.900e+00 1.900e+00 1.900e+00 1.900e+00 1.900e+00 1.900e+00 1.900e+00 1.900e+00 1.900e+00 1.900e+00 1.900e+00 1.900e+00 1.900e+00 1.900e+00 1.900e+00 1.900e+00 1.900e+00 1.900e+00 1.900e+00 1.900e+00 1.900e+00 1.900e+00 1.900e+00 1.900e+00 1.900e+00 1.900e+00 1.900e+00 1.900e+00 1.900e+00 1.900e+00 1.900e+00 1.900e+00 1.900e+00 1.900e+00 1.900e+00 1.900e+00 1.900e+00 1.900e+00 1.900e+00 1.900e+00 1.900e+00 1.900e+00 1.900e+00 1.900e+00 1.900e+00 1.900e+00 1.900e+00 1.900e+00 1.900e+00 1.900e+00 1.900e+00 1.900e+00 1.900e+00 1.900e+00 1.900e+00 1.900e+00 1.900e+00 1.900e+00 1.900e+00 1.900e+00 1.900e+00 1.900e+00 1.900e+00 1.900e+00 1.900e+00 1.900e+00 1.900e+00 1.900e+00 1.900e+00 1.900e+00 1.900e+00 1.900e+00 1.900e+00 1.900e+00 1.900e+00 1.900e+00 1.900e+00 1.900e+00 1.900e+00 1.900e+00 1.900e+00 1.900e+00 1.900e+00 1.900e+00 1.900e+00 1.900e+00 1.900e+00 1.900e+00 1.900e+00 1.900e+00 1.900e+00 1.900e+00 1.900e+00 1.900e+00 1.900e+00 1.900e+00 1.900e+00 1.900e+00 1.900e+00 1.900e+00 1.900e+00 1.900e+00 1.900e+00 1.900e+00 1.900e+00 1.900e+00 1.900e+00 1.900e+00 1.900e+00 1.900e+00 1.900e+00 1.900e+00 1.900e+00 1.900e+00 1.900e+00 1.900e+00 1.900e+00 1.900e+00 1.900e+00 1.900e+00 1.900e+00 1.900e+00 1.900e+00 1.900e+00 1.900e+00 1.900e+00 1.900e+00 1.900e+00 1.900e+00 1.900e+00 1.900e+00 1.900e+00 1.900e+00 1.900e+00 1.900e+00 1.900e+00 1.900e+00 1.900e+00 1.900e+00 1.900e+00 1.900e+00 1.900e+00 1.900e+00 1.900e+00 1.900e+00 1.900e+00 1.900e+00 1.900e+00 1.900e+00 1.900e+00 1.900e+00 1.900e+00 1.900e+00 1.900e+00 1.900e+00 1.900e+00 1.900e+00 1.900e+00 1.900e+00 1.900e+00 1.900e+00 1.900e+00 1.900e+00 1.900e+00 1.900e+00 1.900e+00 1.900e+00 1.900e+00 1.900e+00 1.900e+00 1.900e+00 1.900e+00 1.900e+00 1.900e+00 1.900e+00 1.900e+00 1.900e+00 1.900e+00 1.900e+00 1.900e+00 1.900e+00 1.900e+00 1.900e+00 1.900e+00 1.900e+00 1.900e+00 1.900e+00 1.900e+00 1.900e+00 1.900e+00 1.900e+00 1.900e+00 1.900e+00 1.900e+00 1.900e+00 1.900e+00 1.900e+00 1.900e+00 1.900e+00 1.900e+00 1.900e+00 1.900e+00 1.900e+00 1.900e+00 1.900e+00 1.900e+00 1.900e+00 1.900e+00 1.900e+00 1.900e+00 1.900e+00 1.900e+00 1.900e+00 1.900e+00 1.900e+00 1.900e+00 1.900e+00 1.900e+00 1.900e+00 1.900e+00 1.900e+00 1.900e+00 1.900e+00 1.900e+00 1.900e+00 1.900e+00 1.900e+00 1.900e+00 1.900e+00
           </DataArray>
           <DataArray type="Float32" Name="nitrate/Km" NumberOfComponents="1" format="ascii">
 1.610e-02 1.610e-02 1.610e-02 1.610e-02 1.610e-02 1.610e-02 1.610e-02 1.610e-02 1.610e-02 1.610e-02 1.610e-02 1.610e-02 1.610e-02 1.610e-02 1.610e-02 1.610e-02 1.610e-02 1.610e-02 1.610e-02 1.610e-02 1.610e-02 1.610e-02 1.610e-02 1.610e-02 1.610e-02 1.610e-02 1.610e-02 1.610e-02 1.610e-02 1.610e-02 1.610e-02 1.610e-02 1.610e-02 1.610e-02 1.610e-02 1.610e-02 1.610e-02 1.610e-02 1.610e-02 1.610e-02 1.610e-02 1.610e-02 1.610e-02 1.610e-02 1.610e-02 1.610e-02 1.610e-02 1.610e-02 1.610e-02 1.610e-02 1.610e-02 1.610e-02 1.610e-02 1.610e-02 1.610e-02 1.610e-02 1.610e-02 1.610e-02 1.610e-02 1.610e-02 1.610e-02 1.610e-02 1.610e-02 1.610e-02 1.610e-02 1.610e-02 1.610e-02 1.610e-02 1.610e-02 1.610e-02 1.610e-02 1.610e-02 1.610e-02 1.610e-02 1.610e-02 1.610e-02 1.610e-02 1.610e-02 1.610e-02 1.610e-02 1.610e-02 1.610e-02 1.610e-02 1.610e-02 1.610e-02 1.610e-02 1.610e-02 1.610e-02 1.610e-02 1.610e-02 1.610e-02 1.610e-02 1.610e-02 1.610e-02 1.610e-02 1.610e-02 1.610e-02 1.610e-02 1.610e-02 1.610e-02 1.610e-02 1.610e-02 1.610e-02 1.610e-02 1.610e-02 1.610e-02 1.610e-02 1.610e-02 1.610e-02 1.610e-02 1.610e-02 1.610e-02 1.610e-02 1.610e-02 1.610e-02 1.610e-02 1.610e-02 1.610e-02 1.610e-02 1.610e-02 1.610e-02 1.610e-02 1.610e-02 1.610e-02 1.610e-02 1.610e-02 1.610e-02 1.610e-02 1.610e-02 1.610e-02 1.610e-02 1.610e-02 1.610e-02 1.610e-02 1.610e-02 1.610e-02 1.610e-02 1.610e-02 1.610e-02 1.610e-02 1.610e-02 1.610e-02 1.610e-02 1.610e-02 1.610e-02 1.610e-02 1.610e-02 1.610e-02 1.610e-02 1.610e-02 1.610e-02 1.610e-02 1.610e-02 1.610e-02 1.610e-02 1.610e-02 1.610e-02 1.610e-02 1.610e-02 1.610e-02 1.610e-02 1.610e-02 1.610e-02 1.610e-02 1.610e-02 1.610e-02 1.610e-02 1.610e-02 1.610e-02 1.610e-02 1.610e-02 1.610e-02 1.610e-02 1.610e-02 1.610e-02 1.610e-02 1.610e-02 1.610e-02 1.610e-02 1.610e-02 1.610e-02 1.610e-02 1.610e-02 1.610e-02 1.610e-02 1.610e-02 1.610e-02 1.610e-02 1.610e-02 1.610e-02 1.610e-02 1.610e-02 1.610e-02 1.610e-02 1.610e-02 1.610e-02 1.610e-02 1.610e-02 1.610e-02 1.610e-02 1.610e-02 1.610e-02 1.610e-02 1.610e-02 1.610e-02 1.610e-02 1.610e-02 1.610e-02 1.610e-02 1.610e-02 1.610e-02 1.610e-02 1.610e-02 1.610e-02 1.610e-02 1.610e-02 1.610e-02 1.610e-02 1.610e-02 1.610e-02 1.610e-02 1.610e-02 1.610e-02 1.610e-02 1.610e-02 1.610e-02 1.610e-02 1.610e-02 1.610e-02 1.610e-02 1.610e-02 1.610e-02 1.610e-02 1.610e-02 1.610e-02 1.610e-02 1.610e-02 1.610e-02 1.610e-02 1.610e-02 1.610e-02 1.610e-02 1.610e-02 1.610e-02 1.610e-02 1.610e-02 1.610e-02 1.610e-02 1.610e-02 1.610e-02 1.610e-02 1.610e-02 1.610e-02 1.610e-02 1.610e-02 1.610e-02 1.610e-02 1.610e-02 1.610e-02 1.610e-02 1.610e-02 1.610e-02 1.610e-02 1.610e-02 1.610e-02 1.610e-02 1.610e-02 1.610e-02 1.610e-02 1.610e-02 1.610e-02 1.610e-02 1.610e-02 1.610e-02 1.610e-02 1.610e-02 1.610e-02 1.610e-02 1.610e-02 1.610e-02 1.610e-02 1.610e-02 1.610e-02 1.610e-02 1.610e-02 1.610e-02 1.610e-02 1.610e-02 1.610e-02 1.610e-02 1.610e-02 1.610e-02 1.610e-02 1.610e-02 1.610e-02 1.610e-02 1.610e-02 1.610e-02 1.610e-02 1.610e-02 1.610e-02 1.610e-02 1.610e-02 1.610e-02 1.610e-02 1.610e-02 1.610e-02 1.610e-02 1.610e-02 1.610e-02 1.610e-02 1.610e-02 1.610e-02 1.610e-02 1.610e-02 1.610e-02 1.610e-02 1.610e-02 1.610e-02 1.610e-02 1.610e-02 1.610e-02 1.610e-02
           </DataArray>
           <DataArray type="Float32" Name="nitrate/minimalNutrientConcentration" NumberOfComponents="1" format="ascii">