<?xml version="1.0"?>
<VTKFile type="UnstructuredGrid" version="0.1" byte_order="LittleEndian">
   <UnstructuredGrid>
      <Piece NumberOfPoints="4710" NumberOfCells="333">
         <Points>
            <DataArray type="Float32" Name="Position" NumberOfComponents="3" format="ascii">
-0.124	-5.036	0.097
-0.125	-5.027	0.096
-0.123	-5.020	0.090
-0.118	-5.017	0.083
-0.113	-5.020	0.076
-0.108	-5.028	0.073
-0.107	-5.037	0.074
-0.109	-5.044	0.080
-0.114	-5.046	0.087
-0.120	-5.043	0.094
-0.314	-5.084	-0.043
-0.315	-5.075	-0.045
-0.313	-5.068	-0.050
-0.308	-5.066	-0.058
-0.302	-5.069	-0.064
-0.298	-5.076	-0.068
-0.297	-5.085	-0.066
-0.299	-5.092	-0.061
-0.304	-5.095	-0.053
-0.309	-5.092	-0.047
-0.242	-5.090	0.171
-0.239	-5.081	0.168
-0.233	-5.077	0.162
-0.226	-5.078	0.156
-0.221	-5.084	0.152
-0.219	-5.093	0.151
-0.222	-5.102	0.154
-0.227	-5.106	0.160
-0.235	-5.105	0.166
-0.240	-5.099	0.170
-0.373	-5.106	0.019
-0.365	-5.106	0.024
-0.356	-5.106	0.022
-0.349	-5.106	0.016
-0.348	-5.106	0.006
-0.352	-5.106	-0.002
-0.360	-5.106	-0.006
-0.370	-5.106	-0.005
-0.376	-5.106	0.002
-0.378	-5.106	0.011
-0.330	-5.158	0.226
-0.325	-5.157	0.233
-0.326	-5.158	0.243
-0.332	-5.159	0.250
-0.340	-5.162	0.252
-0.349	-5.164	0.249
-0.354	-5.165	0.241
-0.353	-5.164	0.232
-0.347	-5.163	0.225
-0.339	-5.160	0.222
-0.296	-5.297	0.222
-0.291	-5.296	0.230
-0.292	-5.296	0.239
-0.298	-5.298	0.246
-0.306	-5.300	0.249
-0.315	-5.302	0.245
-0.320	-5.303	0.238
-0.319	-5.303	0.228
-0.314	-5.301	0.221
-0.305	-5.299	0.219
-0.436	-5.241	0.309
-0.433	-5.232	0.310
-0.436	-5.223	0.311
-0.443	-5.218	0.314
-0.452	-5.219	0.315
-0.459	-5.224	0.316
-0.462	-5.233	0.316
-0.459	-5.242	0.314
-0.452	-5.247	0.312
-0.443	-5.247	0.310
-0.408	-5.257	0.435
-0.405	-5.248	0.436
-0.408	-5.240	0.438
-0.415	-5.235	0.440
-0.424	-5.235	0.442
-0.432	-5.241	0.443
-0.434	-5.249	0.442
-0.432	-5.258	0.440
-0.424	-5.263	0.438
-0.415	-5.263	0.436
-0.542	-5.307	0.377
-0.536	-5.307	0.384
-0.536	-5.309	0.393
-0.541	-5.311	0.401
-0.549	-5.314	0.404
-0.558	-5.315	0.401
-0.564	-5.315	0.394
-0.564	-5.314	0.384
-0.559	-5.311	0.377
-0.551	-5.309	0.374
-0.518	-5.413	0.358
-0.512	-5.413	0.365
-0.512	-5.415	0.374
-0.517	-5.417	0.382
-0.525	-5.419	0.385
-0.534	-5.421	0.382
-0.540	-5.421	0.375
-0.540	-5.419	0.365
-0.535	-5.417	0.358
-0.527	-5.414	0.355
-0.642	-5.411	0.468
-0.638	-5.404	0.472
-0.639	-5.395	0.473
-0.642	-5.387	0.469
-0.648	-5.384	0.462
-0.653	-5.387	0.455
-0.656	-5.394	0.450
-0.656	-5.403	0.450
-0.652	-5.411	0.454
-0.647	-5.414	0.461
-0.712	-5.416	0.523
-0.708	-5.409	0.528
-0.709	-5.400	0.528
-0.712	-5.392	0.524
-0.718	-5.389	0.517
-0.723	-5.392	0.510
-0.726	-5.399	0.506
-0.726	-5.409	0.505
-0.722	-5.416	0.509
-0.717	-5.419	0.516
-0.755	-5.493	0.539
-0.754	-5.484	0.537
-0.750	-5.478	0.531
-0.743	-5.478	0.524
-0.738	-5.482	0.519
-0.735	-5.491	0.517
-0.735	-5.500	0.519
-0.740	-5.506	0.524
-0.746	-5.506	0.531
-0.752	-5.502	0.537
-0.810	-5.501	0.488
-0.809	-5.492	0.486
-0.805	-5.486	0.480
-0.798	-5.485	0.474
-0.793	-5.490	0.468
-0.790	-5.499	0.466
-0.791	-5.508	0.468
-0.795	-5.514	0.474
-0.801	-5.514	0.481
-0.807	-5.509	0.486
-0.854	-5.582	0.598
-0.850	-5.575	0.595
-0.843	-5.572	0.590
-0.835	-5.575	0.585
-0.831	-5.582	0.583
-0.830	-5.592	0.583
-0.834	-5.599	0.587
-0.842	-5.602	0.592
-0.849	-5.599	0.597
-0.854	-5.591	0.599
-0.860	-5.579	0.553
-0.860	-5.575	0.562
-0.860	-5.577	0.571
-0.860	-5.583	0.577
-0.860	-5.592	0.579
-0.860	-5.601	0.575
-0.860	-5.605	0.566
-0.860	-5.603	0.557
-0.860	-5.597	0.551
-0.860	-5.588	0.549
-0.933	-5.679	0.638
-0.927	-5.678	0.645
-0.926	-5.680	0.654
-0.930	-5.683	0.662
-0.938	-5.687	0.665
-0.946	-5.690	0.663
-0.952	-5.690	0.656
-0.953	-5.688	0.647
-0.949	-5.685	0.639
-0.941	-5.681	0.636
-0.924	-5.701	0.633
-0.918	-5.701	0.640
-0.917	-5.703	0.649
-0.921	-5.706	0.656
-0.929	-5.710	0.660
-0.938	-5.713	0.657
-0.944	-5.713	0.650
-0.945	-5.711	0.641
-0.941	-5.708	0.634
-0.933	-5.704	0.630
0.020	-5.017	0.006
0.023	-5.003	0.022
0.017	-4.984	0.029
0.004	-4.967	0.025
-0.010	-4.960	0.012
-0.021	-4.963	-0.006
-0.023	-4.977	-0.022
-0.017	-4.996	-0.029
-0.005	-5.013	-0.025
0.010	-5.021	-0.011
-0.559	-5.362	0.416
-0.557	-5.350	0.433
-0.564	-5.333	0.442
-0.578	-5.317	0.440
-0.593	-5.309	0.428
-0.603	-5.312	0.410
-0.605	-5.324	0.393
-0.598	-5.341	0.383
-0.584	-5.357	0.385
-0.569	-5.365	0.398
-1.118	-5.938	0.769
-1.117	-5.929	0.788
-1.126	-5.914	0.800
-1.141	-5.900	0.802
-1.157	-5.892	0.791
-1.168	-5.892	0.773
-1.169	-5.901	0.754
-1.160	-5.916	0.742
-1.145	-5.930	0.741
-1.129	-5.938	0.751
-1.513	-6.443	1.000
-1.512	-6.436	1.020
-1.521	-6.425	1.035
-1.538	-6.412	1.039
-1.555	-6.404	1.030
-1.567	-6.402	1.013
-1.568	-6.409	0.993
-1.559	-6.421	0.978
-1.542	-6.433	0.974
-1.525	-6.442	0.983
-1.901	-7.114	1.193
-1.898	-7.109	1.213
-1.907	-7.100	1.230
-1.924	-7.090	1.237
-1.943	-7.082	1.231
-1.956	-7.080	1.215
-1.958	-7.085	1.194
-1.949	-7.094	1.178
-1.932	-7.104	1.171
-1.914	-7.112	1.177
-2.128	-7.646	1.336
-2.123	-7.643	1.357
-2.131	-7.635	1.375
-2.149	-7.627	1.383
-2.168	-7.621	1.380
-2.183	-7.619	1.365
-2.187	-7.623	1.345
-2.179	-7.630	1.327
-2.162	-7.639	1.318
-2.142	-7.645	1.322
-2.310	-8.254	1.472
-2.305	-8.251	1.493
-2.312	-8.245	1.512
-2.329	-8.239	1.522
-2.349	-8.234	1.520
-2.365	-8.233	1.507
-2.371	-8.236	1.487
-2.363	-8.241	1.468
-2.347	-8.247	1.457
-2.326	-8.252	1.459
-2.451	-8.932	1.583
-2.445	-8.930	1.603
-2.451	-8.926	1.622
-2.468	-8.921	1.634
-2.488	-8.917	1.634
-2.505	-8.916	1.621
-2.511	-8.918	1.601
-2.505	-8.922	1.581
-2.488	-8.927	1.570
-2.468	-8.931	1.570
-2.571	-9.670	1.687
-2.564	-9.669	1.707
-2.570	-9.665	1.727
-2.587	-9.661	1.739
-2.607	-9.658	1.739
-2.625	-9.657	1.727
-2.632	-9.659	1.707
-2.626	-9.662	1.688
-2.609	-9.667	1.675
-2.589	-9.669	1.675
-2.666	-10.452	1.789
-2.659	-10.452	1.809
-2.664	-10.449	1.829
-2.681	-10.445	1.842
-2.701	-10.443	1.842
-2.719	-10.441	1.831
-2.726	-10.442	1.811
-2.721	-10.445	1.791
-2.704	-10.449	1.778
-2.684	-10.451	1.777
-2.779	-11.242	1.839
-2.772	-11.242	1.858
-2.778	-11.240	1.878
-2.794	-11.237	1.891
-2.815	-11.234	1.892
-2.832	-11.232	1.881
-2.839	-11.232	1.861
-2.834	-11.234	1.841
-2.818	-11.238	1.828
-2.797	-11.241	1.827
-2.895	-12.032	1.899
-2.888	-12.032	1.918
-2.894	-12.029	1.939
-2.910	-12.026	1.951
-2.931	-12.022	1.952
-2.948	-12.021	1.940
-2.955	-12.021	1.920
-2.950	-12.024	1.900
-2.934	-12.027	1.887
-2.913	-12.030	1.887
-3.021	-12.819	1.969
-3.014	-12.819	1.988
-3.020	-12.816	2.008
-3.036	-12.812	2.021
-3.057	-12.809	2.021
-3.074	-12.807	2.009
-3.081	-12.808	1.989
-3.075	-12.811	1.969
-3.059	-12.814	1.957
-3.038	-12.818	1.957
-3.086	-13.212	2.006
-3.079	-13.212	2.026
-3.085	-13.209	2.046
-3.101	-13.205	2.059
-3.122	-13.201	2.059
-3.139	-13.200	2.047
-3.146	-13.200	2.027
-3.140	-13.203	2.007
-3.124	-13.207	1.995
-3.103	-13.211	1.994
0.104	-5.034	0.114
0.108	-5.026	0.118
0.108	-5.017	0.118
0.104	-5.009	0.115
0.097	-5.007	0.110
0.090	-5.009	0.104
0.086	-5.017	0.101
0.086	-5.026	0.100
0.090	-5.034	0.103
0.097	-5.036	0.109
-0.052	-5.044	0.316
-0.048	-5.037	0.319
-0.048	-5.028	0.320
-0.052	-5.020	0.317
-0.059	-5.017	0.311
-0.066	-5.020	0.306
-0.070	-5.027	0.302
-0.070	-5.037	0.302
-0.066	-5.044	0.305
-0.059	-5.047	0.310
0.200	-5.089	0.216
0.204	-5.081	0.219
0.204	-5.072	0.219
0.200	-5.065	0.216
0.193	-5.062	0.211
0.186	-5.065	0.205
0.181	-5.072	0.202
0.181	-5.081	0.202
0.186	-5.089	0.205
0.193	-5.092	0.210
0.071	-5.091	0.379
0.071	-5.083	0.383
0.071	-5.074	0.381
0.071	-5.067	0.375
0.071	-5.066	0.366
0.071	-5.070	0.357
0.071	-5.078	0.353
0.071	-5.087	0.355
0.071	-5.094	0.361
0.071	-5.095	0.370
0.295	-5.144	0.296
0.299	-5.148	0.303
0.298	-5.150	0.312
0.292	-5.151	0.319
0.283	-5.149	0.321
0.275	-5.146	0.318
0.271	-5.142	0.310
0.272	-5.140	0.302
0.278	-5.139	0.295
0.287	-5.141	0.293
0.263	-5.266	0.257
0.267	-5.270	0.264
0.266	-5.272	0.273
0.260	-5.273	0.280
0.251	-5.271	0.282
0.243	-5.268	0.279
0.239	-5.264	0.271
0.240	-5.262	0.262
0.246	-5.261	0.255
0.255	-5.263	0.253
0.381	-5.215	0.391
0.387	-5.219	0.398
0.388	-5.222	0.406
0.382	-5.224	0.414
0.374	-5.225	0.417
0.365	-5.223	0.415
0.359	-5.220	0.408
0.359	-5.216	0.400
0.364	-5.214	0.392
0.372	-5.214	0.389
0.370	-5.311	0.354
0.376	-5.314	0.360
0.376	-5.317	0.369
0.371	-5.320	0.376
0.363	-5.320	0.380
0.354	-5.318	0.378
0.348	-5.315	0.371
0.348	-5.311	0.362
0.353	-5.309	0.355
0.361	-5.309	0.352
0.469	-5.299	0.487
0.473	-5.301	0.495
0.471	-5.303	0.504
0.465	-5.303	0.510
0.456	-5.301	0.512
0.448	-5.298	0.508
0.444	-5.295	0.500
0.446	-5.294	0.491
0.452	-5.294	0.484
0.461	-5.296	0.483
0.442	-5.412	0.463
0.446	-5.415	0.471
0.444	-5.417	0.480
0.437	-5.416	0.486
0.428	-5.414	0.488
0.420	-5.412	0.484
0.417	-5.409	0.476
0.418	-5.408	0.467
0.425	-5.408	0.460
0.434	-5.410	0.459
0.537	-5.375	0.578
0.542	-5.372	0.585
0.547	-5.374	0.593
0.549	-5.382	0.598
0.549	-5.391	0.598
0.545	-5.399	0.594
0.540	-5.401	0.587
0.535	-5.399	0.580
0.533	-5.391	0.575
0.534	-5.382	0.574
0.621	-5.385	0.523
0.626	-5.382	0.530
0.631	-5.385	0.538
0.633	-5.393	0.543
0.632	-5.402	0.544
0.628	-5.409	0.540
0.623	-5.412	0.532
0.619	-5.409	0.525
0.616	-5.402	0.520
0.617	-5.393	0.519
0.623	-5.469	0.658
0.628	-5.466	0.665
0.632	-5.469	0.672
0.634	-5.476	0.678
0.632	-5.485	0.679
0.628	-5.493	0.676
0.622	-5.495	0.669
0.618	-5.493	0.661
0.616	-5.486	0.656
0.618	-5.477	0.654
0.678	-5.486	0.622
0.683	-5.483	0.629
0.688	-5.485	0.636
0.689	-5.493	0.642
0.687	-5.502	0.643
0.683	-5.509	0.640
0.677	-5.512	0.633
0.673	-5.509	0.625
0.672	-5.502	0.620
0.673	-5.493	0.618
0.713	-5.592	0.750
0.716	-5.585	0.754
0.716	-5.576	0.755
0.711	-5.568	0.753
0.703	-5.565	0.748
0.697	-5.568	0.742
0.693	-5.576	0.738
0.694	-5.585	0.736
0.699	-5.592	0.739
0.706	-5.595	0.744
0.688	-5.598	0.782
0.691	-5.591	0.786
0.690	-5.582	0.787
0.686	-5.574	0.784
0.678	-5.571	0.779
0.672	-5.574	0.773
0.668	-5.582	0.769
0.669	-5.591	0.768
0.674	-5.598	0.771
0.681	-5.601	0.776
0.788	-5.687	0.812
0.791	-5.692	0.819
0.789	-5.695	0.827
0.782	-5.695	0.834
0.774	-5.692	0.836
0.767	-5.687	0.833
0.764	-5.681	0.826
0.766	-5.678	0.818
0.773	-5.678	0.811
0.781	-5.681	0.809
[...]
         <CellData>
           <DataArray type="Float32" Name="combinedRootClassID" NumberOfComponents="1" format="ascii">
 -1.300e+01 -1.300e+01 -1.300e+01 -1.300e+01 -1.300e+01 -1.300e+01 -1.300e+01 -1.300e+01 -1.300e+01 -5.000e+00 -5.000e+00 -5.000e+00 -5.000e+00 -5.000e+00 -5.000e+00 -5.000e+00 -5.000e+00 -5.000e+00 -5.000e+00 -5.000e+00 -5.000e+00 -5.000e+00 -1.300e+01 -1.300e+01 -1.300e+01 -1.300e+01 -1.300e+01 -1.300e+01 -1.300e+01 -1.300e+01 -1.300e+01 -5.000e+00 -5.000e+00 -5.000e+00 -5.000e+00 -5.000e+00 -5.000e+00 -5.000e+00 -5.000e+00 -5.000e+00 -5.000e+00 -5.000e+00 -5.000e+00 -5.000e+00 -1.300e+01 -1.300e+01 -1.300e+01 -1.300e+01 -1.300e+01 -1.300e+01 -1.300e+01 -1.300e+01 -1.300e+01 -5.000e+00 -5.000e+00 -5.000e+00 -5.000e+00 -5.000e+00 -5.000e+00 -5.000e+00 -5.000e+00 -5.000e+00 -5.000e+00 -5.000e+00 -5.000e+00 -5.000e+00 -1.300e+01 -1.300e+01 -1.300e+01 -1.300e+01 -1.300e+01 -1.300e+01 -1.300e+01 -1.300e+01 -1.300e+01 -5.000e+00 -5.000e+00 -5.000e+00 -5.000e+00 -5.000e+00 -5.000e+00 -5.000e+00 -5.000e+00 -5.000e+00 -5.000e+00 -5.000e+00 -5.000e+00 -5.000e+00 -1.100e+01 -1.100e+01 -1.100e+01 -1.100e+01 -1.100e+01 -1.100e+01 -1.100e+01 -1.100e+01 -1.100e+01 -1.100e+01 -1.100e+01 -1.100e+01 -2.000e+00 -2.000e+00 -2.000e+00 -2.000e+00 -2.000e+00 -2.000e+00 -2.000e+00 -2.000e+00 -2.000e+00 -2.000e+00 -7.000e+00 -7.000e+00 -7.000e+00 -7.000e+00 -7.000e+00 -7.000e+00 -7.000e+00 -7.000e+00 -7.000e+00 -7.000e+00 -7.000e+00 -7.000e+00 -7.000e+00 -7.000e+00 -7.000e+00 -7.000e+00 -7.000e+00 -7.000e+00 -7.000e+00 -7.000e+00 -7.000e+00 -7.000e+00 -7.000e+00 -7.000e+00 -7.000e+00 -7.000e+00 -7.000e+00 -7.000e+00 -7.000e+00 -7.000e+00 -7.000e+00 -7.000e+00 -7.000e+00 -7.000e+00 -7.000e+00 -7.000e+00 -7.000e+00 -7.000e+00 -7.000e+00 -7.000e+00 -7.000e+00 -7.000e+00 -7.000e+00 -7.000e+00 -7.000e+00 -7.000e+00 -7.000e+00 -7.000e+00 -7.000e+00 -7.000e+00 -7.000e+00 -7.000e+00 -7.000e+00 -7.000e+00 -7.000e+00 -7.000e+00 -7.000e+00 -7.000e+00 -7.000e+00 -7.000e+00 -7.000e+00 -7.000e+00 -7.000e+00 -7.000e+00 -7.000e+00 -7.000e+00 -7.000e+00 -7.000e+00 -7.000e+00 -7.000e+00 -7.000e+00 -7.000e+00 -7.000e+00 -7.000e+00 -7.000e+00 -7.000e+00 -7.000e+00 -7.000e+00 -7.000e+00 -7.000e+00 -7.000e+00 -7.000e+00 -7.000e+00 -7.000e+00 -7.000e+00 -7.000e+00 -7.000e+00 -7.000e+00 -7.000e+00 -7.000e+00 -7.000e+00 -7.000e+00 -7.000e+00 -7.000e+00 -7.000e+00 -7.000e+00 -7.000e+00 -7.000e+00 -7.000e+00 -7.000e+00 -7.000e+00 -7.000e+00 -7.000e+00 -7.000e+00 -7.000e+00 -7.000e+00 -7.000e+00 -7.000e+00 -7.000e+00 -7.000e+00 -7.000e+00 -7.000e+00 -7.000e+00 -7.000e+00 -7.000e+00 -7.000e+00 -7.000e+00 -7.000e+00 -7.000e+00 -7.000e+00 -7.000e+00 -7.000e+00 -7.000e+00 -7.000e+00 -7.000e+00 -7.000e+00 -7.000e+00 -7.000e+00 -7.000e+00 -7.000e+00 -7.000e+00 -7.000e+00 -7.000e+00 -7.000e+00 -7.000e+00 -7.000e+00 -7.000e+00 -7.000e+00 -7.000e+00 -7.000e+00 -7.000e+00 -7.000e+00 -7.000e+00 -7.000e+00 -7.000e+00 -7.000e+00 -7.000e+00 -7.000e+00 -7.000e+00 -7.000e+00 -7.000e+00 -7.000e+00 -7.000e+00 -7.000e+00 -7.000e+00 -7.000e+00 -7.000e+00 -7.000e+00 -7.000e+00 -7.000e+00 -7.000e+00 -7.000e+00 -7.000e+00 -7.000e+00 -7.000e+00 -7.000e+00 -7.000e+00 -7.000e+00 -7.000e+00 -7.000e+00 -7.000e+00 -7.000e+00 -7.000e+00 -7.000e+00 -7.000e+00 -7.000e+00 -7.000e+00 -7.000e+00 -7.000e+00 -7.000e+00 -7.000e+00 -7.000e+00 -7.000e+00 -7.000e+00 -7.000e+00 -7.000e+00 -7.000e+00 -9.000e+00 -9.000e+00 -9.000e+00 -9.000e+00 -9.000e+00 -9.000e+00 -9.000e+00 -9.000e+00 -9.000e+00 -4.000e+00 -4.000e+00 -4.000e+00 -4.000e+00 -4.000e+00 -4.000e+00 -4.000e+00 -4.000e+00 -4.000e+00 -4.000e+00 -4.000e+00 -4.000e+00 -4.000e+00 -4.000e+00 -4.000e+00 -4.000e+00 -4.000e+00 -4.000e+00 -4.000e+00 -4.000e+00 -4.000e+00 -4.000e+00 -4.000e+00 -4.000e+00 -4.000e+00 -4.000e+00 -4.000e+00
           </DataArray>
           <DataArray type="Float32" Name="nitrate/Cmin" NumberOfComponents="1" format="ascii">
 1.000e-03 1.000e-03 1.000e-03 1.000e-03 1.000e-03 1.000e-03 1.000e-03 1.000e-03 1.000e-03 1.000e-03 1.000e-03 1.000e-03 1.000e-03 1.000e-03 1.000e-03 1.000e-03 1.000e-03 1.000e-03 1.000e-03 1.000e-03 1.000e-03 1.000e-03 1.000e-03 1.000e-03 1.000e-03 1.000e-03 1.000e-03 1.000e-03 1.000e-03 1.000e-03 1.000e-03 1.000e-03 1.000e-03 1.000e-03 1.000e-03 1.000e-03 1.000e-03 1.000e-03 1.000e-03 1.000e-03 1.000e-03 1.000e-03 1.000e-03 1.000e-03 1.000e-03 1.000e-03 1.000e-03 1.000e-03 1.000e-03 1.000e-03 1.000e-03 1.000e-03 1.000e-03 1.000e-03 1.000e-03 1.000e-03 1.000e-03 1.000e-03 1.000e-03 1.000e-03 1.000e-03 1.000e-03 1.000e-03 1.000e-03 1.000e-03 1.000e-03 1.000e-03 1.000e-03 1.000e-03 1.000e-03 1.000e-03 1.000e-03 1.000e-03 1.000e-03 1.000e-03 1.000e-03 1.000e-03 1.000e-03 1.000e-03 1.000e-03 1.000e-03 1.000e-03 1.000e-03 1.000e-03 1.000e-03 1.000e-03 1.000e-03 1.000e-03 1.000e-03 1.000e-03 1.000e-03 1.000e-03 1.000e-03 1.000e-03 1.000e-03 1.000e-03 1.000e-03 1.000e-03 1.000e-03 1.000e-03 1.000e-03 1.000e-03 1.000e-03 1.000e-03 1.000e-03 1.000e-03 1.000e-03 1.000e-03 1.000e-03 1.000e-03 1.000e-03 1.000e-03 1.000e-03 1.000e-03 1.000e-03 1.000e-03 1.000e-03 1.000e-03 1.000e-03 1.000e-03 1.000e-03 1.000e-03 1.000e-03 1.000e-03 1.000e-03 1.000e-03 1.000e-03 1.000e-03 1.000e-03 1.000e-03 1.000e-03 1.000e-03 1.000e-03 1.000e-03 1.000e-03 1.000e-03 1.000e-03 1.000e-03 1.000e-03 1.000e-03 1.000e-03 1.000e-03 1.000e-03 1.000e-03 1.000e-03 1.000e-03 1.000e-03 1.000e-03 1.000e-03 1.000e-03 1.000e-03 1.000e-03 1.000e-03 1.000e-03 1.000e-03 1.000e-03 1.000e-03 1.000e-03 1.000e-03 1.000e-03 1.000e-03 1.000e-03 1.000e-03 1.000e-03 1.000e-03 1.000e-03 1.000e-03 1.000e-03 1.000e-03 1.000e-03 1.000e-03 1.000e-03 1.000e-03 1.000e-03 1.000e-03 1.000e-03 1.000e-03 1.000e-03 1.000e-03 1.000e-03 1.000e-03 1.000e-03 1.000e-03 1.000e-03 1.000e-03 1.000e-03 1.000e-03 1.000e-03 1.000e-03 1.000e-03 1.000e-03 1.000e-03 1.000e-03 1.000e-03 1.000e-03 1.000e-03 1.000e-03 1.000e-03 1.000e-03 1.000e-03 1.000e-03 1.000e-03 1.000e-03 1.000e-03 1.000e-03 1.000e-03 1.000e-03 1.000e-03 1.000e-03 1.000e-03 1.000e-03 1.000e-03 1.000e-03 1.000e-03 1.000e-03 1.000e-03 1.000e-03 1.000e-03 1.000e-03 1.000e-03 1.000e-03 1.000e-03 1.000e-03 1.000e-03 1.000e-03 1.000e-03 1.000e-03 1.000e-03 1.000e-03 1.000e-03 1.000e-03 1.000e-03 1.000e-03 1.000e-03 1.000e-03 1.000e-03 1.000e-03 1.000e-03 1.000e-03 1.000e-03 1.000e-03 1.000e-03 1.000e-03 1.000e-03 1.000e-03 1.000e-03 1.000e-03 1.000e-03 1.000e-03 1.000e-03 1.000e-03 1.000e-03 1.000e-03 1.000e-03 1.000e-03 1.000e-03 1.000e-03 1.000e-03 1.000e-03 1.000e-03 1.000e-03 1.000e-03 1.000e-03 1.000e-03 1.000e-03 1.000e-03 1.000e-03 1.000e-03 1.000e-03 1.000e-03 1.000e-03 1.000e-03 1.000e-03 1.000e-03 1.000e-03 1.000e-03 1.000e-03 1.000e-03 1.000e-03 1.000e-03 1.000e-03 1.000e-03 1.000e-03 1.000e-03 1.000e-03 1.000e-03 1.000e-03 1.000e-03 1.000e-03 1.000e-03 1.000e-03 1.000e-03 1.000e-03 1.000e-03 1.000e-03 1.000e-03 1.000e-03 1.000e-03 1.000e-03 1.000e-03 1.000e-03 1.000e-03 1.000e-03 1.000e-03 1.000e-03 1.000e-03 1.000e-03 1.000e-03 1.000e-03 1.000e-03 1.000e-03 1.000e-03 1.000e-03 1.000e-03 1.000e-03 1.000e-03 1.000e-03 1.000e-03 1.000e-03 1.000e-03 1.000e-03 1.000e-03 1.000e-03 1.000e-03 1.000e-03 1.000e-03 1.000e-03 1.000e-03 1.000e-03 1.000e-03 1.000e-03 1.000e-03 1.000e-03
           </DataArray>
           <DataArray type="Float32" Name="nitrate/Imax" NumberOfComponents="1" format="ascii">
 1.900e+00 1.900e+00 1.900e+00 1.900e+00 1.900e+00 1.900e+00 1.900e+00 1.900e+00 1.900e+00 1.900e+00 1.900e+00 1.900e+00 1.900e+00 1.900e+00 1.900e+00 1.900e+00 1.900e+00 1.900e+00 1.900e+00 1.900e+00 1.900e+00 1.900e+00 1.900e+00 1.900e+00 1.900e+00 1.900e+00 1.900e+00 1.900e+00 1.900e+00 1.900e+00 1.900e+00 1.900e+00 1.900e+00 1.900e+00 1.900e+00 1.900e+00 1.900e+00 1.900e+00 1.900e+00 1.900e+00 1.900e+00 1.900e+00 1.900e+00 1.900e+00 1.900e+00 1.900e+00 1.900e+00 1.900e+00 1.900e+00 1.900e+00 1.900e+00 1.900e+00 1.900e+00 1.900e+00 1.900e+00 1.900e+00 1.900e+00 1.900e+00 1.900e+00 1.900e+00 1.900e+00 1.900e+00 1.900e+00 1.900e+00 1.900e+00 1.900e+00 1.900e+00 1.900e+00 1.900e+00 1.900e+00 1.900e+00 1.900e+00 1.900e+00 1.900e+00 1.900e+00 1.900e+00 1.900e+00 1.900e+00 1.900e+00 1.900e+00 1.900e+00 1.900e+00 1.900e+00 1.900e+00 1.900e+00 1.900e+00 1.900e+00 1.900e+00 1.900e+00 1.900e+00 1.900e+00 1.900e+00 1.900e+00 1.900e+00 1.900e+00 1.900e+00 1.900e+00 1.900e+00 1.900e+00 1.900e+00 1.900e+00 1.900e+00 1.900e+00 1.900e+00 1.900e+00 1.900e+00 1.900e+00 1.900e+00 1.900e+00 1.900e+00 1.900e+00 1.900e+00 1.900e+00 1.900e+00 1.900e+00 1.900e+00 1.900e+00 1.900e+00 1.900e+00 1.900e+00 1.900e+00 1.900e+00 1.900e+00 1.900e+00 1.900e+00 1.900e+00 1.900e+00 1.900e+00 1.900e+00 1.900e+00 1.900e+00 1.900e+00 1.900e+00 1.900e+00 1.900e+00 1.900e+00 1.900e+00 1.900e+00 1.900e+00 1.900e+00 1.900e+00 1.900e+00 1.900e+00 1.900e+00 1.900e+00 1.900e+00 1.900e+00 1.900e+00 1.900e+00 1.900e+00 1.900e+00 1.900e+00 1.900e+00 1.900e+00 1.900e+00 1.900e+00 1.900e+00 1.900e+00 1.900e+00 1.900e+00 1.900e+00 1.900e+00 1.900e+00 1.900e+00 1.900e+00 1.900e+00 1.900e+00 1.900e+00 1.900e+00 1.900e+00 1.900e+00 1.900e+00 1.900e+00 1.900e+00 1.900e+00 1.900e+00 1.900e+00 1.900e+00 1.900e+00 1.900e+00 1.900e+00 1.900e+00 1.900e+00 1.900e+00 1.900e+00 1.900e+00 1.900e+00 1.900e+00 1.900e+00 1.900e+00 1.900e+00 1.900e+00 1.900e+00 1.900e+00 1.900e+00 1.900e+00 1.900e+00 1.900e+00 1.900e+00 1.900e+00 1.900e+00 1.900e+00 1.900e+00 1.900e+00 1.900e+00 1.900e+00 1.900e+00 1.900e+00 1.900e+00 1.900e+00 1.900e+00 1.900e+00 1.900e+00 1.900e+00 1.900e+00 1.900e+00 1.900e+00 1.900e+00 1.900e+00 1.900e+00 1.900e+00 1.900e+00 1.900e+00 1.900e+00 1.900e+00 1.900e+00 1.900e+00 1.900e+00 1.900e+00 1.900e+00 1.900e+00 1.900e+00 1.900e+00 1.900e+00 1.900e+00 1.900e+00 1.900e+00 1.900e+00 1.900e+00 1.900e+00 1.900e+00 1.900e+00 1.900e+00 1.900e+00 1.900e+00 1.900e+00 1.900e+00 1.900e+00 1.900e+00 1.900e+00 1.900e+00 1.900e+00 1.900e+00 1.900e+00 1.900e+00 1.900e+00 1.900e+00 1.900e+00 1.900e+00 1.900e+00 1.900e+00 1.900e+00 1.900e+00 1.900e+00 1.900e+00 1.900e+00 1.900e+00 1.900e+00 1.900e+00 1.900e+00 1.900e+00 1.900e+00 1.900e+00 1.900e+00 1.900e+00 1.900e+00 1.900e+00 1.900e+00 1.900e+00 1.900e+00 1.900e+00 1.900e+00 1.900e+00 1.900e+00 1.900e+00 1.900e+00 1.900e+00 1.900e+00 1.900e+00 1.900e+00 1.900e+00 1.900e+00 1.900e+00 1.900e+00 1.900e+00 1.900e+00 1.900e+00 1.900e+00 1.900e+00 1.900e+00 1.900e+00 1.900e+00 1.900e+00 1.900e+00 1.900e+00 1.900e+00 1.900e+00 1.900e+00 1.900e+00 1.900e+00 1.900e+00 1.900e+00 1.900e+00 1.900e+00 1.900e+00 1.900e+00 1.900e+00 1.900e+00 1.900e+00 1.900e+00 1.900e+00 1.900e+00 1.900e+00 1.900e+00 1.900e+00 1.900e+00 1.900e+00 1.900e+00 1.900e+00 1.900e+00 1.900e+00 1.900e+00 1.900e+00
           </DataArray>
           <DataArray type="Float32" Name="nitrate/Km" NumberOfComponents="1" format="ascii">
 1.610e-02 1.610e-02 1.610e-02 1.610e-02 1.610e-02 1.610e-02 1.610e-02 1.610e-02 1.610e-02 1.610e-02 1.610e-02 1.610e-02 1.610e-02 1.610e-02 1.610e-02 1.610e-02 1.610e-02 1.610e-02 1.610e-02 1.610e-02 1.610e-02 1.610e-02 1.610e-02 1.610e-02 1.610e-02 1.610e-02 1.610e-02 1.610e-02 1.610e-02 1.610e-02 1.610e-02 1.610e-02 1.610e-02 1.610e-02 1.610e-02 1.610e-02 1.610e-02 1.610e-02 1.610e-02 1.610e-02 1.610e-02 1.610e-02 1.610e-02 1.610e-02 1.610e-02 1.610e-02 1.610e-02 1.610e-02 1.610e-02 1.610e-02 1.610e-02 1.610e-02 1.610e-02 1.610e-02 1.610e-02 1.610e-02 1.610e-02 1.610e-02 1.610e-02 1.610e-02 1.610e-02 1.610e-02 1.610e-02 1.610e-02 1.610e-02 1.610e-02 1.610e-02 1.610e-02 1.610e-02 1.610e-02 1.610e-02 1.610e-02 1.610e-02 1.610e-02 1.610e-02 1.610e-02 1.610e-02 1.610e-02 1.610e-02 1.610e-02 1.610e-02 1.610e-02 1.610e-02 1.610e-02 1.610e-02 1.610e-02 1.610e-02 1.610e-02 1.610e-02 1.610e-02 1.610e-02 1.610e-02 1.610e-02 1.610e-02 1.610e-02 1.610e-02 1.610e-02 1.610e-02 1.610e-02 1.610e-02 1.610e-02 1.610e-02 1.610e-02 1.610e-02 1.610e-02 1.610e-02 1.610e-02 1.610e-02 1.610e-02 1.610e-02 1.610e-02 1.610e-02 1.610e-02 1.610e-02 1.610e-02 1.610e-02 1.610e-02 1.610e-02 1.610e-02 1.610e-02 1.610e-02 1.610e-02 1.610e-02 1.610e-02 1.610e-02 1.610e-02 1.610e-02 1.610e-02 1.610e-02 1.610e-02 1.610e-02 1.610e-02 1.610e-02 1.610e-02 1.610e-02 1.610e-02 1.610e-02 1.610e-02 1.610e-02 1.610e-02 1.610e-02 1.610e-02 1.610e-02 1.610e-02 1.610e-02 1.610e-02 1.610e-02 1.610e-02 1.610e-02 1.610e-02 1.610e-02 1.610e-02 1.610e-02 1.610e-02 1.610e-02 1.610e-02 1.610e-02 1.610e-02 1.610e-02 1.610e-02 1.610e-02 1.610e-02 1.610e-02 1.610e-02 1.610e-02 1.610e-02 1.610e-02 1.610e-02 1.610e-02 1.610e-02 1.610e-02 1.610e-02 1.610e-02 1.610e-02 1.610e-02 1.610e-02 1.610e-02 1.610e-02 1.610e-02 1.610e-02 1.610e-02 1.610e-02 1.610e-02 1.610e-02 1.610e-02 1.610e-02 1.610e-02 1.610e-02 1.610e-02 1.610e-02 1.610e-02 1.610e-02 1.610e-02 1.610e-02 1.610e-02 1.610e-02 1.610e-02 1.610e-02 1.610e-02 1.610e-02 1.610e-02 1.610e-02 1.610e-02 1.610e-02 1.610e-02 1.610e-02 1.610e-02 1.610e-02 1.610e-02 1.610e-02 1.610e-02 1.610e-02 1.610e-02 1.610e-02 1.610e-02 1.610e-02 1.610e-02 1.610e-02 1.610e-02 1.610e-02 1.610e-02 1.610e-02 1.610e-02 1.610e-02 1.610e-02 1.610e-02 1.610e-02 1.610e-02 1.610e-02 1.610e-02 1.610e-02 1.610e-02 1.610e-02 1.610e-02 1.610e-02 1.610e-02 1.610e-02 1.610e-02 1.610e-02 1.610e-02 1.610e-02 1.610e-02 1.610e-02 1.610e-02 1.610e-02 1.610e-02 1.610e-02 1.610e-02 1.610e-02 1.610e-02 1.610e-02 1.610e-02 1.610e-02 1.610e-02 1.610e-02 1.610e-02 1.610e-02 1.610e-02 1.610e-02 1.610e-02 1.610e-02 1.610e-02 1.610e-02 1.610e-02 1.610e-02 1.610e-02 1.610e-02 1.610e-02 1.610e-02 1.610e-02 1.610e-02 1.610e-02 1.610e-02 1.610e-02 1.610e-02 1.610e-02 1.610e-02 1.610e-02 1.610e-02 1.610e-02 1.610e-02 1.610e-02 1.610e-02 1.610e-02 1.610e-02 1.610e-02 1.610e-02 1.610e-02 1.610e-02 1.610e-02 1.610e-02 1.610e-02 1.610e-02 1.610e-02 1.610e-02 1.610e-02 1.610e-02 1.610e-02 1.610e-02 1.610e-02 1.610e-02 1.610e-02 1.610e-02 1.610e-02 1.610e-02 1.610e-02 1.610e-02 1.610e-02 1.610e-02 1.610e-02 1.610e-02 1.610e-02 1.610e-02 1.610e-02 1.610e-02 1.610e-02 1.610e-02 1.610e-02 1.610e-02 1.610e-02 1.610e-02 1.610e-02 1.610e-02 1.610e-02 1.610e-02 1.610e-02 1.610e-02 1.610e-02 1.610e-02 1.610e-02 1.610e-02 1.610e-02 1.610e-02
           </DataArray>
           <DataArray type="Float32" Name="nitrate/minimalNutrientConcentration" NumberOfComponents="1" format="ascii">
 6.000e+02 6.000e+02 6.000e+02 6.000e+02 6.000e+02 6.000e+02 6.000e+02 6.000e+02 6.000e+02 6.000e+02 6.000e+02 6.000e+02 6.000e+02 6.000e+02 6.000e+02 6.000e+02 6.000e+02 6.000e+02 6.000e+02 6.000e+02 6.000e+02 6.000e+02 6.000e+02 6.000e+02 6.000e+02 6.000e+02 6.000e+02 6.000e+02 6.000e+02 6.000e+02 6.000e+02 6.000e+02 6.000e+02 6.000e+02 6.000e+02 6.000e+02 6.000e+02 6.000e+02 6.000e+02 6.000e+02 6.000e+02 6.000e+02 6.000e+02 6.000e+02 6.000e+02 6.000e+02 6.000e+02 6.000e+02 6.000e+02 6.000e+02 6.000e+02 6.000e+02 6.000e+02 6.000e+02 6.000e+02 6.000e+02 6.000e+02 6.000e+02 6.000e+02 6.000e+02 6.000e+02 6.000e+02 6.000e+02 6.000e+02 6.000e+02 6.000e+02 6.000e+02 6.000e+02 6.000e+02 6.000e+02 6.000e+02 6.000e+02 6.000e+02 6.000e+02 6.000e+02 6.000e+02 6.000e+02 6.000e+02 6.000e+02 6.000e+02 6.000e+02 6.000e+02 6.000e+02 6.000e+02 6.000e+02 6.000e+02 6.000e+02 6.000e+02 6.000e+02 6.000e+02 6.000e+02 6.000e+02 6.000e+02 6.000e+02 6.000e+02 6.000e+02 6.000e+02 6.000e+02 6.000e+02 6.000e+02 6.000e+02 6.000e+02 6.000e+02 6.000e+02 6.000e+02 6.000e+02 6.000e+02 6.000e+02 6.000e+02 6.000e+02 6.000e+02 6.000e+02 6.000e+02 6.000e+02 6.000e+02 6.000e+02 6.000e+02 6.000e+02 6.000e+02 6.000e+02 6.000e+02 6.000e+02 6.000e+02 6.000e+02 6.000e+02 6.000e+02 6.000e+02 6.000e+02 6.000e+02 6.000e+02 6.000e+02 6.000e+02 6.000e+02 6.000e+02 6.000e+02 6.000e+02 6.000e+02 6.000e+02 6.000e+02 6.000e+02 6.000e+02 6.000e+02 6.000e+02 6.000e+02 6.000e+02 6.000e+02 6.000e+02 6.000e+02 6.000e+02 6.000e+02 6.000e+02 6.000e+02 6.000e+02 6.000e+02 6.000e+02 6.000e+02 6.000e+02 6.000e+02 6.000e+02 6.000e+02 6.000e+02 6.000e+02 6.000e+02 6.000e+02 6.000e+02 6.000e+02 6.000e+02 6.000e+02 6.000e+02 6.000e+02 6.000e+02 6.000e+02 6.000e+02 6.000e+02 6.000e+02 6.000e+02 6.000e+02 6.000e+02 6.000e+02 6.000e+02 6.000e+02 6.000e+02 6.000e+02 6.000e+02 6.000e+02 6.000e+02 6.000e+02 6.000e+02 6.000e+02 6.000e+02 6.000e+02 6.000e+02 6.000e+02 6.000e+02 6.000e+02 6.000e+02 6.000e+02 6.000e+02 6.000e+02 6.000e+02 6.000e+02 6.000e+02 6.000e+02 6.000e+02 6.000e+02 6.000e+02 6.000e+02 6.000e+02 6.000e+02 6.000e+02 6.000e+02 6.000e+02 6.000e+02 6.000e+02 6.000e+02 6.000e+02 6.000e+02 6.000e+02 6.000e+02 6.000e+02 6.000e+02 6.000e+02 6.000e+02 6.000e+02 6.000e+02 6.000e+02 6.000e+02 6.000e+02 6.000e+02 6.000e+02 6.000e+02 6.000e+02 6.000e+02 6.000e+02 6.000e+02 6.000e+02 6.000e+02 6.000e+02 6.000e+02 6.000e+02 6.000e+02 6.000e+02 6.000e+02 6.000e+02 6.000e+02 6.000e+02 6.000e+02 6.000e+02 6.000e+02 6.000e+02 6.000e+02 6.000e+02 6.000e+02 6.000e+02 6.000e+02 6.000e+02 6.000e+02 6.000e+02 6.000e+02 6.000e+02 6.000e+02 6.000e+02 6.000e+02 6.000e+02 6.000e+02 6.000e+02 6.000e+02 6.000e+02 6.000e+02 6.000e+02 6.000e+02 6.000e+02 6.000e+02 6.000e+02 6.000e+02 6.000e+02 6.000e+02 6.000e+02 6.000e+02 6.000e+02 6.000e+02 6.000e+02 6.000e+02 6.000e+02 6.000e+02 6.000e+02 6.000e+02 6.000e+02 6.000e+02 6.000e+02 6.000e+02 6.000e+02 6.000e+02 6.000e+02 6.000e+02 6.000e+02 6.000e+02 6.000e+02 6.000e+02 6.000e+02 6.000e+02 6.000e+02 6.000e+02 6.000e+02 6.000e+02 6.000e+02 6.000e+02 6.000e+02 6.000e+02 6.000e+02 6.000e+02 6.000e+02 6.000e+02 6.000e+02 6.000e+02 6.000e+02 6.000e+02 6.000e+02 6.000e+02 6.000e+02 6.000e+02 6.000e+02 6.000e+02 6.000e+02 6.000e+02 6.000e+02 6.000e+02 6.000e+02 6.000e+02 6.000e+02 6.000e+02 6.000e+02 6.000e+02
           </DataArray>
           <DataArray type="Float32" Name="nitrate/nutrientConcentrationAtTheRootSurface" NumberOfComponents="1" format="ascii">