<?xml version="1.0"?>
<VTKFile type="UnstructuredGrid" version="0.1" byte_order="LittleEndian">
   <UnstructuredGrid>
      <Piece NumberOfPoints="22150" NumberOfCells="1547">
         <Points>
            <DataArray type="Float32" Name="Position" NumberOfComponents="3" format="ascii">
-0.120	-5.040	0.097
-0.123	-5.031	0.098
-0.123	-5.023	0.094
-0.121	-5.018	0.087
-0.117	-5.018	0.079
-0.112	-5.024	0.073
-0.109	-5.032	0.072
-0.109	-5.041	0.075
-0.111	-5.046	0.083
-0.115	-5.045	0.091
-0.883	-5.259	-0.298
-0.887	-5.251	-0.295
-0.888	-5.243	-0.298
-0.887	-5.237	-0.305
-0.883	-5.236	-0.314
-0.879	-5.241	-0.321
-0.875	-5.249	-0.323
-0.874	-5.258	-0.320
-0.875	-5.263	-0.313
-0.879	-5.264	-0.304
-1.660	-5.524	-0.585
-1.663	-5.515	-0.583
-1.664	-5.507	-0.587
-1.662	-5.501	-0.594
-1.658	-5.501	-0.602
-1.653	-5.506	-0.609
-1.650	-5.515	-0.610
-1.649	-5.523	-0.607
-1.651	-5.529	-0.600
-1.655	-5.529	-0.591
-2.206	-5.630	-0.919
-2.201	-5.630	-0.910
-2.203	-5.630	-0.901
-2.209	-5.630	-0.895
-2.219	-5.630	-0.893
-2.227	-5.630	-0.897
-2.231	-5.630	-0.906
-2.230	-5.630	-0.915
-2.223	-5.630	-0.921
-2.214	-5.630	-0.923
-0.241	-5.091	0.171
-0.239	-5.082	0.169
-0.234	-5.077	0.163
-0.227	-5.078	0.157
-0.222	-5.083	0.152
-0.219	-5.092	0.151
-0.222	-5.101	0.154
-0.227	-5.106	0.159
-0.234	-5.105	0.166
-0.239	-5.100	0.170
-0.843	-5.151	-0.478
-0.840	-5.143	-0.481
-0.833	-5.139	-0.486
-0.825	-5.142	-0.491
-0.820	-5.149	-0.495
-0.819	-5.158	-0.495
-0.823	-5.166	-0.491
-0.830	-5.169	-0.486
-0.837	-5.167	-0.481
-0.842	-5.160	-0.478
-1.284	-5.189	-1.250
-1.282	-5.180	-1.252
-1.276	-5.174	-1.255
-1.267	-5.173	-1.258
-1.260	-5.178	-1.261
-1.256	-5.187	-1.261
-1.258	-5.196	-1.260
-1.264	-5.202	-1.257
-1.273	-5.202	-1.253
-1.280	-5.197	-1.251
-1.392	-5.236	-1.715
-1.384	-5.231	-1.718
-1.375	-5.232	-1.720
-1.368	-5.238	-1.721
-1.366	-5.247	-1.720
-1.369	-5.255	-1.718
-1.377	-5.260	-1.716
-1.386	-5.259	-1.714
-1.393	-5.253	-1.713
-1.395	-5.244	-1.713
-1.121	-5.885	0.748
-1.115	-5.883	0.755
-1.113	-5.885	0.764
-1.115	-5.890	0.771
-1.121	-5.896	0.774
-1.129	-5.901	0.772
-1.135	-5.903	0.765
-1.137	-5.901	0.756
-1.134	-5.896	0.749
-1.128	-5.890	0.746
-0.597	-6.526	0.484
-0.591	-6.524	0.491
-0.589	-6.525	0.500
-0.591	-6.531	0.507
-0.596	-6.538	0.510
-0.603	-6.544	0.508
-0.608	-6.546	0.501
-0.611	-6.544	0.492
-0.609	-6.539	0.485
-0.603	-6.532	0.482
0.075	-7.030	0.206
0.080	-7.027	0.214
0.082	-7.029	0.222
0.081	-7.034	0.229
0.076	-7.042	0.232
0.070	-7.048	0.230
0.065	-7.051	0.222
0.063	-7.050	0.214
0.064	-7.044	0.206
0.069	-7.036	0.204
-1.209	-6.013	0.820
-1.206	-6.006	0.825
-1.206	-5.997	0.825
-1.210	-5.989	0.821
-1.215	-5.986	0.814
-1.220	-5.989	0.806
-1.222	-5.996	0.802
-1.222	-6.005	0.801
-1.218	-6.013	0.805
-1.213	-6.016	0.812
-1.937	-6.076	1.317
-1.935	-6.069	1.322
-1.936	-6.060	1.323
-1.940	-6.052	1.319
-1.944	-6.049	1.312
-1.949	-6.052	1.304
-1.950	-6.059	1.299
-1.949	-6.068	1.298
-1.946	-6.076	1.302
-1.941	-6.079	1.309
-2.698	-6.275	1.678
-2.697	-6.268	1.684
-2.700	-6.259	1.686
-2.704	-6.252	1.683
-2.708	-6.248	1.676
-2.711	-6.250	1.667
-2.711	-6.257	1.660
-2.709	-6.265	1.658
-2.704	-6.273	1.662
-2.700	-6.276	1.669
-3.009	-6.431	1.769
-3.009	-6.425	1.776
-3.013	-6.417	1.779
-3.017	-6.410	1.776
-3.021	-6.406	1.769
-3.023	-6.407	1.760
-3.023	-6.413	1.752
-3.019	-6.421	1.750
-3.015	-6.429	1.753
-3.011	-6.432	1.760
-1.297	-6.103	0.854
-1.291	-6.102	0.861
-1.289	-6.103	0.870
-1.293	-6.107	0.878
-1.300	-6.112	0.881
-1.308	-6.116	0.879
-1.314	-6.118	0.872
-1.315	-6.116	0.863
-1.312	-6.112	0.855
-1.305	-6.107	0.852
-0.880	-6.849	0.661
-0.875	-6.848	0.668
-0.875	-6.849	0.678
-0.879	-6.851	0.685
-0.887	-6.855	0.688
-0.896	-6.858	0.685
-0.901	-6.859	0.678
-0.901	-6.858	0.668
-0.897	-6.855	0.661
-0.889	-6.852	0.658
-0.675	-7.699	0.682
-0.670	-7.698	0.690
-0.671	-7.698	0.699
-0.677	-7.699	0.706
-0.686	-7.700	0.708
-0.694	-7.702	0.704
-0.699	-7.703	0.696
-0.698	-7.703	0.687
-0.692	-7.702	0.680
-0.683	-7.700	0.678
-0.666	-7.762	0.683
-0.662	-7.761	0.691
-0.663	-7.761	0.700
-0.669	-7.762	0.707
-0.678	-7.763	0.709
-0.686	-7.764	0.705
-0.691	-7.765	0.697
-0.690	-7.765	0.688
-0.683	-7.764	0.681
-0.674	-7.763	0.679
-1.382	-6.214	0.909
-1.376	-6.213	0.916
-1.375	-6.215	0.925
-1.379	-6.218	0.933
-1.387	-6.222	0.936
-1.396	-6.225	0.933
-1.402	-6.226	0.926
-1.403	-6.224	0.917
-1.399	-6.220	0.910
-1.391	-6.217	0.907
-1.061	-7.019	0.718
-1.056	-7.019	0.725
-1.055	-7.020	0.734
-1.060	-7.022	0.742
-1.069	-7.025	0.745
-1.077	-7.027	0.742
-1.083	-7.028	0.734
-1.083	-7.027	0.725
-1.078	-7.024	0.718
-1.070	-7.021	0.715
-0.908	-7.868	0.687
-0.903	-7.868	0.694
-0.904	-7.868	0.704
-0.910	-7.869	0.711
-0.919	-7.871	0.713
-0.927	-7.873	0.710
-0.932	-7.873	0.702
-0.931	-7.873	0.692
-0.926	-7.871	0.685
-0.917	-7.870	0.683
-1.462	-6.340	0.964
-1.460	-6.331	0.965
-1.464	-6.322	0.967
-1.471	-6.318	0.971
-1.480	-6.320	0.974
-1.486	-6.327	0.975
-1.488	-6.336	0.975
-1.484	-6.344	0.972
-1.477	-6.348	0.969
-1.468	-6.346	0.966
-1.140	-6.444	1.781
-1.139	-6.435	1.782
-1.144	-6.428	1.786
-1.151	-6.426	1.791
-1.159	-6.429	1.795
-1.163	-6.437	1.797
-1.164	-6.446	1.796
-1.159	-6.453	1.792
-1.152	-6.455	1.787
-1.144	-6.452	1.782
-0.548	-6.572	2.403
-0.546	-6.563	2.402
-0.548	-6.555	2.406
-0.553	-6.550	2.413
-0.559	-6.551	2.420
-0.563	-6.558	2.425
-0.565	-6.567	2.425
-0.564	-6.575	2.422
-0.559	-6.579	2.415
-0.553	-6.578	2.408
-0.300	-6.588	2.558
-0.302	-6.581	2.563
-0.306	-6.578	2.570
-0.311	-6.580	2.578
-0.315	-6.587	2.582
-0.316	-6.596	2.582
-0.314	-6.604	2.578
-0.309	-6.607	2.570
-0.304	-6.605	2.563
-0.301	-6.598	2.558
-1.553	-6.441	1.004
-1.547	-6.440	1.010
-1.544	-6.442	1.019
-1.547	-6.447	1.026
-1.553	-6.453	1.030
-1.562	-6.457	1.028
-1.568	-6.458	1.021
-1.570	-6.456	1.012
-1.568	-6.451	1.005
-1.561	-6.445	1.002
-1.123	-7.151	0.695
-1.117	-7.150	0.702
-1.114	-7.152	0.711
-1.117	-7.157	0.718
-1.123	-7.163	0.721
-1.130	-7.168	0.719
-1.137	-7.170	0.713
-1.139	-7.167	0.704
-1.137	-7.162	0.697
-1.131	-7.156	0.693
-0.591	-7.708	0.410
-0.586	-7.705	0.417
-0.584	-7.707	0.426
-0.586	-7.712	0.433
-0.591	-7.719	0.436
-0.597	-7.726	0.433
-0.602	-7.729	0.426
-0.604	-7.727	0.417
-0.602	-7.722	0.410
-0.597	-7.715	0.407
-0.417	-7.822	0.377
-0.413	-7.818	0.384
-0.412	-7.819	0.393
-0.414	-7.824	0.401
-0.419	-7.832	0.403
-0.424	-7.839	0.401
-0.428	-7.843	0.393
-0.429	-7.842	0.384
-0.427	-7.837	0.377
-0.422	-7.829	0.374
-1.632	-6.562	1.045
-1.627	-6.559	1.052
-1.626	-6.560	1.061
-1.628	-6.565	1.069
-1.634	-6.572	1.072
-1.640	-6.578	1.069
-1.645	-6.581	1.062
-1.646	-6.580	1.052
-1.644	-6.575	1.045
-1.638	-6.568	1.042
-1.025	-7.129	0.888
-1.021	-7.125	0.895
-1.020	-7.125	0.905
-1.023	-7.129	0.912
-1.029	-7.136	0.915
-1.035	-7.143	0.912
-1.039	-7.147	0.905
-1.039	-7.146	0.896
-1.036	-7.142	0.888
-1.030	-7.135	0.885
-0.575	-7.484	0.937
-0.572	-7.479	0.944
-0.572	-7.478	0.954
-0.576	-7.482	0.961
-0.582	-7.489	0.964
-0.587	-7.496	0.961
-0.590	-7.501	0.954
-0.589	-7.501	0.945
-0.586	-7.498	0.937
-0.580	-7.491	0.934
-1.699	-6.703	1.091
-1.696	-6.695	1.093
-1.698	-6.686	1.095
-1.705	-6.681	1.097
-1.715	-6.680	1.097
-1.722	-6.686	1.097
-1.725	-6.694	1.095
-1.723	-6.703	1.093
-1.716	-6.708	1.091
-1.706	-6.708	1.091
-1.619	-6.884	1.922
-1.616	-6.875	1.923
-1.618	-6.866	1.924
-1.626	-6.861	1.926
-1.635	-6.860	1.927
-1.642	-6.866	1.927
-1.646	-6.874	1.926
-1.643	-6.883	1.924
-1.636	-6.889	1.923
-1.627	-6.889	1.922
-1.550	-6.956	2.601
-1.546	-6.947	2.601
-1.549	-6.938	2.602
-1.556	-6.932	2.604
-1.565	-6.932	2.605
-1.573	-6.937	2.605
-1.576	-6.946	2.604
-1.574	-6.954	2.603
-1.567	-6.960	2.602
-1.558	-6.961	2.601
-1.775	-6.835	1.134
-1.772	-6.827	1.138
-1.772	-6.818	1.139
-1.776	-6.811	1.135
-1.782	-6.808	1.128
-1.787	-6.810	1.121
-1.790	-6.818	1.117
-1.790	-6.827	1.116
-1.786	-6.834	1.120
-1.781	-6.837	1.127
-2.435	-6.882	1.658
-2.431	-6.874	1.662
-2.431	-6.865	1.663
-2.435	-6.858	1.659
-2.441	-6.855	1.653
-2.447	-6.857	1.646
-2.450	-6.865	1.642
-2.450	-6.874	1.641
-2.446	-6.882	1.645
-2.440	-6.885	1.651
-2.748	-6.905	1.963
-2.745	-6.898	1.967
-2.745	-6.888	1.967
-2.749	-6.881	1.964
-2.755	-6.878	1.958
-2.761	-6.881	1.951
-2.765	-6.888	1.947
-2.764	-6.897	1.946
-2.760	-6.905	1.950
-2.754	-6.908	1.956
-1.838	-6.957	1.157
-1.836	-6.948	1.159
-1.839	-6.940	1.162
-1.847	-6.937	1.166
-1.856	-6.938	1.169
-1.862	-6.945	1.169
-1.864	-6.954	1.167
-1.861	-6.961	1.163
-1.853	-6.965	1.160
-1.845	-6.963	1.157
-1.563	-7.208	1.962
-1.561	-7.199	1.964
-1.565	-7.191	1.968
-1.572	-7.188	1.972
-1.581	-7.189	1.974
-1.588	-7.196	1.974
-1.590	-7.204	1.972
-1.586	-7.212	1.968
-1.579	-7.216	1.964
-1.570	-7.214	1.962
-1.310	-7.492	2.750
-1.308	-7.484	2.753
-1.311	-7.476	2.757
-1.319	-7.472	2.760
-1.327	-7.474	2.763
-1.334	-7.480	2.763
-1.336	-7.489	2.760
-1.333	-7.496	2.756
-1.325	-7.500	2.752
-1.316	-7.499	2.750
-0.330	-5.160	0.226
-0.325	-5.157	0.234
-0.326	-5.156	0.243
-0.333	-5.157	0.250
-0.341	-5.160	0.252
-0.349	-5.162	0.248
-0.354	-5.165	0.241
-0.353	-5.166	0.231
-0.346	-5.165	0.224
-0.338	-5.162	0.222
-0.094	-5.977	0.330
-0.089	-5.976	0.338
-0.090	-5.975	0.347
-0.096	-5.977	0.354
-0.104	-5.979	0.357
-0.112	-5.982	0.353
-0.117	-5.984	0.345
-0.116	-5.984	0.336
-0.111	-5.983	0.329
-0.102	-5.980	0.327
0.188	-6.805	0.310
0.194	-6.804	0.318
0.194	-6.805	0.327
0.189	-6.808	0.335
0.181	-6.811	0.337
0.172	-6.813	0.335
0.167	-6.814	0.327
0.167	-6.813	0.318
0.172	-6.811	0.310
0.180	-6.808	0.308
0.205	-6.856	0.300
0.211	-6.855	0.307
0.212	-6.857	0.316
0.208	-6.860	0.324
0.200	-6.863	0.327
0.191	-6.866	0.324
0.185	-6.866	0.317
0.184	-6.865	0.308
0.189	-6.862	0.300
0.197	-6.858	0.297
-1.907	-7.083	1.190
-1.907	-7.074	1.191
-1.912	-7.067	1.195
-1.919	-7.064	1.201
-1.926	-7.068	1.205
-1.931	-7.076	1.207
-1.930	-7.085	1.206
-1.926	-7.092	1.203
-1.918	-7.094	1.197
-1.911	-7.091	1.193
-1.423	-7.146	1.900
-1.423	-7.137	1.903
-1.428	-7.131	1.908
-1.435	-7.130	1.915
-1.441	-7.135	1.919
-1.445	-7.144	1.920
-1.444	-7.153	1.918
-1.439	-7.159	1.912
-1.433	-7.159	1.906
-1.426	-7.154	1.901
-0.967	-7.301	2.303
-0.957	-7.300	2.302
-0.949	-7.304	2.304
-0.946	-7.311	2.308
[...]
         <CellData>
           <DataArray type="Float32" Name="combinedRootClassID" NumberOfComponents="1" format="ascii">
 -1.300e+01 -1.300e+01 -1.300e+01 -1.300e+01 -1.300e+01 -1.300e+01 -1.300e+01 -1.300e+01 -1.300e+01 -1.300e+01 -1.300e+01 -1.300e+01 -1.300e+01 -1.300e+01 -1.300e+01 -1.300e+01 -1.300e+01 -1.300e+01 -1.300e+01 -1.300e+01 -1.300e+01 -1.300e+01 -1.300e+01 -1.300e+01 -1.300e+01 -1.300e+01 -1.300e+01 -1.300e+01 -1.300e+01 -1.300e+01 -1.300e+01 -1.300e+01 -1.300e+01 -1.300e+01 -1.300e+01 -1.300e+01 -1.300e+01 -1.300e+01 -1.300e+01 -1.300e+01 -1.300e+01 -1.300e+01 -1.300e+01 -1.300e+01 -1.300e+01 -1.300e+01 -1.300e+01 -1.300e+01 -1.300e+01 -1.300e+01 -1.300e+01 -1.300e+01 -1.300e+01 -1.300e+01 -1.300e+01 -1.300e+01 -1.300e+01 -1.300e+01 -1.300e+01 -1.300e+01 -1.300e+01 -1.300e+01 -1.300e+01 -1.300e+01 -1.300e+01 -1.300e+01 -1.300e+01 -1.300e+01 -1.300e+01 -1.300e+01 -1.300e+01 -1.300e+01 -1.300e+01 -1.300e+01 -1.300e+01 -1.300e+01 -1.300e+01 -1.300e+01 -1.300e+01 -1.300e+01 -1.300e+01 -1.300e+01 -1.300e+01 -1.300e+01 -1.300e+01 -1.300e+01 -1.300e+01 -1.300e+01 -1.300e+01 -1.300e+01 -1.300e+01 -1.300e+01 -1.300e+01 -1.300e+01 -1.300e+01 -1.300e+01 -1.300e+01 -1.300e+01 -1.300e+01 -1.300e+01 -1.300e+01 -1.300e+01 -1.300e+01 -1.300e+01 -1.300e+01 -1.300e+01 -1.300e+01 -1.300e+01 -1.300e+01 -1.300e+01 -1.300e+01 -1.300e+01 -1.300e+01 -1.300e+01 -1.300e+01 -1.300e+01 -1.300e+01 -1.300e+01 -1.300e+01 -1.300e+01 -1.300e+01 -1.300e+01 -1.300e+01 -1.300e+01 -1.300e+01 -1.300e+01 -1.300e+01 -1.300e+01 -1.300e+01 -1.300e+01 -1.300e+01 -1.300e+01 -1.300e+01 -1.300e+01 -1.300e+01 -1.300e+01 -1.300e+01 -1.300e+01 -1.300e+01 -1.300e+01 -1.300e+01 -1.300e+01 -1.300e+01 -1.300e+01 -1.300e+01 -1.300e+01 -1.300e+01 -1.300e+01 -1.300e+01 -1.300e+01 -1.300e+01 -1.300e+01 -1.300e+01 -1.300e+01 -5.000e+00 -5.000e+00 -5.000e+00 -5.000e+00 -5.000e+00 -5.000e+00 -5.000e+00 -5.000e+00 -5.000e+00 -5.000e+00 -5.000e+00 -5.000e+00 -5.000e+00 -5.000e+00 -5.000e+00 -5.000e+00 -5.000e+00 -5.000e+00 -5.000e+00 -5.000e+00 -5.000e+00 -5.000e+00 -5.000e+00 -5.000e+00 -5.000e+00 -5.000e+00 -5.000e+00 -5.000e+00 -1.300e+01 -1.300e+01 -1.300e+01 -1.300e+01 -1.300e+01 -1.300e+01 -1.300e+01 -1.300e+01 -1.300e+01 -1.300e+01 -1.300e+01 -1.300e+01 -1.300e+01 -1.300e+01 -1.300e+01 -1.300e+01 -1.300e+01 -1.300e+01 -1.300e+01 -1.300e+01 -1.300e+01 -1.300e+01 -1.300e+01 -1.300e+01 -1.300e+01 -1.300e+01 -1.300e+01 -1.300e+01 -1.300e+01 -1.300e+01 -1.300e+01 -1.300e+01 -1.300e+01 -1.300e+01 -1.300e+01 -1.300e+01 -1.300e+01 -1.300e+01 -1.300e+01 -1.300e+01 -1.300e+01 -1.300e+01 -1.300e+01 -1.300e+01 -1.300e+01 -1.300e+01 -1.300e+01 -1.300e+01 -1.300e+01 -1.300e+01 -1.300e+01 -1.300e+01 -1.300e+01 -1.300e+01 -1.300e+01 -1.300e+01 -1.300e+01 -1.300e+01 -1.300e+01 -1.300e+01 -1.300e+01 -1.300e+01 -1.300e+01 -1.300e+01 -1.300e+01 -1.300e+01 -1.300e+01 -1.300e+01 -1.300e+01 -1.300e+01 -1.300e+01 -1.300e+01 -1.300e+01 -1.300e+01 -1.300e+01 -1.300e+01 -1.300e+01 -1.300e+01 -1.300e+01 -1.300e+01 -1.300e+01 -1.300e+01 -1.300e+01 -1.300e+01 -1.300e+01 -1.300e+01 -1.300e+01 -1.300e+01 -1.300e+01 -1.300e+01 -1.300e+01 -1.300e+01 -1.300e+01 -1.300e+01 -1.300e+01 -1.300e+01 -1.300e+01 -1.300e+01 -1.300e+01 -1.300e+01 -1.300e+01 -1.300e+01 -1.300e+01 -1.300e+01 -1.300e+01 -1.300e+01 -1.300e+01 -1.300e+01 -1.300e+01 -1.300e+01 -1.300e+01 -1.300e+01 -1.300e+01 -1.300e+01 -1.300e+01 -1.300e+01 -1.300e+01 -1.300e+01 -1.300e+01 -1.300e+01 -1.300e+01 -1.300e+01 -1.300e+01 -1.300e+01 -1.300e+01 -1.300e+01 -1.300e+01 -1.300e+01 -1.300e+01 -1.300e+01 -1.300e+01 -1.300e+01 -1.300e+01 -1.300e+01 -1.300e+01 -1.300e+01 -1.300e+01 -1.300e+01 -1.300e+01 -1.300e+01 -1.300e+01 -1.300e+01 -1.300e+01 -1.300e+01 -1.300e+01 -1.300e+01 -1.300e+01 -1.300e+01 -1.300e+01 -1.300e+01 -1.300e+01 -5.000e+00 -5.000e+00 -5.000e+00 -5.000e+00 -5.000e+00 -5.000e+00 -5.000e+00 -5.000e+00 -5.000e+00 -5.000e+00 -5.000e+00 -5.000e+00 -5.000e+00 -5.000e+00 -5.000e+00 -5.000e+00 -5.000e+00 -5.000e+00 -5.000e+00 -5.000e+00 -5.000e+00 -5.000e+00 -5.000e+00 -5.000e+00 -5.000e+00 -5.000e+00 -5.000e+00 -5.000e+00 -1.300e+01 -1.300e+01 -1.300e+01 -1.300e+01 -1.300e+01 -1.300e+01 -1.300e+01 -1.300e+01 -1.300e+01 -1.300e+01 -1.300e+01 -1.300e+01 -1.300e+01 -1.300e+01 -1.300e+01 -1.300e+01 -1.300e+01 -1.300e+01 -1.300e+01 -1.300e+01 -1.300e+01 -1.300e+01 -1.300e+01 -1.300e+01 -1.300e+01 -1.300e+01 -1.300e+01 -1.300e+01 -1.300e+01 -1.300e+01 -1.300e+01 -1.300e+01 -1.300e+01 -1.300e+01 -1.300e+01 -1.300e+01 -1.300e+01 -1.300e+01 -1.300e+01 -1.300e+01 -1.300e+01 -1.300e+01 -1.300e+01 -1.300e+01 -1.300e+01 -1.300e+01 -1.300e+01 -1.300e+01 -1.300e+01 -1.300e+01 -1.300e+01 -1.300e+01 -1.300e+01 -1.300e+01 -1.300e+01 -1.300e+01 -1.300e+01 -1.300e+01 -1.300e+01 -1.300e+01 -1.300e+01 -1.300e+01 -1.300e+01 -1.300e+01 -1.300e+01 -1.300e+01 -1.300e+01 -1.300e+01 -1.300e+01 -1.300e+01 -1.300e+01 -1.300e+01 -1.300e+01 -1.300e+01 -1.300e+01 -1.300e+01 -1.300e+01 -1.300e+01 -1.300e+01 -1.300e+01 -1.300e+01 -1.300e+01 -1.300e+01 -1.300e+01 -1.300e+01 -1.300e+01 -1.300e+01 -1.300e+01 -1.300e+01 -1.300e+01 -1.300e+01 -1.300e+01 -1.300e+01 -1.300e+01 -1.300e+01 -1.300e+01 -1.300e+01 -1.300e+01 -1.300e+01 -1.300e+01 -1.300e+01 -1.300e+01 -1.300e+01 -1.300e+01 -1.300e+01 -1.300e+01 -1.300e+01 -1.300e+01 -1.300e+01 -1.300e+01 -1.300e+01 -1.300e+01 -1.300e+01 -1.300e+01 -1.300e+01 -1.300e+01 -1.300e+01 -1.300e+01 -1.300e+01 -1.300e+01 -1.300e+01 -1.300e+01 -1.300e+01 -1.300e+01 -1.300e+01 -1.300e+01 -1.300e+01 -1.300e+01 -1.300e+01 -1.300e+01 -1.300e+01 -1.300e+01 -1.300e+01 -1.300e+01 -1.300e+01 -1.300e+01 -1.300e+01 -1.300e+01 -1.300e+01 -1.300e+01 -1.300e+01 -1.300e+01 -1.300e+01 -1.300e+01 -1.300e+01 -1.300e+01 -1.300e+01 -1.300e+01 -1.300e+01 -1.300e+01 -1.300e+01 -1.300e+01 -1.300e+01 -5.000e+00 -5.000e+00 -5.000e+00 -5.000e+00 -5.000e+00 -5.000e+00 -5.000e+00 -5.000e+00 -5.000e+00 -5.000e+00 -5.000e+00 -5.000e+00 -5.000e+00 -5.000e+00 -5.000e+00 -5.000e+00 -5.000e+00 -5.000e+00 -5.000e+00 -5.000e+00 -5.000e+00 -5.000e+00 -5.000e+00 -5.000e+00 -5.000e+00 -5.000e+00 -5.000e+00 -5.000e+00 -1.300e+01 -1.300e+01 -1.300e+01 -1.300e+01 -1.300e+01 -1.300e+01 -1.300e+01 -1.300e+01 -1.300e+01 -1.300e+01 -1.300e+01 -1.300e+01 -1.300e+01 -1.300e+01 -1.300e+01 -1.300e+01 -1.300e+01 -1.300e+01 -1.300e+01 -1.300e+01 -1.300e+01 -1.300e+01 -1.300e+01 -1.300e+01 -1.300e+01 -1.300e+01 -1.300e+01 -1.300e+01 -1.300e+01 -1.300e+01 -1.300e+01 -1.300e+01 -1.300e+01 -1.300e+01 -1.300e+01 -1.300e+01 -1.300e+01 -1.300e+01 -1.300e+01 -1.300e+01 -1.300e+01 -1.300e+01 -1.300e+01 -1.300e+01 -1.300e+01 -1.300e+01 -1.300e+01 -1.300e+01 -1.300e+01 -1.300e+01 -1.300e+01 -1.300e+01 -1.300e+01 -1.300e+01 -1.300e+01 -1.300e+01 -1.300e+01 -1.300e+01 -1.300e+01 -1.300e+01 -1.300e+01 -1.300e+01 -1.300e+01 -1.300e+01 -1.300e+01 -1.300e+01 -1.300e+01 -1.300e+01 -1.300e+01 -1.300e+01 -1.300e+01 -1.300e+01 -1.300e+01 -1.300e+01 -1.300e+01 -1.300e+01 -1.300e+01 -1.300e+01 -1.300e+01 -1.300e+01 -1.300e+01 -1.300e+01 -1.300e+01 -1.300e+01 -1.300e+01 -1.300e+01 -1.300e+01 -1.300e+01 -1.300e+01 -1.300e+01 -1.300e+01 -1.300e+01 -1.300e+01 -1.300e+01 -1.300e+01 -1.300e+01 -1.300e+01 -1.300e+01 -1.300e+01 -1.300e+01 -1.300e+01 -1.300e+01 -1.300e+01 -1.300e+01 -1.300e+01 -1.300e+01 -1.300e+01 -1.300e+01 -1.300e+01 -1.300e+01 -1.300e+01 -1.300e+01 -1.300e+01 -1.300e+01 -1.300e+01 -1.300e+01 -1.300e+01 -1.300e+01 -1.300e+01 -1.300e+01 -1.300e+01 -1.300e+01 -1.300e+01 -1.300e+01 -1.300e+01 -1.300e+01 -1.300e+01 -1.300e+01 -1.300e+01 -1.300e+01 -1.300e+01 -1.300e+01 -1.300e+01 -1.300e+01 -1.300e+01 -1.300e+01 -1.300e+01 -1.300e+01 -1.300e+01 -1.300e+01 -1.300e+01 -1.300e+01 -1.300e+01 -1.300e+01 -1.300e+01 -1.300e+01 -1.300e+01 -1.300e+01 -1.300e+01 -1.300e+01 -1.300e+01 -1.300e+01 -1.300e+01 -1.300e+01 -5.000e+00 -5.000e+00 -5.000e+00 -5.000e+00 -5.000e+00 -5.000e+00 -5.000e+00 -5.000e+00 -5.000e+00 -5.000e+00 -5.000e+00 -5.000e+00 -5.000e+00 -5.000e+00 -5.000e+00 -5.000e+00 -5.000e+00 -5.000e+00 -5.000e+00 -5.000e+00 -5.000e+00 -5.000e+00 -5.000e+00 -5.000e+00 -5.000e+00 -5.000e+00 -5.000e+00 -5.000e+00 -1.900e+01 -1.900e+01 -1.900e+01 -1.900e+01 -1.900e+01 -1.900e+01 -1.900e+01 -1.900e+01 -1.900e+01 -1.900e+01 -1.900e+01 -1.900e+01 -1.900e+01 -1.900e+01 -1.900e+01 -1.900e+01 -1.900e+01 -1.900e+01 -1.900e+01 -1.900e+01 -1.100e+01 -1.100e+01 -1.100e+01 -1.100e+01 -1.100e+01 -1.100e+01 -1.100e+01 -1.100e+01 -1.100e+01 -1.100e+01 -1.100e+01 -1.100e+01 -1.100e+01 -1.100e+01 -1.100e+01 -1.100e+01 -1.100e+01 -1.900e+01 -1.900e+01 -1.900e+01 -1.900e+01 -1.900e+01 -1.900e+01 -1.900e+01 -1.900e+01 -1.900e+01 -1.900e+01 -1.900e+01 -1.900e+01 -1.900e+01 -1.900e+01 -1.900e+01 -1.900e+01 -1.900e+01 -1.900e+01 -1.900e+01 -1.900e+01 -1.100e+01 -1.100e+01 -1.100e+01 -1.100e+01 -1.100e+01 -1.100e+01 -1.100e+01 -1.100e+01 -1.100e+01 -1.100e+01 -1.100e+01 -1.100e+01 -1.100e+01 -1.100e+01 -1.100e+01 -1.100e+01 -1.100e+01 -1.900e+01 -1.900e+01 -1.900e+01 -1.900e+01 -1.900e+01 -1.900e+01 -1.900e+01 -1.900e+01 -1.900e+01 -1.900e+01 -1.900e+01 -1.900e+01 -1.900e+01 -1.900e+01 -1.900e+01 -1.900e+01 -1.900e+01 -1.900e+01 -1.900e+01 -1.900e+01 -1.100e+01 -1.100e+01 -1.100e+01 -1.100e+01 -1.100e+01 -1.100e+01 -1.100e+01 -1.100e+01 -1.100e+01 -1.100e+01 -1.100e+01 -1.100e+01 -1.100e+01 -1.100e+01 -1.100e+01 -1.100e+01 -1.100e+01 -1.900e+01 -1.900e+01 -1.900e+01 -1.900e+01 -1.900e+01 -1.900e+01 -1.900e+01 -1.900e+01 -1.900e+01 -1.900e+01 -1.900e+01 -1.900e+01 -1.900e+01 -1.900e+01 -1.900e+01 -1.900e+01 -1.900e+01 -1.900e+01 -1.900e+01 -1.900e+01 -1.100e+01 -1.100e+01 -1.100e+01 -1.100e+01 -1.100e+01 -1.100e+01 -1.100e+01 -1.100e+01 -1.100e+01 -1.100e+01 -1.100e+01 -1.100e+01 -1.100e+01 -1.100e+01 -1.100e+01 -1.100e+01 -1.100e+01 -2.000e+01 -2.000e+01 -2.000e+01 -2.000e+01 -2.000e+01 -2.000e+01 -2.000e+01 -2.000e+01 -2.000e+01 -2.000e+01 -2.000e+01 -2.000e+01 -2.000e+01 -2.000e+01 -2.000e+01 -2.000e+01 -2.000e+01 -2.000e+01 -2.000e+00 -2.000e+00 -2.000e+00 -2.000e+00 -2.000e+00 -2.000e+00 -2.000e+00 -2.000e+00 -2.000e+00 -2.000e+00 -1.500e+01 -1.500e+01 -7.000e+00 -7.000e+00 -7.000e+00 -7.000e+00 -7.000e+00 -7.000e+00 -1.500e+01 -1.500e+01 -7.000e+00 -7.000e+00 -7.000e+00 -7.000e+00 -7.000e+00 -7.000e+00 -1.500e+01 -1.500e+01 -1.500e+01 -7.000e+00 -7.000e+00 -7.000e+00 -7.000e+00 -7.000e+00 -7.000e+00 -7.000e+00 -7.000e+00 -7.000e+00 -7.000e+00 -7.000e+00 -7.000e+00 -7.000e+00 -7.000e+00 -7.000e+00 -7.000e+00 -7.000e+00 -7.000e+00 -7.000e+00 -7.000e+00 -7.000e+00 -7.000e+00 -7.000e+00 -7.000e+00 -7.000e+00 -7.000e+00 -7.000e+00 -7.000e+00 -7.000e+00 -7.000e+00 -7.000e+00 -1.500e+01 -1.500e+01 -7.000e+00 -7.000e+00 -7.000e+00 -7.000e+00 -7.000e+00 -7.000e+00 -7.000e+00 -7.000e+00 -7.000e+00 -7.000e+00 -7.000e+00 -7.000e+00 -7.000e+00 -7.000e+00 -7.000e+00 -7.000e+00 -7.000e+00 -7.000e+00 -7.000e+00 -7.000e+00 -7.000e+00 -7.000e+00 -7.000e+00 -7.000e+00 -7.000e+00 -7.000e+00 -7.000e+00 -7.000e+00 -7.000e+00 -7.000e+00 -7.000e+00 -7.000e+00 -7.000e+00 -7.000e+00 -7.000e+00 -7.000e+00 -7.000e+00 -7.000e+00 -7.000e+00 -7.000e+00 -7.000e+00 -7.000e+00 -7.000e+00 -7.000e+00 -7.000e+00 -7.000e+00 -7.000e+00 -7.000e+00 -7.000e+00 -7.000e+00 -1.500e+01 -7.000e+00 -7.000e+00 -7.000e+00 -7.000e+00 -7.000e+00 -7.000e+00 -7.000e+00 -7.000e+00 -7.000e+00 -7.000e+00 -7.000e+00 -7.000e+00 -7.000e+00 -7.000e+00 -7.000e+00 -7.000e+00 -7.000e+00 -7.000e+00 -1.500e+01 -7.000e+00 -7.000e+00 -7.000e+00 -7.000e+00 -7.000e+00 -7.000e+00 -7.000e+00 -7.000e+00 -7.000e+00 -7.000e+00 -7.000e+00 -7.000e+00 -7.000e+00 -7.000e+00 -7.000e+00 -7.000e+00 -1.500e+01 -7.000e+00 -7.000e+00 -7.000e+00 -7.000e+00 -7.000e+00 -7.000e+00 -7.000e+00 -7.000e+00 -7.000e+00 -7.000e+00 -7.000e+00 -7.000e+00 -7.000e+00 -7.000e+00 -7.000e+00 -1.500e+01 -1.500e+01 -7.000e+00 -7.000e+00 -7.000e+00 -7.000e+00 -7.000e+00 -7.000e+00 -1.500e+01 -1.500e+01 -7.000e+00 -7.000e+00 -7.000e+00 -7.000e+00 -7.000e+00 -7.000e+00 -7.000e+00 -7.000e+00 -7.000e+00 -7.000e+00 -7.000e+00 -1.500e+01 -7.000e+00 -7.000e+00 -7.000e+00 -7.000e+00 -7.000e+00 -1.500e+01 -1.500e+01 -7.000e+00 -7.000e+00 -7.000e+00 -7.000e+00 -7.000e+00 -7.000e+00 -1.500e+01 -7.000e+00 -7.000e+00 -7.000e+00 -7.000e+00 -7.000e+00 -7.000e+00 -1.500e+01 -7.000e+00 -7.000e+00 -7.000e+00 -7.000e+00 -7.000e+00 -7.000e+00 -1.500e+01 -1.500e+01 -7.000e+00 -7.000e+00 -7.000e+00 -7.000e+00 -7.000e+00 -7.000e+00 -7.000e+00 -7.000e+00 -7.000e+00 -7.000e+00 -7.000e+00 -7.000e+00 -7.000e+00 -7.000e+00 -7.000e+00 -7.000e+00 -7.000e+00 -7.000e+00 -7.000e+00 -7.000e+00 -7.000e+00 -7.000e+00 -7.000e+00 -7.000e+00 -7.000e+00 -7.000e+00 -7.000e+00 -7.000e+00 -7.000e+00 -7.000e+00 -7.000e+00 -7.000e+00 -7.000e+00 -7.000e+00 -7.000e+00 -7.000e+00 -7.000e+00 -7.000e+00 -7.000e+00 -7.000e+00 -1.500e+01 -1.500e+01 -7.000e+00 -7.000e+00 -7.000e+00 -7.000e+00 -7.000e+00 -7.000e+00 -7.000e+00 -7.000e+00 -7.000e+00 -7.000e+00 -7.000e+00 -1.500e+01 -7.000e+00 -7.000e+00 -7.000e+00 -7.000e+00 -7.000e+00 -7.000e+00 -7.000e+00 -7.000e+00 -7.000e+00 -7.000e+00 -7.000e+00 -7.000e+00 -7.000e+00 -7.000e+00 -1.500e+01 -7.000e+00 -7.000e+00 -7.000e+00 -7.000e+00 -7.000e+00 -7.000e+00 -1.500e+01 -7.000e+00 -7.000e+00 -7.000e+00 -7.000e+00 -7.000e+00 -7.000e+00 -7.000e+00 -7.000e+00 -7.000e+00 -7.000e+00 -7.000e+00 -7.000e+00 -7.000e+00 -7.000e+00 -7.000e+00 -1.500e+01 -7.000e+00 -7.000e+00 -7.000e+00 -7.000e+00 -7.000e+00 -7.000e+00 -1.500e+01 -7.000e+00 -7.000e+00 -7.000e+00 -7.000e+00 -7.000e+00 -7.000e+00 -7.000e+00 -7.000e+00 -7.000e+00 -7.000e+00 -7.000e+00 -7.000e+00 -7.000e+00 -7.000e+00 -7.000e+00 -7.000e+00 -7.000e+00 -7.000e+00 -7.000e+00 -7.000e+00 -7.000e+00 -7.000e+00 -7.000e+00 -7.000e+00 -7.000e+00 -7.000e+00 -7.000e+00 -7.000e+00 -7.000e+00 -7.000e+00 -7.000e+00 -7.000e+00 -7.000e+00 -7.000e+00 -7.000e+00 -7.000e+00 -7.000e+00 -7.000e+00 -7.000e+00 -7.000e+00 -7.000e+00 -7.000e+00 -7.000e+00 -7.000e+00 -7.000e+00 -7.000e+00 -7.000e+00 -7.000e+00 -7.000e+00 -7.000e+00 -7.000e+00 -7.000e+00 -7.000e+00 -7.000e+00 -1.500e+01 -1.500e+01 -7.000e+00 -7.000e+00 -7.000e+00 -7.000e+00 -7.000e+00 -7.000e+00 -7.000e+00 -7.000e+00 -7.000e+00 -7.000e+00 -7.000e+00 -7.000e+00 -7.000e+00 -7.000e+00 -7.000e+00 -7.000e+00 -7.000e+00 -7.000e+00 -7.000e+00 -7.000e+00 -7.000e+00 -7.000e+00 -7.000e+00 -7.000e+00 -7.000e+00 -7.000e+00 -7.000e+00 -7.000e+00 -7.000e+00 -7.000e+00 -7.000e+00 -7.000e+00 -7.000e+00 -7.000e+00 -7.000e+00 -7.000e+00 -7.000e+00 -7.000e+00 -7.000e+00 -7.000e+00 -7.000e+00 -7.000e+00 -7.000e+00 -7.000e+00 -7.000e+00 -7.000e+00 -7.000e+00 -7.000e+00 -1.500e+01 -7.000e+00 -7.000e+00 -7.000e+00 -7.000e+00 -7.000e+00 -7.000e+00 -7.000e+00 -7.000e+00 -7.000e+00 -7.000e+00 -7.000e+00 -7.000e+00 -7.000e+00 -7.000e+00 -7.000e+00 -7.000e+00 -7.000e+00 -7.000e+00 -7.000e+00 -7.000e+00 -7.000e+00 -7.000e+00 -7.000e+00 -7.000e+00 -7.000e+00 -7.000e+00 -7.000e+00 -7.000e+00 -7.000e+00 -7.000e+00 -7.000e+00 -7.000e+00 -7.000e+00 -7.000e+00 -7.000e+00 -7.000e+00 -7.000e+00 -7.000e+00 -7.000e+00 -7.000e+00 -7.000e+00 -7.000e+00 -7.000e+00 -1.500e+01 -1.500e+01 -7.000e+00 -7.000e+00 -7.000e+00 -7.000e+00 -7.000e+00 -7.000e+00 -7.000e+00 -7.000e+00 -7.000e+00 -7.000e+00 -7.000e+00 -7.000e+00 -7.000e+00 -7.000e+00 -7.000e+00 -7.000e+00 -7.000e+00 -7.000e+00 -7.000e+00 -7.000e+00 -7.000e+00 -7.000e+00 -7.000e+00 -7.000e+00 -7.000e+00 -7.000e+00 -7.000e+00 -7.000e+00 -7.000e+00 -7.000e+00 -7.000e+00 -7.000e+00 -7.000e+00 -7.000e+00 -7.000e+00 -7.000e+00 -7.000e+00 -7.000e+00 -7.000e+00 -7.000e+00 -7.000e+00 -1.500e+01 -1.500e+01 -1.500e+01 -7.000e+00 -7.000e+00 -7.000e+00 -7.000e+00 -7.000e+00 -7.000e+00 -7.000e+00 -7.000e+00 -7.000e+00 -7.000e+00 -7.000e+00 -7.000e+00 -7.000e+00 -7.000e+00 -7.000e+00 -7.000e+00 -7.000e+00 -7.000e+00 -7.000e+00 -7.000e+00 -7.000e+00 -7.000e+00 -7.000e+00 -7.000e+00 -7.000e+00 -7.000e+00 -7.000e+00 -7.000e+00 -7.000e+00 -7.000e+00 -7.000e+00 -7.000e+00 -7.000e+00 -7.000e+00 -7.000e+00 -7.000e+00 -7.000e+00 -7.000e+00 -7.000e+00 -7.000e+00 -7.000e+00 -7.000e+00 -7.000e+00 -7.000e+00 -7.000e+00 -7.000e+00 -7.000e+00 -7.000e+00 -7.000e+00 -7.000e+00 -7.000e+00 -7.000e+00 -7.000e+00 -7.000e+00 -7.000e+00 -7.000e+00 -7.000e+00 -7.000e+00 -7.000e+00 -7.000e+00 -7.000e+00 -7.000e+00 -7.000e+00 -7.000e+00 -7.000e+00 -7.000e+00 -7.000e+00 -7.000e+00 -7.000e+00 -7.000e+00 -7.000e+00 -7.000e+00 -1.700e+01 -1.700e+01 -1.700e+01 -9.000e+00 -9.000e+00 -9.000e+00 -9.000e+00 -9.000e+00 -9.000e+00 -9.000e+00 -1.700e+01 -1.700e+01 -1.700e+01 -9.000e+00 -9.000e+00 -9.000e+00 -9.000e+00 -9.000e+00 -9.000e+00 -9.000e+00 -1.700e+01 -9.000e+00 -9.000e+00 -9.000e+00 -9.000e+00 -9.000e+00 -9.000e+00 -9.000e+00 -9.000e+00 -9.000e+00 -9.000e+00 -9.000e+00 -9.000e+00 -9.000e+00 -9.000e+00 -9.000e+00 -9.000e+00 -9.000e+00 -9.000e+00 -9.000e+00 -9.000e+00 -4.000e+00 -4.000e+00 -4.000e+00 -4.000e+00 -4.000e+00 -4.000e+00 -4.000e+00 -4.000e+00 -4.000e+00 -4.000e+00 -4.000e+00 -4.000e+00 -4.000e+00 -4.000e+00 -4.000e+00 -4.000e+00 -4.000e+00 -4.000e+00 -4.000e+00 -4.000e+00 -4.000e+00 -4.000e+00 -4.000e+00 -4.000e+00 -4.000e+00 -4.000e+00 -4.000e+00 -4.000e+00 -4.000e+00 -4.000e+00 -4.000e+00 -4.000e+00 -4.000e+00 -4.000e+00 -4.000e+00 -4.000e+00
           </DataArray>
           <DataArray type="Float32" Name="nitrate/Cmin" NumberOfComponents="1" format="ascii">