<?xml version="1.0"?>
<VTKFile type="UnstructuredGrid" version="0.1" byte_order="LittleEndian">
   <UnstructuredGrid>
      <Piece NumberOfPoints="210" NumberOfCells="19">
         <Points>
            <DataArray type="Float32" Name="Position" NumberOfComponents="3" format="ascii">
-0.141	-5.003	0.144
-0.030	-5.002	0.200
0.093	-5.001	0.179
0.181	-4.999	0.090
0.199	-4.998	-0.034
0.141	-4.997	-0.144
0.030	-4.998	-0.200
-0.093	-4.999	-0.179
-0.181	-5.001	-0.090
-0.199	-5.002	0.034
-0.149	-4.252	0.151
-0.037	-4.252	0.207
0.085	-4.250	0.186
0.173	-4.249	0.098
0.191	-4.248	-0.025
0.134	-4.248	-0.136
0.023	-4.249	-0.192
-0.100	-4.250	-0.171
-0.187	-4.251	-0.083
-0.206	-4.252	0.040
-0.153	-3.561	0.152
-0.042	-3.561	0.208
0.081	-3.560	0.188
0.168	-3.559	0.100
0.187	-3.559	-0.023
0.130	-3.559	-0.134
0.019	-3.560	-0.190
-0.103	-3.560	-0.170
-0.191	-3.561	-0.082
-0.210	-3.561	0.041
-0.160	-2.401	0.152
-0.050	-2.400	0.208
0.073	-2.400	0.189
0.161	-2.399	0.101
0.180	-2.399	-0.022
0.123	-2.400	-0.132
0.013	-2.400	-0.188
-0.110	-2.401	-0.169
-0.197	-2.401	-0.081
-0.217	-2.401	0.042
-0.161	-1.800	0.150
-0.051	-1.800	0.206
0.072	-1.800	0.187
0.159	-1.800	0.100
0.179	-1.801	-0.023
0.123	-1.801	-0.133
0.013	-1.800	-0.190
-0.110	-1.800	-0.171
-0.198	-1.800	-0.083
-0.217	-1.800	0.039
-0.158	-1.200	0.150
-0.048	-1.200	0.206
0.075	-1.200	0.187
0.162	-1.201	0.100
0.182	-1.201	-0.023
0.126	-1.201	-0.133
0.016	-1.200	-0.190
-0.107	-1.200	-0.170
-0.194	-1.200	-0.083
-0.214	-1.200	0.039
-0.158	-0.300	0.147
-0.048	-0.299	0.204
0.075	-0.299	0.185
0.162	-0.300	0.097
0.182	-0.300	-0.025
0.126	-0.301	-0.135
0.016	-0.301	-0.192
-0.107	-0.301	-0.173
-0.194	-0.301	-0.085
-0.214	-0.300	0.037
-0.159	0.560	0.144
-0.049	0.560	0.200
0.074	0.560	0.181
0.161	0.560	0.094
0.181	0.559	-0.028
0.125	0.559	-0.139
0.015	0.559	-0.195
-0.107	0.560	-0.176
-0.195	0.560	-0.089
-0.215	0.560	0.033
-0.154	1.440	0.144
-0.044	1.440	0.200
0.078	1.439	0.181
0.166	1.439	0.093
0.185	1.439	-0.029
0.129	1.439	-0.139
0.019	1.440	-0.195
-0.103	1.440	-0.176
-0.190	1.440	-0.089
-0.210	1.440	0.033
-0.153	2.000	0.144
-0.043	2.000	0.200
0.079	2.000	0.181
0.167	1.999	0.094
0.186	2.000	-0.028
0.130	2.000	-0.139
0.020	2.000	-0.195
-0.102	2.000	-0.175
-0.190	2.000	-0.088
-0.209	2.000	0.034
0.035	-5.006	-0.029
0.046	-5.005	-0.003
0.039	-5.002	0.025
0.017	-4.999	0.043
-0.011	-4.996	0.045
-0.035	-4.994	0.029
-0.046	-4.995	0.003
-0.039	-4.998	-0.025
-0.017	-5.001	-0.043
0.011	-5.004	-0.045
-0.035	-5.707	0.021
-0.024	-5.706	0.048
-0.031	-5.703	0.075
-0.052	-5.700	0.093
-0.081	-5.697	0.095
-0.105	-5.696	0.080
-0.115	-5.697	0.054
-0.109	-5.700	0.026
-0.087	-5.703	0.008
-0.059	-5.706	0.006
-0.096	-6.409	0.081
-0.086	-6.408	0.108
-0.093	-6.405	0.135
-0.114	-6.401	0.153
-0.142	-6.398	0.155
-0.166	-6.397	0.139
-0.177	-6.399	0.113
-0.170	-6.402	0.086
-0.148	-6.405	0.068
-0.120	-6.408	0.066
-0.169	-7.111	0.145
-0.158	-7.109	0.171
-0.166	-7.106	0.198
-0.187	-7.102	0.216
-0.215	-7.098	0.217
-0.239	-7.097	0.201
-0.249	-7.098	0.175
-0.242	-7.101	0.148
-0.220	-7.106	0.131
-0.192	-7.109	0.129
-0.267	-7.807	0.211
-0.257	-7.807	0.237
-0.264	-7.805	0.264
-0.286	-7.800	0.282
-0.314	-7.796	0.283
-0.337	-7.793	0.267
-0.347	-7.793	0.241
-0.339	-7.796	0.214
-0.318	-7.800	0.196
-0.290	-7.805	0.195
-0.385	-8.503	0.227
-0.375	-8.505	0.253
-0.382	-8.503	0.280
-0.404	-8.499	0.298
-0.431	-8.495	0.299
-0.454	-8.491	0.284
-0.464	-8.489	0.258
-0.457	-8.490	0.231
-0.436	-8.494	0.213
-0.408	-8.499	0.212
-0.511	-9.198	0.215
-0.501	-9.200	0.241
-0.509	-9.198	0.268
-0.530	-9.194	0.286
-0.557	-9.190	0.287
-0.580	-9.186	0.272
-0.590	-9.184	0.246
-0.583	-9.186	0.219
-0.562	-9.189	0.202
-0.534	-9.194	0.200
-0.625	-9.895	0.235
-0.615	-9.896	0.261
-0.622	-9.894	0.288
-0.644	-9.890	0.306
-0.671	-9.886	0.307
-0.694	-9.883	0.292
-0.704	-9.882	0.266
-0.697	-9.884	0.239
-0.676	-9.888	0.221
-0.649	-9.892	0.220
-0.721	-10.595	0.260
-0.710	-10.596	0.286
-0.717	-10.594	0.313
-0.739	-10.590	0.330
-0.766	-10.586	0.332
-0.789	-10.583	0.317
-0.799	-10.583	0.291
-0.793	-10.584	0.264
-0.771	-10.588	0.246
-0.744	-10.592	0.245
-0.827	-11.293	0.282
-0.817	-11.294	0.308
-0.824	-11.292	0.335
-0.845	-11.288	0.352
-0.873	-11.284	0.354
-0.896	-11.282	0.339
-0.906	-11.281	0.313
-0.899	-11.283	0.286
-0.878	-11.287	0.269
-0.851	-11.290	0.267
-0.979	-11.957	0.337
-0.955	-11.944	0.337
-0.927	-11.948	0.337
-0.908	-11.968	0.337
-0.903	-11.995	0.337
-0.916	-12.020	0.337
-0.941	-12.033	0.337
-0.968	-12.028	0.337
-0.988	-12.009	0.337
-0.992	-11.981	0.337
		    </DataArray>
         </Points>
         <Cells>
            <DataArray type="Int32" Name="connectivity" NumberOfComponents="1" format="ascii">
 0 10 1 11 2 12 3 13 4 14 5 15 6 16 7 17 8 18 9 19 0 10
 10 20 11 21 12 22 13 23 14 24 15 25 16 26 17 27 18 28 19 29 10 20
 20 30 21 31 22 32 23 33 24 34 25 35 26 36 27 37 28 38 29 39 20 30
 30 40 31 41 32 42 33 43 34 44 35 45 36 46 37 47 38 48 39 49 30 40
 40 50 41 51 42 52 43 53 44 54 45 55 46 56 47 57 48 58 49 59 40 50
 50 60 51 61 52 62 53 63 54 64 55 65 56 66 57 67 58 68 59 69 50 60
 60 70 61 71 62 72 63 73 64 74 65 75 66 76 67 77 68 78 69 79 60 70
 70 80 71 81 72 82 73 83 74 84 75 85 76 86 77 87 78 88 79 89 70 80
 80 90 81 91 82 92 83 93 84 94 85 95 86 96 87 97 88 98 89 99 80 90
 100 110 101 111 102 112 103 113 104 114 105 115 106 116 107 117 108 118 109 119 100 110
 110 120 111 121 112 122 113 123 114 124 115 125 116 126 117 127 118 128 119 129 110 120
 120 130 121 131 122 132 123 133 124 134 125 135 126 136 127 137 128 138 129 139 120 130
 130 140 131 141 132 142 133 143 134 144 135 145 136 146 137 147 138 148 139 149 130 140
 140 150 141 151 142 152 143 153 144 154 145 155 146 156 147 157 148 158 149 159 140 150
 150 160 151 161 152 162 153 163 154 164 155 165 156 166 157 167 158 168 159 169 150 160
 160 170 161 171 162 172 163 173 164 174 165 175 166 176 167 177 168 178 169 179 160 170
 170 180 171 181 172 182 173 183 174 184 175 185 176 186 177 187 178 188 179 189 170 180
 180 190 181 191 182 192 183 193 184 194 185 195 186 196 187 197 188 198 189 199 180 190
 190 200 191 201 192 202 193 203 194 204 195 205 196 206 197 207 198 208 199 209 190 200

            </DataArray>
            <DataArray type="Int32" Name="offsets" NumberOfComponents="1" format="ascii">
 22 44 66 88 110 132 154 176 198 220 242 264 286 308 330 352 374 396 418
            </DataArray>
            <DataArray type="UInt8"  Name="types" NumberOfComponents="1" format="ascii">
6 6 6 6 6 6 6 6 6 6 6 6 6 6 6 6 6 6 6
            </DataArray>
         </Cells>
         <CellData>
           <DataArray type="Float32" Name="combinedRootClassID" NumberOfComponents="1" format="ascii">
 -2.000e+00 -2.000e+00 -2.000e+00 -2.000e+00 -2.000e+00 -2.000e+00 -2.000e+00 -2.000e+00 -2.000e+00 -4.000e+00 -4.000e+00 -4.000e+00 -4.000e+00 -4.000e+00 -4.000e+00 -4.000e+00 -4.000e+00 -4.000e+00 -4.000e+00
           </DataArray>
           <DataArray type="Float32" Name="nitrate/Cmin" NumberOfComponents="1" format="ascii">
 1.000e-03 1.000e-03 1.000e-03 1.000e-03 1.000e-03 1.000e-03 1.000e-03 1.000e-03 1.000e-03 1.000e-03 1.000e-03 1.000e-03 1.000e-03 1.000e-03 1.000e-03 1.000e-03 1.000e-03 1.000e-03 1.000e-03
           </DataArray>
           <DataArray type="Float32" Name="nitrate/Imax" NumberOfComponents="1" format="ascii">
 1.900e+00 1.900e+00 1.900e+00 1.900e+00 1.900e+00 1.900e+00 1.900e+00 1.900e+00 1.900e+00 1.900e+00 1.900e+00 1.900e+00 1.900e+00 1.900e+00 1.900e+00 1.900e+00 1.900e+00 1.900e+00 1.900e+00
           </DataArray>
           <DataArray type="Float32" Name="nitrate/Km" NumberOfComponents="1" format="ascii">
 1.610e-02 1.610e-02 1.610e-02 1.610e-02 1.610e-02 1.610e-02 1.610e-02 1.610e-02 1.610e-02 1.610e-02 1.610e-02 1.610e-02 1.610e-02 1.610e-02 1.610e-02 1.610e-02 1.610e-02 1.610e-02 1.610e-02
           </DataArray>
           <DataArray type="Float32" Name="nitrate/minimalNutrientConcentration" NumberOfComponents="1" format="ascii">
 6.000e+02 6.000e+02 6.000e+02 6.000e+02 6.000e+02 6.000e+02 6.000e+02 6.000e+02 6.000e+02 6.000e+02 6.000e+02 6.000e+02 6.000e+02 6.000e+02 6.000e+02 6.000e+02 6.000e+02 6.000e+02 6.000e+02
           </DataArray>
           <DataArray type="Float32" Name="nitrate/nutrientConcentrationAtTheRootSurface" NumberOfComponents="1" format="ascii">
 6.804e-01 5.699e-01 4.734e-01 3.068e-01 2.384e-01 1.635e-01 9.219e-02 0.000e+00 0.000e+00 6.804e-01 7.703e-01 8.448e-01 9.113e-01 9.750e-01 1.031e+00 1.065e+00 1.108e+00 1.174e+00 1.207e+00
           </DataArray>
           <DataArray type="Float32" Name="nitrate/optimalNutrientConcentration" NumberOfComponents="1" format="ascii">
 1.200e+03 1.200e+03 1.200e+03 1.200e+03 1.200e+03 1.200e+03 1.200e+03 1.200e+03 1.200e+03 1.200e+03 1.200e+03 1.200e+03 1.200e+03 1.200e+03 1.200e+03 1.200e+03 1.200e+03 1.200e+03 1.200e+03
           </DataArray>
           <DataArray type="Float32" Name="nitrate/rootSegmentMinimalNutrientContent" NumberOfComponents="1" format="ascii">
 5.421e+00 4.957e+00 8.309e+00 4.283e+00 4.276e+00 6.406e+00 6.111e+00 6.246e+00 3.970e+00 2.666e-01 2.641e-01 2.619e-01 2.600e-01 2.583e-01 2.569e-01 2.557e-01 2.549e-01 2.542e-01 2.538e-01
           </DataArray>
           <DataArray type="Float32" Name="nitrate/rootSegmentNutrientUptake" NumberOfComponents="1" format="ascii">
 0.000e+00 8.740e-01 7.396e-01 5.392e-01 4.285e-01 3.081e-01 1.215e-01 0.000e+00 0.000e+00 0.000e+00 9.457e-01 8.549e-01 7.628e-01 6.650e-01 5.424e-01 4.165e-01 3.001e-01 1.876e-01 7.501e-02
           </DataArray>
           <DataArray type="Float32" Name="nitrate/rootSegmentOptimalNutrientContent" NumberOfComponents="1" format="ascii">
 1.084e+01 9.915e+00 1.662e+01 8.565e+00 8.553e+00 1.281e+01 1.222e+01 1.249e+01 7.941e+00 5.331e-01 5.282e-01 5.238e-01 5.199e-01 5.166e-01 5.138e-01 5.115e-01 5.097e-01 5.084e-01 5.077e-01
           </DataArray>
           <DataArray type="Float32" Name="parentRootClassID" NumberOfComponents="1" format="ascii">
 -3.000e+00 -3.000e+00 -3.000e+00 -3.000e+00 -3.000e+00 -3.000e+00 -3.000e+00 -3.000e+00 -3.000e+00 -3.000e+00 -3.000e+00 -3.000e+00 -3.000e+00 -3.000e+00 -3.000e+00 -3.000e+00 -3.000e+00 -3.000e+00 -3.000e+00
           </DataArray>
           <DataArray type="Float32" Name="plantID" NumberOfComponents="1" format="ascii">
 4.000e+00 4.000e+00 4.000e+00 4.000e+00 4.000e+00 4.000e+00 4.000e+00 4.000e+00 4.000e+00 4.000e+00 4.000e+00 4.000e+00 4.000e+00 4.000e+00 4.000e+00 4.000e+00 4.000e+00 4.000e+00 4.000e+00
           </DataArray>
           <DataArray type="Float32" Name="plantTypeID" NumberOfComponents="1" format="ascii">
 0.000e+00 0.000e+00 0.000e+00 0.000e+00 0.000e+00 0.000e+00 0.000e+00 0.000e+00 0.000e+00 0.000e+00 0.000e+00 0.000e+00 0.000e+00 0.000e+00 0.000e+00 0.000e+00 0.000e+00 0.000e+00 0.000e+00
           </DataArray>
           <DataArray type="Float32" Name="rootCircumference" NumberOfComponents="1" format="ascii">
 1.269e+00 1.265e+00 1.263e+00 1.261e+00 1.260e+00 1.259e+00 1.258e+00 1.258e+00 1.257e+00 2.898e-01 2.885e-01 2.873e-01 2.862e-01 2.853e-01 2.845e-01 2.839e-01 2.834e-01 2.830e-01 2.828e-01
           </DataArray>
           <DataArray type="Float32" Name="rootClassID" NumberOfComponents="1" format="ascii">
 -2.000e+00 -2.000e+00 -2.000e+00 -2.000e+00 -2.000e+00 -2.000e+00 -2.000e+00 -2.000e+00 -2.000e+00 -4.000e+00 -4.000e+00 -4.000e+00 -4.000e+00 -4.000e+00 -4.000e+00 -4.000e+00 -4.000e+00 -4.000e+00 -4.000e+00
           </DataArray>
           <DataArray type="Float32" Name="rootDiameter" NumberOfComponents="1" format="ascii">
 4.039e-01 4.027e-01 4.021e-01 4.014e-01 4.011e-01 4.009e-01 4.005e-01 4.003e-01 4.001e-01 9.225e-02 9.182e-02 9.144e-02 9.110e-02 9.081e-02 9.056e-02 9.036e-02 9.020e-02 9.009e-02 9.002e-02
           </DataArray>
           <DataArray type="Float32" Name="rootHairDensity" NumberOfComponents="1" format="ascii">
 0.000e+00 0.000e+00 0.000e+00 0.000e+00 0.000e+00 0.000e+00 0.000e+00 0.000e+00 0.000e+00 2.000e+03 2.000e+03 2.000e+03 2.000e+03 2.000e+03 2.000e+03 2.000e+03 2.000e+03 2.000e+03 2.000e+03
           </DataArray>
           <DataArray type="Float32" Name="rootHairDiameter" NumberOfComponents="1" format="ascii">
 5.000e-04 5.000e-04 5.000e-04 5.000e-04 5.000e-04 5.000e-04 5.000e-04 5.000e-04 5.000e-04 5.000e-04 5.000e-04 5.000e-04 5.000e-04 5.000e-04 5.000e-04 5.000e-04 5.000e-04 5.000e-04 5.000e-04
           </DataArray>
           <DataArray type="Float32" Name="rootHairLength" NumberOfComponents="1" format="ascii">
 3.000e-02 3.000e-02 3.000e-02 2.400e-02 1.800e-02 1.200e-02 3.000e-03 0.000e+00 0.000e+00 3.000e-02 3.000e-02 3.000e-02 3.000e-02 2.400e-02 1.500e-02 6.000e-03 0.000e+00 0.000e+00 0.000e+00
           </DataArray>
           <DataArray type="Float32" Name="rootHairSurfaceArea" NumberOfComponents="1" format="ascii">
 0.000e+00 0.000e+00 0.000e+00 0.000e+00 0.000e+00 0.000e+00 0.000e+00 0.000e+00 0.000e+00 9.425e-02 9.425e-02 9.425e-02 9.425e-02 7.540e-02 4.712e-02 1.885e-02 0.000e+00 0.000e+00 0.000e+00
           </DataArray>
           <DataArray type="Float32" Name="rootLength2Base" NumberOfComponents="1" format="ascii">
 0.000e+00 7.500e-01 1.440e+00 2.600e+00 3.200e+00 3.800e+00 4.700e+00 5.560e+00 6.440e+00 0.000e+00 7.071e-01 1.414e+00 2.121e+00 2.828e+00 3.535e+00 4.243e+00 4.950e+00 5.657e+00 6.364e+00
           </DataArray>
           <DataArray type="Float32" Name="rootPotentialSecondaryGrowth" NumberOfComponents="1" format="ascii">
 4.039e-01 4.027e-01 4.021e-01 4.014e-01 4.011e-01 4.009e-01 4.005e-01 4.003e-01 4.001e-01 9.225e-02 9.182e-02 9.144e-02 9.110e-02 9.081e-02 9.056e-02 9.036e-02 9.020e-02 9.009e-02 9.002e-02
           </DataArray>
           <DataArray type="Float32" Name="rootSegmentAge" NumberOfComponents="1" format="ascii">
 3.000e+00 2.500e+00 2.200e+00 1.800e+00 1.600e+00 1.400e+00 1.100e+00 8.000e-01 4.000e-01 3.000e+00 2.700e+00 2.400e+00 2.100e+00 1.800e+00 1.500e+00 1.200e+00 9.000e-01 6.000e-01 3.000e-01
           </DataArray>
           <DataArray type="Float32" Name="rootSegmentCarbonCostOfExudates" NumberOfComponents="1" format="ascii">
 0.000e+00 0.000e+00 0.000e+00 0.000e+00 0.000e+00 0.000e+00 0.000e+00 0.000e+00 0.000e+00 3.343e-05 2.983e-05 2.646e-05 2.305e-05 1.987e-05 1.652e-05 1.317e-05 9.537e-06 5.904e-06 1.984e-06
           </DataArray>
           <DataArray type="Float32" Name="rootSegmentDryWeight" NumberOfComponents="1" format="ascii">
 9.035e-03 8.262e-03 1.385e-02 7.138e-03 7.127e-03 1.068e-02 1.019e-02 1.041e-02 6.617e-03 4.443e-04 4.401e-04 4.365e-04 4.333e-04 4.305e-04 4.281e-04 4.262e-04 4.248e-04 4.237e-04 4.231e-04
           </DataArray>
           <DataArray type="Float32" Name="rootSegmentLength" NumberOfComponents="1" format="ascii">
 7.500e-01 6.900e-01 1.160e+00 6.000e-01 6.000e-01 9.000e-01 8.600e-01 8.800e-01 5.600e-01 7.071e-01 7.071e-01 7.071e-01 7.071e-01 7.071e-01 7.071e-01 7.071e-01 7.071e-01 7.071e-01 7.071e-01
           </DataArray>
           <DataArray type="Float32" Name="rootSegmentLengthDuration" NumberOfComponents="1" format="ascii">
 2.045e+00 1.621e+00 2.315e+00 1.020e+00 9.000e-01 1.130e+00 8.247e-01 5.387e-01 1.227e-01 2.019e+00 1.807e+00 1.595e+00 1.383e+00 1.171e+00 9.585e-01 7.464e-01 5.343e-01 3.221e-01 1.139e-01
           </DataArray>
           <DataArray type="Float32" Name="rootSegmentRespiration" NumberOfComponents="1" format="ascii">
 3.614e-04 3.305e-04 5.539e-04 3.212e-04 3.564e-04 5.872e-04 6.366e-04 7.287e-04 5.294e-04 1.777e-05 1.761e-05 1.746e-05 1.733e-05 1.937e-05 2.248e-05 2.557e-05 2.867e-05 3.178e-05 3.490e-05
           </DataArray>
           <DataArray type="Float32" Name="rootSegmentSecondaryPotentialCarbonSinkForGrowth" NumberOfComponents="1" format="ascii">
 6.642e-05 4.452e-05 5.427e-05 2.022e-05 1.574e-05 1.645e-05 9.113e-06 3.846e-06 3.721e-07 8.705e-06 6.954e-06 5.404e-06 4.053e-06 2.900e-06 1.941e-06 1.176e-06 6.033e-07 2.221e-07 3.172e-08
           </DataArray>
           <DataArray type="Float32" Name="rootSegmentSurfaceArea" NumberOfComponents="1" format="ascii">
 9.518e-01 8.730e-01 1.465e+00 7.567e-01 7.561e-01 1.133e+00 1.082e+00 1.107e+00 7.038e-01 2.049e-01 2.040e-01 2.031e-01 2.024e-01 2.017e-01 2.012e-01 2.007e-01 2.004e-01 2.001e-01 2.000e-01
           </DataArray>
           <DataArray type="Float32" Name="rootSegmentVolume" NumberOfComponents="1" format="ascii">
 9.611e-02 8.790e-02 1.473e-01 7.593e-02 7.582e-02 1.136e-01 1.084e-01 1.107e-01 7.040e-02 4.726e-03 4.682e-03 4.643e-03 4.609e-03 4.580e-03 4.555e-03 4.534e-03 4.519e-03 4.507e-03 4.501e-03
           </DataArray>
           <DataArray type="Float32" Name="rootSegmentWaterUptake" NumberOfComponents="1" format="ascii">
 4.431e-03 4.077e-03 6.853e-03 3.545e-03 3.545e-03 5.317e-03 5.065e-03 0.000e+00 0.000e+00 4.178e-03 4.178e-03 4.178e-03 4.178e-03 4.178e-03 4.178e-03 4.178e-03 4.038e-03 3.351e-03 1.437e-03
           </DataArray>
           <DataArray type="Float32" Name="spatialRootDensity" NumberOfComponents="1" format="ascii">
 3.376e-01 1.688e-01 0.000e+00 0.000e+00 0.000e+00 0.000e+00 0.000e+00 0.000e+00 0.000e+00 3.438e-01 1.790e-01 0.000e+00 0.000e+00 0.000e+00 0.000e+00 0.000e+00 0.000e+00 0.000e+00 0.000e+00
           </DataArray>
           <DataArray type="Float32" Name="volumetricWaterContentAtTheRootSurface" NumberOfComponents="1" format="ascii">
 2.034e-01 2.035e-01 2.036e-01 2.038e-01 2.039e-01 2.041e-01 2.042e-01 0.000e+00 0.000e+00 2.034e-01 2.033e-01 2.031e-01 2.030e-01 2.029e-01 2.028e-01 2.027e-01 2.025e-01 2.024e-01 2.023e-01
           </DataArray>
         </CellData>
      </Piece>
   </UnstructuredGrid>
</VTKFile>
