<?xml version="1.0"?>
<VTKFile type="UnstructuredGrid" version="0.1" byte_order="LittleEndian">
   <UnstructuredGrid>
      <Piece NumberOfPoints="13700" NumberOfCells="959">
         <Points>
            <DataArray type="Float32" Name="Position" NumberOfComponents="3" format="ascii">
-0.120	-5.040	0.097
-0.123	-5.031	0.098
-0.123	-5.023	0.094
-0.121	-5.018	0.087
-0.117	-5.018	0.079
-0.112	-5.024	0.073
-0.109	-5.032	0.072
-0.109	-5.041	0.075
-0.111	-5.046	0.083
-0.115	-5.045	0.091
-0.883	-5.260	-0.298
-0.887	-5.251	-0.295
-0.888	-5.243	-0.298
-0.887	-5.237	-0.305
-0.883	-5.236	-0.314
-0.879	-5.241	-0.321
-0.875	-5.249	-0.323
-0.874	-5.258	-0.320
-0.875	-5.263	-0.313
-0.879	-5.264	-0.304
-1.582	-5.497	-0.578
-1.578	-5.497	-0.570
-1.579	-5.497	-0.561
-1.586	-5.497	-0.554
-1.595	-5.497	-0.553
-1.603	-5.497	-0.557
-1.607	-5.497	-0.565
-1.606	-5.497	-0.574
-1.599	-5.497	-0.581
-1.590	-5.497	-0.582
-0.241	-5.091	0.171
-0.239	-5.082	0.169
-0.234	-5.077	0.163
-0.227	-5.078	0.157
-0.222	-5.083	0.152
-0.219	-5.092	0.151
-0.222	-5.101	0.154
-0.227	-5.106	0.159
-0.234	-5.105	0.166
-0.239	-5.100	0.170
-0.843	-5.151	-0.477
-0.840	-5.143	-0.480
-0.833	-5.139	-0.486
-0.826	-5.141	-0.491
-0.821	-5.148	-0.495
-0.820	-5.157	-0.495
-0.823	-5.165	-0.492
-0.830	-5.169	-0.487
-0.837	-5.167	-0.481
-0.842	-5.161	-0.478
-1.202	-5.168	-1.060
-1.198	-5.160	-1.063
-1.190	-5.158	-1.068
-1.183	-5.161	-1.072
-1.178	-5.168	-1.075
-1.178	-5.177	-1.075
-1.183	-5.185	-1.072
-1.190	-5.188	-1.067
-1.198	-5.185	-1.062
-1.202	-5.177	-1.060
-1.121	-5.885	0.748
-1.115	-5.883	0.755
-1.113	-5.885	0.764
-1.115	-5.890	0.771
-1.121	-5.896	0.774
-1.129	-5.901	0.772
-1.135	-5.903	0.765
-1.137	-5.901	0.756
-1.134	-5.896	0.749
-1.128	-5.890	0.746
-0.596	-6.527	0.484
-0.590	-6.524	0.491
-0.588	-6.526	0.500
-0.590	-6.531	0.507
-0.596	-6.538	0.510
-0.604	-6.543	0.508
-0.609	-6.545	0.501
-0.612	-6.543	0.492
-0.609	-6.538	0.485
-0.603	-6.532	0.482
-0.410	-6.758	0.415
-0.410	-6.749	0.419
-0.410	-6.740	0.418
-0.410	-6.734	0.411
-0.410	-6.732	0.402
-0.410	-6.736	0.394
-0.410	-6.745	0.390
-0.410	-6.754	0.391
-0.410	-6.760	0.398
-0.410	-6.762	0.407
-1.209	-6.013	0.820
-1.206	-6.006	0.825
-1.206	-5.997	0.825
-1.210	-5.989	0.821
-1.215	-5.986	0.814
-1.220	-5.989	0.806
-1.222	-5.996	0.802
-1.222	-6.005	0.801
-1.218	-6.013	0.805
-1.213	-6.016	0.812
-1.937	-6.076	1.317
-1.935	-6.069	1.322
-1.936	-6.059	1.323
-1.939	-6.052	1.319
-1.944	-6.049	1.312
-1.948	-6.052	1.304
-1.950	-6.059	1.299
-1.949	-6.068	1.298
-1.946	-6.076	1.302
-1.941	-6.079	1.309
-2.386	-6.157	1.538
-2.385	-6.149	1.544
-2.386	-6.140	1.545
-2.389	-6.133	1.541
-2.394	-6.130	1.533
-2.397	-6.132	1.525
-2.399	-6.139	1.519
-2.398	-6.149	1.518
-2.394	-6.156	1.523
-2.390	-6.159	1.530
-1.297	-6.103	0.854
-1.291	-6.102	0.861
-1.289	-6.103	0.870
-1.293	-6.107	0.878
-1.300	-6.112	0.881
-1.308	-6.116	0.879
-1.314	-6.118	0.872
-1.315	-6.116	0.863
-1.312	-6.112	0.855
-1.305	-6.107	0.852
-0.881	-6.848	0.661
-0.876	-6.846	0.668
-0.875	-6.847	0.677
-0.879	-6.851	0.685
-0.887	-6.855	0.688
-0.895	-6.859	0.685
-0.900	-6.860	0.678
-0.901	-6.859	0.669
-0.897	-6.856	0.661
-0.889	-6.852	0.658
-0.750	-7.136	0.654
-0.745	-7.134	0.661
-0.745	-7.135	0.670
-0.750	-7.137	0.678
-0.758	-7.141	0.681
-0.766	-7.144	0.678
-0.771	-7.146	0.670
-0.771	-7.146	0.661
-0.766	-7.144	0.653
-0.758	-7.140	0.651
-1.382	-6.214	0.909
-1.376	-6.213	0.916
-1.375	-6.215	0.925
-1.379	-6.218	0.933
-1.387	-6.222	0.936
-1.396	-6.225	0.933
-1.402	-6.226	0.926
-1.403	-6.224	0.917
-1.399	-6.220	0.910
-1.391	-6.217	0.907
-1.061	-7.020	0.718
-1.056	-7.019	0.725
-1.056	-7.019	0.734
-1.061	-7.022	0.742
-1.069	-7.025	0.745
-1.078	-7.027	0.742
-1.083	-7.028	0.734
-1.083	-7.027	0.725
-1.078	-7.025	0.717
-1.070	-7.022	0.715
-1.003	-7.261	0.727
-0.998	-7.260	0.735
-0.999	-7.260	0.745
-1.005	-7.261	0.752
-1.014	-7.263	0.754
-1.022	-7.265	0.750
-1.027	-7.266	0.742
-1.026	-7.266	0.733
-1.020	-7.265	0.726
-1.011	-7.263	0.724
-1.462	-6.340	0.964
-1.460	-6.331	0.965
-1.464	-6.322	0.967
-1.471	-6.318	0.971
-1.480	-6.320	0.974
-1.486	-6.327	0.975
-1.488	-6.336	0.975
-1.484	-6.344	0.972
-1.477	-6.348	0.969
-1.468	-6.346	0.966
-1.139	-6.445	1.781
-1.139	-6.436	1.782
-1.143	-6.429	1.786
-1.150	-6.426	1.790
-1.158	-6.428	1.794
-1.164	-6.436	1.796
-1.164	-6.445	1.795
-1.160	-6.452	1.792
-1.153	-6.455	1.787
-1.145	-6.453	1.783
-0.882	-6.489	2.133
-0.882	-6.480	2.135
-0.887	-6.474	2.139
-0.894	-6.472	2.145
-0.901	-6.476	2.149
-0.905	-6.484	2.151
-0.905	-6.493	2.150
-0.900	-6.500	2.145
-0.893	-6.501	2.140
-0.886	-6.498	2.135
-1.553	-6.441	1.004
-1.547	-6.440	1.010
-1.544	-6.442	1.019
-1.547	-6.447	1.026
-1.553	-6.453	1.030
-1.562	-6.457	1.028
-1.568	-6.458	1.021
-1.570	-6.456	1.012
-1.568	-6.451	1.005
-1.561	-6.445	1.002
-1.124	-7.151	0.695
-1.117	-7.150	0.702
-1.114	-7.152	0.710
-1.116	-7.158	0.717
-1.122	-7.164	0.721
-1.130	-7.168	0.719
-1.137	-7.170	0.713
-1.140	-7.167	0.704
-1.138	-7.161	0.697
-1.132	-7.155	0.694
-0.932	-7.387	0.527
-0.925	-7.386	0.533
-0.922	-7.389	0.541
-0.923	-7.395	0.548
-0.928	-7.401	0.551
-0.936	-7.406	0.549
-0.943	-7.408	0.543
-0.947	-7.405	0.535
-0.945	-7.399	0.528
-0.940	-7.392	0.525
-1.632	-6.562	1.045
-1.627	-6.559	1.052
-1.626	-6.560	1.061
-1.628	-6.565	1.069
-1.634	-6.572	1.072
-1.640	-6.578	1.069
-1.645	-6.581	1.062
-1.646	-6.580	1.052
-1.644	-6.575	1.045
-1.638	-6.568	1.042
-1.024	-7.129	0.888
-1.020	-7.126	0.895
-1.019	-7.126	0.904
-1.023	-7.130	0.912
-1.029	-7.136	0.915
-1.035	-7.142	0.912
-1.040	-7.146	0.905
-1.040	-7.146	0.896
-1.037	-7.142	0.888
-1.030	-7.135	0.885
-0.987	-7.169	0.893
-0.984	-7.165	0.900
-0.984	-7.164	0.909
-0.988	-7.167	0.917
-0.995	-7.173	0.920
-1.001	-7.179	0.917
-1.005	-7.183	0.910
-1.004	-7.184	0.900
-1.000	-7.181	0.893
-0.993	-7.175	0.890
-1.699	-6.703	1.091
-1.696	-6.695	1.093
-1.698	-6.686	1.095
-1.705	-6.681	1.097
-1.715	-6.680	1.097
-1.722	-6.686	1.097
-1.725	-6.694	1.095
-1.723	-6.703	1.093
-1.716	-6.708	1.091
-1.706	-6.708	1.091
-1.619	-6.884	1.922
-1.616	-6.875	1.923
-1.618	-6.867	1.924
-1.625	-6.861	1.926
-1.634	-6.860	1.927
-1.642	-6.865	1.926
-1.646	-6.874	1.925
-1.643	-6.883	1.924
-1.636	-6.888	1.923
-1.627	-6.889	1.922
-1.614	-6.891	2.038
-1.610	-6.883	2.038
-1.612	-6.874	2.039
-1.619	-6.868	2.039
-1.628	-6.867	2.040
-1.636	-6.871	2.040
-1.640	-6.880	2.040
-1.638	-6.889	2.039
-1.631	-6.895	2.038
-1.622	-6.896	2.038
-1.775	-6.835	1.134
-1.772	-6.827	1.139
-1.773	-6.818	1.139
-1.776	-6.811	1.135
-1.782	-6.808	1.128
-1.787	-6.810	1.121
-1.790	-6.818	1.116
-1.790	-6.827	1.116
-1.786	-6.834	1.120
-1.780	-6.837	1.127
-2.407	-6.880	1.618
-2.404	-6.872	1.623
-2.404	-6.863	1.623
-2.408	-6.855	1.619
-2.413	-6.852	1.613
-2.419	-6.855	1.605
-2.422	-6.863	1.601
-2.421	-6.872	1.600
-2.418	-6.879	1.604
-2.412	-6.882	1.611
-1.838	-6.957	1.157
-1.836	-6.948	1.159
-1.839	-6.940	1.162
-1.847	-6.937	1.166
-1.856	-6.938	1.169
-1.862	-6.945	1.169
-1.864	-6.954	1.167
-1.861	-6.961	1.163
-1.853	-6.965	1.160
-1.845	-6.963	1.157
-1.563	-7.208	1.962
-1.561	-7.199	1.964
-1.565	-7.191	1.968
-1.572	-7.188	1.972
-1.581	-7.189	1.974
-1.588	-7.196	1.974
-1.589	-7.205	1.972
-1.586	-7.212	1.968
-1.578	-7.216	1.964
-1.570	-7.214	1.962
-1.493	-7.271	2.140
-1.491	-7.262	2.143
-1.495	-7.254	2.147
-1.502	-7.251	2.151
-1.511	-7.253	2.153
-1.517	-7.260	2.154
-1.519	-7.268	2.151
-1.515	-7.276	2.147
-1.508	-7.279	2.143
-1.499	-7.277	2.140
-0.330	-5.160	0.226
-0.325	-5.157	0.234
-0.326	-5.156	0.243
-0.333	-5.157	0.250
-0.341	-5.160	0.252
-0.349	-5.162	0.248
-0.354	-5.165	0.241
-0.353	-5.166	0.231
-0.346	-5.165	0.224
-0.338	-5.162	0.222
-0.093	-5.978	0.330
-0.089	-5.976	0.338
-0.090	-5.975	0.347
-0.096	-5.976	0.354
-0.105	-5.978	0.356
-0.113	-5.981	0.353
-0.117	-5.983	0.345
-0.116	-5.984	0.336
-0.110	-5.983	0.329
-0.101	-5.981	0.327
-0.003	-6.361	0.396
-0.003	-6.353	0.400
-0.003	-6.344	0.399
-0.003	-6.337	0.392
-0.003	-6.335	0.383
-0.003	-6.340	0.375
-0.003	-6.348	0.371
-0.003	-6.357	0.372
-0.003	-6.364	0.379
-0.003	-6.365	0.388
-1.907	-7.083	1.190
-1.907	-7.074	1.191
-1.912	-7.067	1.195
-1.919	-7.064	1.201
-1.926	-7.068	1.205
-1.931	-7.076	1.207
-1.930	-7.085	1.206
-1.926	-7.092	1.203
-1.918	-7.094	1.197
-1.911	-7.091	1.193
-1.423	-7.146	1.900
-1.423	-7.137	1.903
-1.428	-7.131	1.908
-1.435	-7.130	1.914
-1.442	-7.135	1.919
-1.445	-7.143	1.920
-1.444	-7.152	1.918
-1.439	-7.159	1.913
-1.432	-7.159	1.907
-1.426	-7.155	1.902
-1.381	-7.152	1.939
-1.382	-7.143	1.942
-1.387	-7.138	1.948
-1.393	-7.139	1.955
-1.399	-7.145	1.960
-1.401	-7.154	1.961
-1.400	-7.162	1.957
-1.395	-7.167	1.951
-1.389	-7.167	1.944
-1.383	-7.161	1.940
-1.968	-7.215	1.231
-1.967	-7.206	1.233
-1.971	-7.199	1.238
-1.978	-7.196	1.242
-1.986	-7.199	1.245
-1.992	-7.206	1.246
-1.994	-7.214	1.243
-1.990	-7.222	1.239
-1.983	-7.225	1.234
-1.974	-7.222	1.231
-1.624	-7.475	1.955
-1.623	-7.466	1.958
-1.627	-7.460	1.963
-1.634	-7.457	1.968
-1.642	-7.461	1.972
-1.648	-7.468	1.972
-1.649	-7.477	1.969
-1.645	-7.484	1.964
-1.638	-7.486	1.959
-1.630	-7.483	1.956
-1.592	-7.493	2.000
-1.592	-7.485	2.003
-1.596	-7.478	2.009
-1.603	-7.477	2.015
-1.611	-7.481	2.018
-1.616	-7.488	2.018
-1.616	-7.497	2.015
-1.612	-7.503	2.010
-1.605	-7.505	2.004
-1.598	-7.501	2.000
-2.029	-7.348	1.272
-2.027	-7.338	1.272
-2.031	-7.330	1.274
-2.039	-7.327	1.278
-2.047	-7.329	1.282
-2.053	-7.336	1.284
-2.054	-7.345	1.284
-2.050	-7.353	1.281
-2.043	-7.357	1.277
-2.034	-7.355	1.274
-1.666	-7.410	2.040
-1.664	-7.401	2.040
-1.668	-7.393	2.043
-1.676	-7.389	2.047
-1.684	-7.391	2.050
-1.690	-7.398	2.053
-1.691	-7.408	2.053
-1.687	-7.416	2.050
-1.680	-7.419	2.046
-1.671	-7.417	2.042
-1.609	-7.417	2.158
-1.608	-7.408	2.158
-1.612	-7.400	2.160
-1.620	-7.396	2.164
-1.628	-7.398	2.168
-1.634	-7.405	2.170
-1.635	-7.414	2.170
-1.631	-7.422	2.168
-1.623	-7.426	2.164
-1.615	-7.424	2.160
-2.091	-7.469	1.300
-2.086	-7.466	1.307
-2.084	-7.467	1.316
-2.087	-7.472	1.324
-2.092	-7.480	1.327
-2.098	-7.486	1.324
-2.103	-7.489	1.317
-2.105	-7.487	1.308
-2.103	-7.482	1.300
-2.097	-7.475	1.298
-1.457	-8.025	1.099
-1.452	-8.021	1.106
-1.451	-8.022	1.115
[...]
         <CellData>
           <DataArray type="Float32" Name="combinedRootClassID" NumberOfComponents="1" format="ascii">
 -1.300e+01 -1.300e+01 -1.300e+01 -1.300e+01 -1.300e+01 -1.300e+01 -1.300e+01 -1.300e+01 -1.300e+01 -1.300e+01 -1.300e+01 -1.300e+01 -1.300e+01 -1.300e+01 -1.300e+01 -1.300e+01 -1.300e+01 -1.300e+01 -1.300e+01 -1.300e+01 -1.300e+01 -1.300e+01 -1.300e+01 -1.300e+01 -1.300e+01 -1.300e+01 -1.300e+01 -1.300e+01 -1.300e+01 -1.300e+01 -1.300e+01 -1.300e+01 -1.300e+01 -1.300e+01 -1.300e+01 -1.300e+01 -1.300e+01 -1.300e+01 -1.300e+01 -1.300e+01 -1.300e+01 -1.300e+01 -1.300e+01 -1.300e+01 -1.300e+01 -1.300e+01 -1.300e+01 -1.300e+01 -1.300e+01 -1.300e+01 -1.300e+01 -1.300e+01 -1.300e+01 -1.300e+01 -1.300e+01 -1.300e+01 -1.300e+01 -1.300e+01 -1.300e+01 -1.300e+01 -1.300e+01 -1.300e+01 -1.300e+01 -1.300e+01 -1.300e+01 -1.300e+01 -1.300e+01 -1.300e+01 -1.300e+01 -1.300e+01 -1.300e+01 -1.300e+01 -1.300e+01 -1.300e+01 -1.300e+01 -1.300e+01 -1.300e+01 -1.300e+01 -1.300e+01 -1.300e+01 -1.300e+01 -1.300e+01 -1.300e+01 -1.300e+01 -1.300e+01 -1.300e+01 -1.300e+01 -1.300e+01 -5.000e+00 -5.000e+00 -5.000e+00 -5.000e+00 -5.000e+00 -5.000e+00 -5.000e+00 -5.000e+00 -5.000e+00 -5.000e+00 -5.000e+00 -5.000e+00 -5.000e+00 -5.000e+00 -5.000e+00 -5.000e+00 -5.000e+00 -5.000e+00 -5.000e+00 -5.000e+00 -5.000e+00 -5.000e+00 -5.000e+00 -1.300e+01 -1.300e+01 -1.300e+01 -1.300e+01 -1.300e+01 -1.300e+01 -1.300e+01 -1.300e+01 -1.300e+01 -1.300e+01 -1.300e+01 -1.300e+01 -1.300e+01 -1.300e+01 -1.300e+01 -1.300e+01 -1.300e+01 -1.300e+01 -1.300e+01 -1.300e+01 -1.300e+01 -1.300e+01 -1.300e+01 -1.300e+01 -1.300e+01 -1.300e+01 -1.300e+01 -1.300e+01 -1.300e+01 -1.300e+01 -1.300e+01 -1.300e+01 -1.300e+01 -1.300e+01 -1.300e+01 -1.300e+01 -1.300e+01 -1.300e+01 -1.300e+01 -1.300e+01 -1.300e+01 -1.300e+01 -1.300e+01 -1.300e+01 -1.300e+01 -1.300e+01 -1.300e+01 -1.300e+01 -1.300e+01 -1.300e+01 -1.300e+01 -1.300e+01 -1.300e+01 -1.300e+01 -1.300e+01 -1.300e+01 -1.300e+01 -1.300e+01 -1.300e+01 -1.300e+01 -1.300e+01 -1.300e+01 -1.300e+01 -1.300e+01 -1.300e+01 -1.300e+01 -1.300e+01 -1.300e+01 -1.300e+01 -1.300e+01 -1.300e+01 -1.300e+01 -1.300e+01 -1.300e+01 -1.300e+01 -1.300e+01 -1.300e+01 -1.300e+01 -1.300e+01 -1.300e+01 -1.300e+01 -1.300e+01 -1.300e+01 -1.300e+01 -1.300e+01 -1.300e+01 -1.300e+01 -5.000e+00 -5.000e+00 -5.000e+00 -5.000e+00 -5.000e+00 -5.000e+00 -5.000e+00 -5.000e+00 -5.000e+00 -5.000e+00 -5.000e+00 -5.000e+00 -5.000e+00 -5.000e+00 -5.000e+00 -5.000e+00 -5.000e+00 -5.000e+00 -5.000e+00 -5.000e+00 -5.000e+00 -5.000e+00 -5.000e+00 -1.300e+01 -1.300e+01 -1.300e+01 -1.300e+01 -1.300e+01 -1.300e+01 -1.300e+01 -1.300e+01 -1.300e+01 -1.300e+01 -1.300e+01 -1.300e+01 -1.300e+01 -1.300e+01 -1.300e+01 -1.300e+01 -1.300e+01 -1.300e+01 -1.300e+01 -1.300e+01 -1.300e+01 -1.300e+01 -1.300e+01 -1.300e+01 -1.300e+01 -1.300e+01 -1.300e+01 -1.300e+01 -1.300e+01 -1.300e+01 -1.300e+01 -1.300e+01 -1.300e+01 -1.300e+01 -1.300e+01 -1.300e+01 -1.300e+01 -1.300e+01 -1.300e+01 -1.300e+01 -1.300e+01 -1.300e+01 -1.300e+01 -1.300e+01 -1.300e+01 -1.300e+01 -1.300e+01 -1.300e+01 -1.300e+01 -1.300e+01 -1.300e+01 -1.300e+01 -1.300e+01 -1.300e+01 -1.300e+01 -1.300e+01 -1.300e+01 -1.300e+01 -1.300e+01 -1.300e+01 -1.300e+01 -1.300e+01 -1.300e+01 -1.300e+01 -1.300e+01 -1.300e+01 -1.300e+01 -1.300e+01 -1.300e+01 -1.300e+01 -1.300e+01 -1.300e+01 -1.300e+01 -1.300e+01 -1.300e+01 -1.300e+01 -1.300e+01 -1.300e+01 -1.300e+01 -1.300e+01 -1.300e+01 -1.300e+01 -1.300e+01 -1.300e+01 -1.300e+01 -1.300e+01 -1.300e+01 -1.300e+01 -5.000e+00 -5.000e+00 -5.000e+00 -5.000e+00 -5.000e+00 -5.000e+00 -5.000e+00 -5.000e+00 -5.000e+00 -5.000e+00 -5.000e+00 -5.000e+00 -5.000e+00 -5.000e+00 -5.000e+00 -5.000e+00 -5.000e+00 -5.000e+00 -5.000e+00 -5.000e+00 -5.000e+00 -5.000e+00 -5.000e+00 -1.300e+01 -1.300e+01 -1.300e+01 -1.300e+01 -1.300e+01 -1.300e+01 -1.300e+01 -1.300e+01 -1.300e+01 -1.300e+01 -1.300e+01 -1.300e+01 -1.300e+01 -1.300e+01 -1.300e+01 -1.300e+01 -1.300e+01 -1.300e+01 -1.300e+01 -1.300e+01 -1.300e+01 -1.300e+01 -1.300e+01 -1.300e+01 -1.300e+01 -1.300e+01 -1.300e+01 -1.300e+01 -1.300e+01 -1.300e+01 -1.300e+01 -1.300e+01 -1.300e+01 -1.300e+01 -1.300e+01 -1.300e+01 -1.300e+01 -1.300e+01 -1.300e+01 -1.300e+01 -1.300e+01 -1.300e+01 -1.300e+01 -1.300e+01 -1.300e+01 -1.300e+01 -1.300e+01 -1.300e+01 -1.300e+01 -1.300e+01 -1.300e+01 -1.300e+01 -1.300e+01 -1.300e+01 -1.300e+01 -1.300e+01 -1.300e+01 -1.300e+01 -1.300e+01 -1.300e+01 -1.300e+01 -1.300e+01 -1.300e+01 -1.300e+01 -1.300e+01 -1.300e+01 -1.300e+01 -1.300e+01 -1.300e+01 -1.300e+01 -1.300e+01 -1.300e+01 -1.300e+01 -1.300e+01 -1.300e+01 -1.300e+01 -1.300e+01 -1.300e+01 -1.300e+01 -1.300e+01 -1.300e+01 -1.300e+01 -1.300e+01 -1.300e+01 -1.300e+01 -1.300e+01 -5.000e+00 -5.000e+00 -5.000e+00 -5.000e+00 -5.000e+00 -5.000e+00 -5.000e+00 -5.000e+00 -5.000e+00 -5.000e+00 -5.000e+00 -5.000e+00 -5.000e+00 -5.000e+00 -5.000e+00 -5.000e+00 -5.000e+00 -5.000e+00 -5.000e+00 -5.000e+00 -5.000e+00 -5.000e+00 -5.000e+00 -1.100e+01 -1.100e+01 -1.100e+01 -1.100e+01 -1.100e+01 -1.100e+01 -1.100e+01 -1.100e+01 -1.100e+01 -1.100e+01 -1.100e+01 -1.100e+01 -1.100e+01 -1.100e+01 -1.100e+01 -1.100e+01 -1.100e+01 -1.100e+01 -1.100e+01 -1.100e+01 -1.100e+01 -1.100e+01 -1.100e+01 -1.100e+01 -1.100e+01 -1.100e+01 -1.100e+01 -1.100e+01 -1.100e+01 -1.100e+01 -1.100e+01 -1.100e+01 -1.100e+01 -1.100e+01 -1.100e+01 -1.100e+01 -1.100e+01 -1.100e+01 -1.100e+01 -1.100e+01 -1.100e+01 -1.100e+01 -1.100e+01 -1.100e+01 -1.100e+01 -1.100e+01 -1.100e+01 -1.100e+01 -2.000e+00 -2.000e+00 -2.000e+00 -2.000e+00 -2.000e+00 -2.000e+00 -2.000e+00 -2.000e+00 -2.000e+00 -2.000e+00 -7.000e+00 -7.000e+00 -7.000e+00 -7.000e+00 -7.000e+00 -1.500e+01 -7.000e+00 -7.000e+00 -7.000e+00 -7.000e+00 -7.000e+00 -7.000e+00 -1.500e+01 -7.000e+00 -7.000e+00 -7.000e+00 -7.000e+00 -7.000e+00 -7.000e+00 -7.000e+00 -7.000e+00 -7.000e+00 -7.000e+00 -7.000e+00 -7.000e+00 -7.000e+00 -7.000e+00 -7.000e+00 -7.000e+00 -7.000e+00 -7.000e+00 -7.000e+00 -7.000e+00 -7.000e+00 -7.000e+00 -7.000e+00 -7.000e+00 -7.000e+00 -7.000e+00 -7.000e+00 -7.000e+00 -7.000e+00 -7.000e+00 -7.000e+00 -7.000e+00 -7.000e+00 -7.000e+00 -7.000e+00 -7.000e+00 -7.000e+00 -7.000e+00 -7.000e+00 -7.000e+00 -7.000e+00 -7.000e+00 -7.000e+00 -7.000e+00 -7.000e+00 -7.000e+00 -7.000e+00 -7.000e+00 -7.000e+00 -7.000e+00 -7.000e+00 -7.000e+00 -7.000e+00 -7.000e+00 -7.000e+00 -7.000e+00 -7.000e+00 -7.000e+00 -7.000e+00 -7.000e+00 -7.000e+00 -7.000e+00 -7.000e+00 -7.000e+00 -7.000e+00 -7.000e+00 -7.000e+00 -7.000e+00 -7.000e+00 -7.000e+00 -7.000e+00 -7.000e+00 -7.000e+00 -7.000e+00 -7.000e+00 -7.000e+00 -7.000e+00 -7.000e+00 -7.000e+00 -7.000e+00 -7.000e+00 -7.000e+00 -7.000e+00 -7.000e+00 -7.000e+00 -7.000e+00 -7.000e+00 -7.000e+00 -7.000e+00 -1.500e+01 -7.000e+00 -7.000e+00 -7.000e+00 -7.000e+00 -7.000e+00 -7.000e+00 -7.000e+00 -7.000e+00 -7.000e+00 -7.000e+00 -7.000e+00 -7.000e+00 -7.000e+00 -7.000e+00 -7.000e+00 -7.000e+00 -7.000e+00 -7.000e+00 -7.000e+00 -7.000e+00 -7.000e+00 -7.000e+00 -7.000e+00 -7.000e+00 -7.000e+00 -7.000e+00 -7.000e+00 -7.000e+00 -7.000e+00 -7.000e+00 -7.000e+00 -7.000e+00 -7.000e+00 -7.000e+00 -7.000e+00 -7.000e+00 -7.000e+00 -7.000e+00 -7.000e+00 -7.000e+00 -7.000e+00 -7.000e+00 -7.000e+00 -7.000e+00 -7.000e+00 -7.000e+00 -7.000e+00 -7.000e+00 -7.000e+00 -7.000e+00 -7.000e+00 -7.000e+00 -7.000e+00 -7.000e+00 -7.000e+00 -7.000e+00 -7.000e+00 -7.000e+00 -7.000e+00 -7.000e+00 -7.000e+00 -7.000e+00 -7.000e+00 -7.000e+00 -7.000e+00 -7.000e+00 -7.000e+00 -7.000e+00 -7.000e+00 -7.000e+00 -7.000e+00 -7.000e+00 -7.000e+00 -7.000e+00 -7.000e+00 -7.000e+00 -7.000e+00 -7.000e+00 -7.000e+00 -7.000e+00 -7.000e+00 -7.000e+00 -7.000e+00 -7.000e+00 -7.000e+00 -7.000e+00 -7.000e+00 -7.000e+00 -7.000e+00 -7.000e+00 -7.000e+00 -7.000e+00 -7.000e+00 -7.000e+00 -7.000e+00 -7.000e+00 -7.000e+00 -7.000e+00 -7.000e+00 -7.000e+00 -7.000e+00 -7.000e+00 -7.000e+00 -7.000e+00 -7.000e+00 -7.000e+00 -7.000e+00 -7.000e+00 -7.000e+00 -7.000e+00 -7.000e+00 -7.000e+00 -7.000e+00 -7.000e+00 -7.000e+00 -7.000e+00 -7.000e+00 -7.000e+00 -7.000e+00 -7.000e+00 -7.000e+00 -7.000e+00 -7.000e+00 -7.000e+00 -7.000e+00 -7.000e+00 -7.000e+00 -7.000e+00 -7.000e+00 -7.000e+00 -7.000e+00 -7.000e+00 -7.000e+00 -7.000e+00 -7.000e+00 -7.000e+00 -7.000e+00 -7.000e+00 -7.000e+00 -7.000e+00 -7.000e+00 -7.000e+00 -7.000e+00 -7.000e+00 -7.000e+00 -7.000e+00 -7.000e+00 -7.000e+00 -7.000e+00 -7.000e+00 -7.000e+00 -7.000e+00 -7.000e+00 -7.000e+00 -7.000e+00 -7.000e+00 -7.000e+00 -7.000e+00 -7.000e+00 -7.000e+00 -7.000e+00 -7.000e+00 -7.000e+00 -7.000e+00 -7.000e+00 -7.000e+00 -7.000e+00 -7.000e+00 -7.000e+00 -7.000e+00 -7.000e+00 -7.000e+00 -7.000e+00 -7.000e+00 -7.000e+00 -7.000e+00 -7.000e+00 -7.000e+00 -7.000e+00 -7.000e+00 -7.000e+00 -7.000e+00 -7.000e+00 -7.000e+00 -7.000e+00 -7.000e+00 -7.000e+00 -7.000e+00 -7.000e+00 -7.000e+00 -7.000e+00 -7.000e+00 -7.000e+00 -7.000e+00 -7.000e+00 -7.000e+00 -7.000e+00 -7.000e+00 -7.000e+00 -7.000e+00 -7.000e+00 -7.000e+00 -7.000e+00 -7.000e+00 -7.000e+00 -7.000e+00 -7.000e+00 -7.000e+00 -7.000e+00 -7.000e+00 -7.000e+00 -7.000e+00 -7.000e+00 -1.500e+01 -7.000e+00 -7.000e+00 -7.000e+00 -7.000e+00 -7.000e+00 -7.000e+00 -7.000e+00 -7.000e+00 -7.000e+00 -7.000e+00 -7.000e+00 -7.000e+00 -7.000e+00 -7.000e+00 -7.000e+00 -7.000e+00 -7.000e+00 -7.000e+00 -7.000e+00 -7.000e+00 -7.000e+00 -7.000e+00 -7.000e+00 -7.000e+00 -7.000e+00 -7.000e+00 -7.000e+00 -7.000e+00 -7.000e+00 -7.000e+00 -7.000e+00 -1.500e+01 -7.000e+00 -7.000e+00 -7.000e+00 -7.000e+00 -7.000e+00 -7.000e+00 -7.000e+00 -7.000e+00 -7.000e+00 -7.000e+00 -7.000e+00 -7.000e+00 -7.000e+00 -7.000e+00 -7.000e+00 -7.000e+00 -7.000e+00 -7.000e+00 -7.000e+00 -7.000e+00 -7.000e+00 -7.000e+00 -7.000e+00 -7.000e+00 -7.000e+00 -7.000e+00 -7.000e+00 -7.000e+00 -7.000e+00 -7.000e+00 -7.000e+00 -7.000e+00 -7.000e+00 -7.000e+00 -7.000e+00 -7.000e+00 -7.000e+00 -7.000e+00 -7.000e+00 -7.000e+00 -7.000e+00 -7.000e+00 -7.000e+00 -7.000e+00 -7.000e+00 -7.000e+00 -7.000e+00 -7.000e+00 -7.000e+00 -7.000e+00 -7.000e+00 -1.700e+01 -9.000e+00 -9.000e+00 -9.000e+00 -9.000e+00 -9.000e+00 -9.000e+00 -1.700e+01 -9.000e+00 -9.000e+00 -9.000e+00 -9.000e+00 -9.000e+00 -9.000e+00 -9.000e+00 -9.000e+00 -9.000e+00 -9.000e+00 -9.000e+00 -9.000e+00 -9.000e+00 -9.000e+00 -9.000e+00 -9.000e+00 -9.000e+00 -9.000e+00 -9.000e+00 -4.000e+00 -4.000e+00 -4.000e+00 -4.000e+00 -4.000e+00 -4.000e+00 -4.000e+00 -4.000e+00 -4.000e+00 -4.000e+00 -4.000e+00 -4.000e+00 -4.000e+00 -4.000e+00 -4.000e+00 -4.000e+00 -4.000e+00 -4.000e+00 -4.000e+00 -4.000e+00 -4.000e+00 -4.000e+00 -4.000e+00 -4.000e+00 -4.000e+00 -4.000e+00 -4.000e+00 -4.000e+00 -4.000e+00 -4.000e+00 -4.000e+00 -4.000e+00 -4.000e+00
           </DataArray>
           <DataArray type="Float32" Name="nitrate/Cmin" NumberOfComponents="1" format="ascii">