<?xml version="1.0"?>
<VTKFile type="UnstructuredGrid" version="0.1" byte_order="LittleEndian">
   <UnstructuredGrid>
      <Piece NumberOfPoints="32680" NumberOfCells="2303">
         <Points>
            <DataArray type="Float32" Name="Position" NumberOfComponents="3" format="ascii">
-0.120	-5.040	0.097
-0.123	-5.031	0.098
-0.123	-5.023	0.094
-0.121	-5.018	0.087
-0.117	-5.018	0.079
-0.112	-5.024	0.073
-0.109	-5.032	0.072
-0.109	-5.041	0.075
-0.111	-5.046	0.083
-0.115	-5.045	0.091
-0.883	-5.259	-0.298
-0.887	-5.251	-0.295
-0.888	-5.243	-0.298
-0.887	-5.237	-0.305
-0.883	-5.236	-0.314
-0.879	-5.241	-0.321
-0.875	-5.249	-0.323
-0.874	-5.258	-0.320
-0.875	-5.263	-0.313
-0.879	-5.264	-0.304
-1.660	-5.523	-0.585
-1.663	-5.515	-0.583
-1.664	-5.506	-0.587
-1.661	-5.501	-0.594
-1.657	-5.501	-0.603
-1.653	-5.507	-0.609
-1.650	-5.515	-0.610
-1.649	-5.524	-0.607
-1.652	-5.529	-0.599
-1.656	-5.529	-0.591
-2.397	-5.652	-1.026
-2.399	-5.643	-1.026
-2.397	-5.635	-1.030
-2.392	-5.632	-1.038
-2.388	-5.634	-1.045
-2.384	-5.641	-1.050
-2.383	-5.650	-1.050
-2.384	-5.658	-1.045
-2.389	-5.661	-1.038
-2.394	-5.659	-1.030
-2.813	-5.690	-1.288
-2.814	-5.681	-1.288
-2.812	-5.673	-1.293
-2.807	-5.670	-1.301
-2.802	-5.673	-1.308
-2.799	-5.680	-1.312
-2.798	-5.689	-1.312
-2.800	-5.697	-1.307
-2.805	-5.700	-1.300
-2.810	-5.697	-1.293
-0.241	-5.091	0.171
-0.239	-5.082	0.169
-0.234	-5.077	0.163
-0.227	-5.078	0.157
-0.222	-5.083	0.152
-0.219	-5.092	0.151
-0.222	-5.101	0.154
-0.227	-5.106	0.159
-0.234	-5.105	0.166
-0.239	-5.100	0.170
-0.843	-5.151	-0.478
-0.840	-5.143	-0.481
-0.833	-5.139	-0.486
-0.825	-5.142	-0.491
-0.820	-5.149	-0.495
-0.819	-5.158	-0.495
-0.823	-5.166	-0.491
-0.830	-5.169	-0.486
-0.837	-5.167	-0.481
-0.842	-5.160	-0.478
-1.284	-5.188	-1.251
-1.282	-5.179	-1.252
-1.275	-5.174	-1.255
-1.266	-5.173	-1.259
-1.259	-5.179	-1.261
-1.256	-5.187	-1.261
-1.258	-5.196	-1.259
-1.265	-5.202	-1.256
-1.274	-5.202	-1.253
-1.281	-5.197	-1.251
-1.429	-5.326	-2.114
-1.430	-5.317	-2.116
-1.425	-5.309	-2.119
-1.417	-5.306	-2.120
-1.408	-5.309	-2.121
-1.402	-5.316	-2.120
-1.401	-5.325	-2.117
-1.406	-5.332	-2.115
-1.415	-5.335	-2.113
-1.424	-5.333	-2.113
-1.432	-5.398	-2.368
-1.423	-5.396	-2.369
-1.415	-5.400	-2.368
-1.410	-5.407	-2.365
-1.410	-5.416	-2.362
-1.416	-5.422	-2.360
-1.425	-5.424	-2.359
-1.434	-5.421	-2.360
-1.439	-5.414	-2.362
-1.438	-5.405	-2.365
-1.121	-5.885	0.748
-1.115	-5.883	0.755
-1.113	-5.885	0.764
-1.115	-5.890	0.771
-1.121	-5.896	0.774
-1.129	-5.901	0.772
-1.135	-5.903	0.765
-1.137	-5.901	0.756
-1.134	-5.896	0.749
-1.128	-5.890	0.746
-0.597	-6.526	0.484
-0.591	-6.524	0.491
-0.589	-6.525	0.500
-0.591	-6.531	0.507
-0.596	-6.538	0.510
-0.603	-6.544	0.508
-0.608	-6.546	0.501
-0.611	-6.544	0.492
-0.609	-6.539	0.485
-0.603	-6.532	0.482
0.075	-7.030	0.206
0.080	-7.027	0.214
0.082	-7.029	0.222
0.081	-7.034	0.229
0.076	-7.042	0.232
0.070	-7.048	0.230
0.065	-7.051	0.222
0.063	-7.050	0.214
0.064	-7.044	0.207
0.069	-7.036	0.204
0.523	-7.366	0.015
0.528	-7.363	0.022
0.530	-7.364	0.030
0.529	-7.370	0.038
0.524	-7.378	0.040
0.518	-7.384	0.038
0.513	-7.387	0.031
0.511	-7.385	0.022
0.512	-7.380	0.015
0.517	-7.372	0.012
-3.630	-18.783	2.752
-3.623	-18.781	2.757
-3.618	-18.784	2.764
-3.617	-18.791	2.770
-3.620	-18.800	2.773
-3.627	-18.806	2.771
-3.634	-18.808	2.766
-3.639	-18.805	2.759
-3.640	-18.798	2.753
-3.637	-18.789	2.750
-3.407	-18.972	2.533
-3.407	-18.964	2.537
-3.407	-18.955	2.535
-3.407	-18.948	2.529
-3.407	-18.947	2.520
-3.407	-18.951	2.511
-3.407	-18.959	2.507
-3.407	-18.969	2.509
-3.407	-18.975	2.515
-3.407	-18.977	2.524
-3.631	-18.946	2.765
-3.630	-18.937	2.768
-3.635	-18.931	2.773
-3.642	-18.929	2.778
-3.649	-18.933	2.782
-3.654	-18.941	2.783
-3.654	-18.950	2.780
-3.650	-18.956	2.775
-3.643	-18.958	2.770
-3.636	-18.954	2.766
-3.486	-19.014	2.970
-3.485	-19.005	2.973
-3.489	-18.998	2.978
-3.497	-18.997	2.984
-3.504	-19.001	2.988
-3.509	-19.009	2.989
-3.509	-19.017	2.986
-3.505	-19.024	2.981
-3.498	-19.026	2.975
-3.490	-19.022	2.971
-3.664	-19.096	2.798
-3.666	-19.087	2.797
-3.664	-19.080	2.791
-3.659	-19.078	2.783
-3.653	-19.081	2.777
-3.648	-19.088	2.774
-3.646	-19.097	2.776
-3.648	-19.104	2.782
-3.653	-19.106	2.790
-3.659	-19.103	2.796
-3.861	-19.171	2.641
-3.862	-19.162	2.639
-3.860	-19.155	2.634
-3.855	-19.153	2.626
-3.849	-19.156	2.620
-3.844	-19.163	2.617
-3.843	-19.172	2.619
-3.845	-19.179	2.625
-3.850	-19.181	2.633
-3.856	-19.178	2.639
-3.657	-19.241	2.787
-3.657	-19.233	2.792
-3.660	-19.228	2.799
-3.667	-19.229	2.806
-3.673	-19.234	2.809
-3.678	-19.242	2.809
-3.679	-19.249	2.804
-3.675	-19.254	2.797
-3.669	-19.254	2.790
-3.662	-19.249	2.786
-3.509	-19.345	2.929
-3.508	-19.337	2.933
-3.511	-19.333	2.941
-3.518	-19.333	2.947
-3.525	-19.338	2.951
-3.530	-19.346	2.950
-3.530	-19.354	2.945
-3.527	-19.358	2.938
-3.520	-19.358	2.931
-3.513	-19.353	2.928
-3.670	-19.402	2.812
-3.667	-19.395	2.817
-3.669	-19.386	2.819
-3.674	-19.379	2.818
-3.681	-19.376	2.812
-3.688	-19.379	2.806
-3.690	-19.386	2.801
-3.689	-19.395	2.799
-3.683	-19.402	2.800
-3.676	-19.405	2.805
-3.883	-19.481	3.044
-3.875	-19.481	3.049
-3.866	-19.481	3.047
-3.859	-19.481	3.041
-3.858	-19.481	3.031
-3.862	-19.481	3.023
-3.870	-19.481	3.019
-3.879	-19.481	3.020
-3.886	-19.481	3.027
-3.887	-19.481	3.036
-3.691	-19.528	2.810
-3.686	-19.526	2.817
-3.681	-19.528	2.824
-3.680	-19.535	2.830
-3.683	-19.544	2.832
-3.688	-19.551	2.829
-3.694	-19.554	2.823
-3.698	-19.551	2.815
-3.699	-19.544	2.809
-3.697	-19.535	2.807
-3.513	-19.607	2.682
-3.507	-19.605	2.688
-3.503	-19.607	2.696
-3.501	-19.614	2.702
-3.504	-19.623	2.704
-3.509	-19.630	2.701
-3.515	-19.633	2.694
-3.519	-19.630	2.686
-3.521	-19.623	2.680
-3.518	-19.614	2.679
-3.713	-19.681	2.830
-3.707	-19.675	2.826
-3.699	-19.675	2.822
-3.692	-19.680	2.819
-3.688	-19.689	2.820
-3.690	-19.697	2.823
-3.696	-19.703	2.828
-3.704	-19.703	2.832
-3.711	-19.698	2.834
-3.715	-19.689	2.834
-3.790	-19.725	2.680
-3.784	-19.719	2.675
-3.776	-19.719	2.671
-3.768	-19.724	2.669
-3.765	-19.733	2.669
-3.766	-19.741	2.673
-3.772	-19.747	2.677
-3.780	-19.747	2.681
-3.788	-19.742	2.684
-3.791	-19.733	2.683
-3.701	-19.842	2.825
-3.701	-19.833	2.828
-3.705	-19.826	2.832
-3.713	-19.824	2.837
-3.720	-19.827	2.841
-3.725	-19.835	2.843
-3.726	-19.844	2.840
-3.721	-19.851	2.836
-3.714	-19.853	2.831
-3.706	-19.849	2.827
-3.585	-19.891	3.006
-3.585	-19.882	3.008
-3.589	-19.875	3.013
-3.596	-19.873	3.018
-3.604	-19.876	3.022
-3.609	-19.884	3.023
-3.609	-19.893	3.021
-3.605	-19.900	3.017
-3.598	-19.902	3.011
-3.590	-19.898	3.007
-3.723	-20.000	2.848
-3.722	-19.992	2.853
-3.723	-19.983	2.854
-3.726	-19.976	2.849
-3.729	-19.973	2.841
-3.731	-19.976	2.832
-3.732	-19.983	2.827
-3.731	-19.992	2.826
-3.728	-20.000	2.831
-3.725	-20.002	2.839
-3.883	-20.023	2.899
-3.882	-20.015	2.904
-3.883	-20.006	2.905
-3.886	-19.998	2.900
-3.889	-19.996	2.891
-3.891	-19.998	2.883
-3.892	-20.006	2.877
-3.891	-20.015	2.877
-3.888	-20.022	2.882
-3.885	-20.025	2.890
-3.753	-20.126	2.844
-3.745	-20.122	2.841
-3.736	-20.124	2.839
-3.729	-20.131	2.840
-3.728	-20.140	2.842
-3.732	-20.148	2.845
-3.740	-20.151	2.848
-3.749	-20.149	2.850
-3.756	-20.142	2.849
-3.757	-20.133	2.847
-3.773	-20.163	2.706
-3.773	-20.159	2.714
-3.773	-20.160	2.724
-3.773	-20.167	2.730
-3.773	-20.176	2.732
-3.773	-20.184	2.727
-3.773	-20.188	2.719
-3.773	-20.187	2.710
-3.773	-20.180	2.703
-3.773	-20.171	2.702
-1.209	-6.013	0.820
-1.206	-6.006	0.825
-1.206	-5.997	0.825
-1.210	-5.989	0.821
-1.215	-5.986	0.814
-1.220	-5.989	0.806
-1.222	-5.996	0.802
-1.222	-6.005	0.801
-1.218	-6.013	0.805
-1.213	-6.016	0.812
-1.937	-6.076	1.317
-1.935	-6.069	1.322
-1.936	-6.060	1.323
-1.940	-6.052	1.319
-1.944	-6.049	1.312
-1.949	-6.052	1.304
-1.950	-6.059	1.299
-1.949	-6.068	1.298
-1.946	-6.076	1.302
-1.941	-6.079	1.309
-2.698	-6.275	1.678
-2.698	-6.268	1.685
-2.701	-6.260	1.687
-2.705	-6.252	1.683
-2.709	-6.248	1.676
-2.711	-6.250	1.667
-2.711	-6.257	1.660
-2.708	-6.265	1.658
-2.704	-6.273	1.662
-2.700	-6.276	1.669
-3.453	-6.669	1.826
-3.455	-6.663	1.833
-3.459	-6.655	1.835
-3.463	-6.647	1.832
-3.466	-6.643	1.824
-3.467	-6.644	1.815
-3.465	-6.650	1.808
-3.461	-6.659	1.806
-3.457	-6.666	1.809
-3.454	-6.670	1.817
-3.653	-6.755	1.850
-3.655	-6.749	1.857
-3.658	-6.740	1.858
-3.662	-6.733	1.855
-3.665	-6.729	1.847
-3.665	-6.730	1.837
-3.663	-6.736	1.831
-3.660	-6.745	1.829
-3.656	-6.752	1.833
-3.653	-6.756	1.841
-3.746	-20.294	2.845
-3.743	-20.285	2.846
-3.746	-20.277	2.848
-3.753	-20.272	2.851
-3.763	-20.272	2.852
-3.770	-20.278	2.853
-3.773	-20.286	2.852
-3.770	-20.295	2.850
-3.762	-20.300	2.847
-3.753	-20.300	2.846
-3.726	-20.314	2.952
-3.723	-20.305	2.953
-3.726	-20.296	2.955
-3.734	-20.291	2.957
-3.743	-20.291	2.959
-3.750	-20.297	2.959
-3.753	-20.306	2.958
-3.750	-20.314	2.956
-3.743	-20.319	2.954
-3.734	-20.319	2.952
-3.756	-20.439	2.846
-3.755	-20.431	2.849
-3.759	-20.424	2.854
-3.766	-20.421	2.859
-3.774	-20.424	2.862
-3.780	-20.431	2.862
-3.782	-20.440	2.859
-3.778	-20.447	2.854
-3.770	-20.449	2.849
-3.762	-20.447	2.846
-3.712	-20.475	2.931
-3.711	-20.466	2.934
-3.714	-20.459	2.939
-3.722	-20.457	2.944
-3.730	-20.460	2.947
-3.736	-20.467	2.947
-3.737	-20.475	2.944
-3.734	-20.482	2.939
-3.726	-20.485	2.935
-3.718	-20.482	2.931
-3.771	-20.597	2.865
-3.769	-20.590	2.871
-3.770	-20.581	2.872
-3.774	-20.574	2.869
-3.779	-20.570	2.862
-3.784	-20.573	2.854
-3.786	-20.580	2.848
-3.784	-20.589	2.847
-3.780	-20.597	2.850
-3.775	-20.600	2.857
-3.825	-20.611	2.900
-3.823	-20.604	2.905
-3.824	-20.594	2.907
-3.828	-20.587	2.903
-3.833	-20.584	2.896
-3.838	-20.586	2.889
-3.840	-20.593	2.883
-3.838	-20.602	2.882
-3.834	-20.610	2.885
-3.829	-20.613	2.892
-3.782	-20.747	2.873
-3.781	-20.739	2.878
-3.781	-20.730	2.878
-3.784	-20.722	2.873
-3.788	-20.720	2.865
-3.791	-20.723	2.857
-3.792	-20.730	2.852
-3.792	-20.739	2.852
-3.789	-20.747	2.856
-3.786	-20.750	2.865
-3.828	-20.750	2.892
-3.827	-20.742	2.897
-3.827	-20.733	2.897
-3.830	-20.726	2.892
-3.833	-20.723	2.884
-3.836	-20.726	2.876
-3.838	-20.733	2.870
-3.837	-20.743	2.870
[...]
         <CellData>
           <DataArray type="Float32" Name="combinedRootClassID" NumberOfComponents="1" format="ascii">
 -1.300e+01 -1.300e+01 -1.300e+01 -1.300e+01 -1.300e+01 -1.300e+01 -1.300e+01 -1.300e+01 -1.300e+01 -1.300e+01 -1.300e+01 -1.300e+01 -1.300e+01 -1.300e+01 -1.300e+01 -1.300e+01 -1.300e+01 -1.300e+01 -1.300e+01 -1.300e+01 -1.300e+01 -1.300e+01 -1.300e+01 -1.300e+01 -1.300e+01 -1.300e+01 -1.300e+01 -1.300e+01 -1.300e+01 -1.300e+01 -1.300e+01 -1.300e+01 -1.300e+01 -1.300e+01 -1.300e+01 -1.300e+01 -1.300e+01 -1.300e+01 -1.300e+01 -1.300e+01 -1.300e+01 -1.300e+01 -1.300e+01 -1.300e+01 -1.300e+01 -1.300e+01 -1.300e+01 -1.300e+01 -1.300e+01 -1.300e+01 -1.300e+01 -1.300e+01 -1.300e+01 -1.300e+01 -1.300e+01 -1.300e+01 -1.300e+01 -1.300e+01 -1.300e+01 -1.300e+01 -1.300e+01 -1.300e+01 -1.300e+01 -1.300e+01 -1.300e+01 -1.300e+01 -1.300e+01 -1.300e+01 -1.300e+01 -1.300e+01 -1.300e+01 -1.300e+01 -1.300e+01 -1.300e+01 -1.300e+01 -1.300e+01 -1.300e+01 -1.300e+01 -1.300e+01 -1.300e+01 -1.300e+01 -1.300e+01 -1.300e+01 -1.300e+01 -1.300e+01 -1.300e+01 -1.300e+01 -1.300e+01 -1.300e+01 -1.300e+01 -1.300e+01 -1.300e+01 -1.300e+01 -1.300e+01 -1.300e+01 -1.300e+01 -1.300e+01 -1.300e+01 -1.300e+01 -1.300e+01 -1.300e+01 -1.300e+01 -1.300e+01 -1.300e+01 -1.300e+01 -1.300e+01 -1.300e+01 -1.300e+01 -1.300e+01 -1.300e+01 -1.300e+01 -1.300e+01 -1.300e+01 -1.300e+01 -1.300e+01 -1.300e+01 -1.300e+01 -1.300e+01 -1.300e+01 -1.300e+01 -1.300e+01 -1.300e+01 -1.300e+01 -1.300e+01 -1.300e+01 -1.300e+01 -1.300e+01 -1.300e+01 -1.300e+01 -1.300e+01 -1.300e+01 -1.300e+01 -1.300e+01 -1.300e+01 -1.300e+01 -1.300e+01 -1.300e+01 -1.300e+01 -1.300e+01 -1.300e+01 -1.300e+01 -1.300e+01 -1.300e+01 -1.300e+01 -1.300e+01 -1.300e+01 -1.300e+01 -1.300e+01 -1.300e+01 -1.300e+01 -1.300e+01 -1.300e+01 -1.300e+01 -1.300e+01 -1.300e+01 -1.300e+01 -1.300e+01 -1.300e+01 -1.300e+01 -1.300e+01 -1.300e+01 -1.300e+01 -1.300e+01 -1.300e+01 -1.300e+01 -1.300e+01 -1.300e+01 -1.300e+01 -1.300e+01 -1.300e+01 -1.300e+01 -1.300e+01 -1.300e+01 -1.300e+01 -1.300e+01 -1.300e+01 -1.300e+01 -1.300e+01 -1.300e+01 -1.300e+01 -1.300e+01 -1.300e+01 -1.300e+01 -1.300e+01 -1.300e+01 -1.300e+01 -1.300e+01 -1.300e+01 -1.300e+01 -1.300e+01 -1.300e+01 -1.300e+01 -1.300e+01 -1.300e+01 -1.300e+01 -1.300e+01 -1.300e+01 -1.300e+01 -1.300e+01 -1.300e+01 -1.300e+01 -1.300e+01 -1.300e+01 -1.300e+01 -1.300e+01 -1.300e+01 -1.300e+01 -1.300e+01 -1.300e+01 -1.300e+01 -1.300e+01 -1.300e+01 -1.300e+01 -1.300e+01 -1.300e+01 -1.300e+01 -1.300e+01 -1.300e+01 -1.300e+01 -1.300e+01 -1.300e+01 -1.300e+01 -1.300e+01 -1.300e+01 -1.300e+01 -1.300e+01 -1.300e+01 -1.300e+01 -1.300e+01 -1.300e+01 -1.300e+01 -1.300e+01 -1.300e+01 -1.300e+01 -1.300e+01 -1.300e+01 -1.300e+01 -1.300e+01 -1.300e+01 -1.300e+01 -1.300e+01 -5.000e+00 -5.000e+00 -5.000e+00 -5.000e+00 -5.000e+00 -5.000e+00 -5.000e+00 -5.000e+00 -5.000e+00 -5.000e+00 -5.000e+00 -5.000e+00 -5.000e+00 -5.000e+00 -5.000e+00 -5.000e+00 -5.000e+00 -5.000e+00 -5.000e+00 -5.000e+00 -5.000e+00 -5.000e+00 -5.000e+00 -5.000e+00 -5.000e+00 -5.000e+00 -5.000e+00 -5.000e+00 -5.000e+00 -5.000e+00 -5.000e+00 -5.000e+00 -5.000e+00 -1.300e+01 -1.300e+01 -1.300e+01 -1.300e+01 -1.300e+01 -1.300e+01 -1.300e+01 -1.300e+01 -1.300e+01 -1.300e+01 -1.300e+01 -1.300e+01 -1.300e+01 -1.300e+01 -1.300e+01 -1.300e+01 -1.300e+01 -1.300e+01 -1.300e+01 -1.300e+01 -1.300e+01 -1.300e+01 -1.300e+01 -1.300e+01 -1.300e+01 -1.300e+01 -1.300e+01 -1.300e+01 -1.300e+01 -1.300e+01 -1.300e+01 -1.300e+01 -1.300e+01 -1.300e+01 -1.300e+01 -1.300e+01 -1.300e+01 -1.300e+01 -1.300e+01 -1.300e+01 -1.300e+01 -1.300e+01 -1.300e+01 -1.300e+01 -1.300e+01 -1.300e+01 -1.300e+01 -1.300e+01 -1.300e+01 -1.300e+01 -1.300e+01 -1.300e+01 -1.300e+01 -1.300e+01 -1.300e+01 -1.300e+01 -1.300e+01 -1.300e+01 -1.300e+01 -1.300e+01 -1.300e+01 -1.300e+01 -1.300e+01 -1.300e+01 -1.300e+01 -1.300e+01 -1.300e+01 -1.300e+01 -1.300e+01 -1.300e+01 -1.300e+01 -1.300e+01 -1.300e+01 -1.300e+01 -1.300e+01 -1.300e+01 -1.300e+01 -1.300e+01 -1.300e+01 -1.300e+01 -1.300e+01 -1.300e+01 -1.300e+01 -1.300e+01 -1.300e+01 -1.300e+01 -1.300e+01 -1.300e+01 -1.300e+01 -1.300e+01 -1.300e+01 -1.300e+01 -1.300e+01 -1.300e+01 -1.300e+01 -1.300e+01 -1.300e+01 -1.300e+01 -1.300e+01 -1.300e+01 -1.300e+01 -1.300e+01 -1.300e+01 -1.300e+01 -1.300e+01 -1.300e+01 -1.300e+01 -1.300e+01 -1.300e+01 -1.300e+01 -1.300e+01 -1.300e+01 -1.300e+01 -1.300e+01 -1.300e+01 -1.300e+01 -1.300e+01 -1.300e+01 -1.300e+01 -1.300e+01 -1.300e+01 -1.300e+01 -1.300e+01 -1.300e+01 -1.300e+01 -1.300e+01 -1.300e+01 -1.300e+01 -1.300e+01 -1.300e+01 -1.300e+01 -1.300e+01 -1.300e+01 -1.300e+01 -1.300e+01 -1.300e+01 -1.300e+01 -1.300e+01 -1.300e+01 -1.300e+01 -1.300e+01 -1.300e+01 -1.300e+01 -1.300e+01 -1.300e+01 -1.300e+01 -1.300e+01 -1.300e+01 -1.300e+01 -1.300e+01 -1.300e+01 -1.300e+01 -1.300e+01 -1.300e+01 -1.300e+01 -1.300e+01 -1.300e+01 -1.300e+01 -1.300e+01 -1.300e+01 -1.300e+01 -1.300e+01 -1.300e+01 -1.300e+01 -1.300e+01 -1.300e+01 -1.300e+01 -1.300e+01 -1.300e+01 -1.300e+01 -1.300e+01 -1.300e+01 -1.300e+01 -1.300e+01 -1.300e+01 -1.300e+01 -1.300e+01 -1.300e+01 -1.300e+01 -1.300e+01 -1.300e+01 -1.300e+01 -1.300e+01 -1.300e+01 -1.300e+01 -1.300e+01 -1.300e+01 -1.300e+01 -1.300e+01 -1.300e+01 -1.300e+01 -1.300e+01 -1.300e+01 -1.300e+01 -1.300e+01 -1.300e+01 -1.300e+01 -1.300e+01 -1.300e+01 -1.300e+01 -1.300e+01 -1.300e+01 -1.300e+01 -1.300e+01 -1.300e+01 -1.300e+01 -1.300e+01 -1.300e+01 -1.300e+01 -1.300e+01 -1.300e+01 -1.300e+01 -1.300e+01 -1.300e+01 -1.300e+01 -1.300e+01 -1.300e+01 -1.300e+01 -1.300e+01 -1.300e+01 -1.300e+01 -1.300e+01 -1.300e+01 -1.300e+01 -1.300e+01 -1.300e+01 -1.300e+01 -1.300e+01 -1.300e+01 -1.300e+01 -1.300e+01 -1.300e+01 -1.300e+01 -1.300e+01 -1.300e+01 -1.300e+01 -5.000e+00 -5.000e+00 -5.000e+00 -5.000e+00 -5.000e+00 -5.000e+00 -5.000e+00 -5.000e+00 -5.000e+00 -5.000e+00 -5.000e+00 -5.000e+00 -5.000e+00 -5.000e+00 -5.000e+00 -5.000e+00 -5.000e+00 -5.000e+00 -5.000e+00 -5.000e+00 -5.000e+00 -5.000e+00 -5.000e+00 -5.000e+00 -5.000e+00 -5.000e+00 -5.000e+00 -5.000e+00 -5.000e+00 -5.000e+00 -5.000e+00 -5.000e+00 -5.000e+00 -1.300e+01 -1.300e+01 -1.300e+01 -1.300e+01 -1.300e+01 -1.300e+01 -1.300e+01 -1.300e+01 -1.300e+01 -1.300e+01 -1.300e+01 -1.300e+01 -1.300e+01 -1.300e+01 -1.300e+01 -1.300e+01 -1.300e+01 -1.300e+01 -1.300e+01 -1.300e+01 -1.300e+01 -1.300e+01 -1.300e+01 -1.300e+01 -1.300e+01 -1.300e+01 -1.300e+01 -1.300e+01 -1.300e+01 -1.300e+01 -1.300e+01 -1.300e+01 -1.300e+01 -1.300e+01 -1.300e+01 -1.300e+01 -1.300e+01 -1.300e+01 -1.300e+01 -1.300e+01 -1.300e+01 -1.300e+01 -1.300e+01 -1.300e+01 -1.300e+01 -1.300e+01 -1.300e+01 -1.300e+01 -1.300e+01 -1.300e+01 -1.300e+01 -1.300e+01 -1.300e+01 -1.300e+01 -1.300e+01 -1.300e+01 -1.300e+01 -1.300e+01 -1.300e+01 -1.300e+01 -1.300e+01 -1.300e+01 -1.300e+01 -1.300e+01 -1.300e+01 -1.300e+01 -1.300e+01 -1.300e+01 -1.300e+01 -1.300e+01 -1.300e+01 -1.300e+01 -1.300e+01 -1.300e+01 -1.300e+01 -1.300e+01 -1.300e+01 -1.300e+01 -1.300e+01 -1.300e+01 -1.300e+01 -1.300e+01 -1.300e+01 -1.300e+01 -1.300e+01 -1.300e+01 -1.300e+01 -1.300e+01 -1.300e+01 -1.300e+01 -1.300e+01 -1.300e+01 -1.300e+01 -1.300e+01 -1.300e+01 -1.300e+01 -1.300e+01 -1.300e+01 -1.300e+01 -1.300e+01 -1.300e+01 -1.300e+01 -1.300e+01 -1.300e+01 -1.300e+01 -1.300e+01 -1.300e+01 -1.300e+01 -1.300e+01 -1.300e+01 -1.300e+01 -1.300e+01 -1.300e+01 -1.300e+01 -1.300e+01 -1.300e+01 -1.300e+01 -1.300e+01 -1.300e+01 -1.300e+01 -1.300e+01 -1.300e+01 -1.300e+01 -1.300e+01 -1.300e+01 -1.300e+01 -1.300e+01 -1.300e+01 -1.300e+01 -1.300e+01 -1.300e+01 -1.300e+01 -1.300e+01 -1.300e+01 -1.300e+01 -1.300e+01 -1.300e+01 -1.300e+01 -1.300e+01 -1.300e+01 -1.300e+01 -1.300e+01 -1.300e+01 -1.300e+01 -1.300e+01 -1.300e+01 -1.300e+01 -1.300e+01 -1.300e+01 -1.300e+01 -1.300e+01 -1.300e+01 -1.300e+01 -1.300e+01 -1.300e+01 -1.300e+01 -1.300e+01 -1.300e+01 -1.300e+01 -1.300e+01 -1.300e+01 -1.300e+01 -1.300e+01 -1.300e+01 -1.300e+01 -1.300e+01 -1.300e+01 -1.300e+01 -1.300e+01 -1.300e+01 -1.300e+01 -1.300e+01 -1.300e+01 -1.300e+01 -1.300e+01 -1.300e+01 -1.300e+01 -1.300e+01 -1.300e+01 -1.300e+01 -1.300e+01 -1.300e+01 -1.300e+01 -1.300e+01 -1.300e+01 -1.300e+01 -1.300e+01 -1.300e+01 -1.300e+01 -1.300e+01 -1.300e+01 -1.300e+01 -1.300e+01 -1.300e+01 -1.300e+01 -1.300e+01 -1.300e+01 -1.300e+01 -1.300e+01 -1.300e+01 -1.300e+01 -1.300e+01 -1.300e+01 -1.300e+01 -1.300e+01 -1.300e+01 -1.300e+01 -1.300e+01 -1.300e+01 -1.300e+01 -1.300e+01 -1.300e+01 -1.300e+01 -1.300e+01 -1.300e+01 -1.300e+01 -1.300e+01 -1.300e+01 -1.300e+01 -1.300e+01 -1.300e+01 -1.300e+01 -1.300e+01 -1.300e+01 -1.300e+01 -1.300e+01 -1.300e+01 -1.300e+01 -1.300e+01 -1.300e+01 -1.300e+01 -1.300e+01 -1.300e+01 -1.300e+01 -1.300e+01 -5.000e+00 -5.000e+00 -5.000e+00 -5.000e+00 -5.000e+00 -5.000e+00 -5.000e+00 -5.000e+00 -5.000e+00 -5.000e+00 -5.000e+00 -5.000e+00 -5.000e+00 -5.000e+00 -5.000e+00 -5.000e+00 -5.000e+00 -5.000e+00 -5.000e+00 -5.000e+00 -5.000e+00 -5.000e+00 -5.000e+00 -5.000e+00 -5.000e+00 -5.000e+00 -5.000e+00 -5.000e+00 -5.000e+00 -5.000e+00 -5.000e+00 -5.000e+00 -5.000e+00 -1.300e+01 -1.300e+01 -1.300e+01 -1.300e+01 -1.300e+01 -1.300e+01 -1.300e+01 -1.300e+01 -1.300e+01 -1.300e+01 -1.300e+01 -1.300e+01 -1.300e+01 -1.300e+01 -1.300e+01 -1.300e+01 -1.300e+01 -1.300e+01 -1.300e+01 -1.300e+01 -1.300e+01 -1.300e+01 -1.300e+01 -1.300e+01 -1.300e+01 -1.300e+01 -1.300e+01 -1.300e+01 -1.300e+01 -1.300e+01 -1.300e+01 -1.300e+01 -1.300e+01 -1.300e+01 -1.300e+01 -1.300e+01 -1.300e+01 -1.300e+01 -1.300e+01 -1.300e+01 -1.300e+01 -1.300e+01 -1.300e+01 -1.300e+01 -1.300e+01 -1.300e+01 -1.300e+01 -1.300e+01 -1.300e+01 -1.300e+01 -1.300e+01 -1.300e+01 -1.300e+01 -1.300e+01 -1.300e+01 -1.300e+01 -1.300e+01 -1.300e+01 -1.300e+01 -1.300e+01 -1.300e+01 -1.300e+01 -1.300e+01 -1.300e+01 -1.300e+01 -1.300e+01 -1.300e+01 -1.300e+01 -1.300e+01 -1.300e+01 -1.300e+01 -1.300e+01 -1.300e+01 -1.300e+01 -1.300e+01 -1.300e+01 -1.300e+01 -1.300e+01 -1.300e+01 -1.300e+01 -1.300e+01 -1.300e+01 -1.300e+01 -1.300e+01 -1.300e+01 -1.300e+01 -1.300e+01 -1.300e+01 -1.300e+01 -1.300e+01 -1.300e+01 -1.300e+01 -1.300e+01 -1.300e+01 -1.300e+01 -1.300e+01 -1.300e+01 -1.300e+01 -1.300e+01 -1.300e+01 -1.300e+01 -1.300e+01 -1.300e+01 -1.300e+01 -1.300e+01 -1.300e+01 -1.300e+01 -1.300e+01 -1.300e+01 -1.300e+01 -1.300e+01 -1.300e+01 -1.300e+01 -1.300e+01 -1.300e+01 -1.300e+01 -1.300e+01 -1.300e+01 -1.300e+01 -1.300e+01 -1.300e+01 -1.300e+01 -1.300e+01 -1.300e+01 -1.300e+01 -1.300e+01 -1.300e+01 -1.300e+01 -1.300e+01 -1.300e+01 -1.300e+01 -1.300e+01 -1.300e+01 -1.300e+01 -1.300e+01 -1.300e+01 -1.300e+01 -1.300e+01 -1.300e+01 -1.300e+01 -1.300e+01 -1.300e+01 -1.300e+01 -1.300e+01 -1.300e+01 -1.300e+01 -1.300e+01 -1.300e+01 -1.300e+01 -1.300e+01 -1.300e+01 -1.300e+01 -1.300e+01 -1.300e+01 -1.300e+01 -1.300e+01 -1.300e+01 -1.300e+01 -1.300e+01 -1.300e+01 -1.300e+01 -1.300e+01 -1.300e+01 -1.300e+01 -1.300e+01 -1.300e+01 -1.300e+01 -1.300e+01 -1.300e+01 -1.300e+01 -1.300e+01 -1.300e+01 -1.300e+01 -1.300e+01 -1.300e+01 -1.300e+01 -1.300e+01 -1.300e+01 -1.300e+01 -1.300e+01 -1.300e+01 -1.300e+01 -1.300e+01 -1.300e+01 -1.300e+01 -1.300e+01 -1.300e+01 -1.300e+01 -1.300e+01 -1.300e+01 -1.300e+01 -1.300e+01 -1.300e+01 -1.300e+01 -1.300e+01 -1.300e+01 -1.300e+01 -1.300e+01 -1.300e+01 -1.300e+01 -1.300e+01 -1.300e+01 -1.300e+01 -1.300e+01 -1.300e+01 -1.300e+01 -1.300e+01 -1.300e+01 -1.300e+01 -1.300e+01 -1.300e+01 -1.300e+01 -1.300e+01 -1.300e+01 -1.300e+01 -1.300e+01 -1.300e+01 -1.300e+01 -1.300e+01 -1.300e+01 -1.300e+01 -1.300e+01 -1.300e+01 -1.300e+01 -1.300e+01 -1.300e+01 -1.300e+01 -1.300e+01 -1.300e+01 -1.300e+01 -1.300e+01 -1.300e+01 -1.300e+01 -1.300e+01 -1.300e+01 -1.300e+01 -1.300e+01 -1.300e+01 -1.300e+01 -5.000e+00 -5.000e+00 -5.000e+00 -5.000e+00 -5.000e+00 -5.000e+00 -5.000e+00 -5.000e+00 -5.000e+00 -5.000e+00 -5.000e+00 -5.000e+00 -5.000e+00 -5.000e+00 -5.000e+00 -5.000e+00 -5.000e+00 -5.000e+00 -5.000e+00 -5.000e+00 -5.000e+00 -5.000e+00 -5.000e+00 -5.000e+00 -5.000e+00 -5.000e+00 -5.000e+00 -5.000e+00 -5.000e+00 -5.000e+00 -5.000e+00 -5.000e+00 -5.000e+00 -1.900e+01 -1.900e+01 -1.900e+01 -1.900e+01 -1.900e+01 -1.900e+01 -1.900e+01 -1.900e+01 -1.900e+01 -1.900e+01 -1.900e+01 -1.900e+01 -1.900e+01 -1.900e+01 -1.900e+01 -1.900e+01 -1.900e+01 -1.900e+01 -1.900e+01 -1.900e+01 -1.900e+01 -1.900e+01 -1.900e+01 -1.900e+01 -1.900e+01 -1.900e+01 -1.900e+01 -1.900e+01 -1.900e+01 -1.900e+01 -1.900e+01 -1.900e+01 -1.900e+01 -1.900e+01 -1.900e+01 -1.900e+01 -1.900e+01 -1.900e+01 -1.900e+01 -1.900e+01 -1.900e+01 -1.900e+01 -1.900e+01 -1.900e+01 -1.900e+01 -1.900e+01 -1.900e+01 -1.900e+01 -1.900e+01 -1.900e+01 -1.900e+01 -1.900e+01 -1.900e+01 -1.100e+01 -1.100e+01 -1.100e+01 -1.100e+01 -1.100e+01 -1.100e+01 -1.100e+01 -1.100e+01 -1.100e+01 -1.100e+01 -1.100e+01 -1.100e+01 -1.100e+01 -1.100e+01 -1.100e+01 -1.100e+01 -1.100e+01 -1.100e+01 -1.100e+01 -1.100e+01 -1.100e+01 -1.100e+01 -1.900e+01 -1.900e+01 -1.900e+01 -1.900e+01 -1.900e+01 -1.900e+01 -1.900e+01 -1.900e+01 -1.900e+01 -1.900e+01 -1.900e+01 -1.900e+01 -1.900e+01 -1.900e+01 -1.900e+01 -1.900e+01 -1.900e+01 -1.900e+01 -1.900e+01 -1.900e+01 -1.900e+01 -1.900e+01 -1.900e+01 -1.900e+01 -1.900e+01 -1.900e+01 -1.900e+01 -1.900e+01 -1.900e+01 -1.900e+01 -1.900e+01 -1.900e+01 -1.900e+01 -1.900e+01 -1.900e+01 -1.900e+01 -1.900e+01 -1.900e+01 -1.900e+01 -1.900e+01 -1.900e+01 -1.900e+01 -1.900e+01 -1.900e+01 -1.900e+01 -1.900e+01 -1.900e+01 -1.900e+01 -1.900e+01 -1.900e+01 -1.900e+01 -1.900e+01 -1.900e+01 -1.900e+01 -1.900e+01 -1.100e+01 -1.100e+01 -1.100e+01 -1.100e+01 -1.100e+01 -1.100e+01 -1.100e+01 -1.100e+01 -1.100e+01 -1.100e+01 -1.100e+01 -1.100e+01 -1.100e+01 -1.100e+01 -1.100e+01 -1.100e+01 -1.100e+01 -1.100e+01 -1.100e+01 -1.100e+01 -1.100e+01 -1.100e+01 -1.900e+01 -1.900e+01 -1.900e+01 -1.900e+01 -1.900e+01 -1.900e+01 -1.900e+01 -1.900e+01 -1.900e+01 -1.900e+01 -1.900e+01 -1.900e+01 -1.900e+01 -1.900e+01 -1.900e+01 -1.900e+01 -1.900e+01 -1.900e+01 -1.900e+01 -1.900e+01 -1.900e+01 -1.900e+01 -1.900e+01 -1.900e+01 -1.900e+01 -1.900e+01 -1.900e+01 -1.900e+01 -1.900e+01 -1.900e+01 -1.900e+01 -1.900e+01 -1.900e+01 -1.900e+01 -1.900e+01 -1.900e+01 -1.900e+01 -1.900e+01 -1.900e+01 -1.900e+01 -1.900e+01 -1.900e+01 -1.900e+01 -1.900e+01 -1.900e+01 -1.900e+01 -1.900e+01 -1.900e+01 -1.900e+01 -1.900e+01 -1.900e+01 -1.900e+01 -1.900e+01 -1.900e+01 -1.900e+01 -1.900e+01 -1.100e+01 -1.100e+01 -1.100e+01 -1.100e+01 -1.100e+01 -1.100e+01 -1.100e+01 -1.100e+01 -1.100e+01 -1.100e+01 -1.100e+01 -1.100e+01 -1.100e+01 -1.100e+01 -1.100e+01 -1.100e+01 -1.100e+01 -1.100e+01 -1.100e+01 -1.100e+01 -1.100e+01 -1.100e+01 -1.900e+01 -1.900e+01 -1.900e+01 -1.900e+01 -1.900e+01 -1.900e+01 -1.900e+01 -1.900e+01 -1.900e+01 -1.900e+01 -1.900e+01 -1.900e+01 -1.900e+01 -1.900e+01 -1.900e+01 -1.900e+01 -1.900e+01 -1.900e+01 -1.900e+01 -1.900e+01 -1.900e+01 -1.900e+01 -1.900e+01 -1.900e+01 -1.900e+01 -1.900e+01 -1.900e+01 -1.900e+01 -1.900e+01 -1.900e+01 -1.900e+01 -1.900e+01 -1.900e+01 -1.900e+01 -1.900e+01 -1.900e+01 -1.900e+01 -1.900e+01 -1.900e+01 -1.900e+01 -1.900e+01 -1.900e+01 -1.900e+01 -1.900e+01 -1.900e+01 -1.900e+01 -1.900e+01 -1.900e+01 -1.900e+01 -1.900e+01 -1.900e+01 -1.900e+01 -1.900e+01 -1.900e+01 -1.100e+01 -1.100e+01 -1.100e+01 -1.100e+01 -1.100e+01 -1.100e+01 -1.100e+01 -1.100e+01 -1.100e+01 -1.100e+01 -1.100e+01 -1.100e+01 -1.100e+01 -1.100e+01 -1.100e+01 -1.100e+01 -1.100e+01 -1.100e+01 -1.100e+01 -1.100e+01 -1.100e+01 -1.100e+01 -2.000e+01 -2.000e+01 -2.000e+01 -2.000e+01 -2.000e+01 -2.000e+01 -2.000e+01 -2.000e+01 -2.000e+01 -2.000e+01 -2.000e+01 -2.000e+01 -2.000e+01 -2.000e+01 -2.000e+01 -2.000e+01 -2.000e+01 -2.000e+01 -2.000e+01 -2.000e+01 -2.000e+01 -2.000e+01 -2.000e+01 -2.000e+01 -2.000e+01 -2.000e+01 -2.000e+01 -2.000e+01 -2.000e+00 -2.000e+00 -2.000e+00 -2.000e+00 -2.000e+00 -2.000e+00 -2.000e+00 -2.000e+00 -2.000e+00 -2.000e+00 -1.500e+01 -1.500e+01 -1.500e+01 -7.000e+00 -7.000e+00 -7.000e+00 -7.000e+00 -7.000e+00 -7.000e+00 -7.000e+00 -1.500e+01 -1.500e+01 -1.500e+01 -7.000e+00 -7.000e+00 -7.000e+00 -7.000e+00 -7.000e+00 -7.000e+00 -7.000e+00 -1.500e+01 -1.500e+01 -1.500e+01 -1.500e+01 -7.000e+00 -7.000e+00 -7.000e+00 -7.000e+00 -7.000e+00 -7.000e+00 -7.000e+00 -7.000e+00 -7.000e+00 -7.000e+00 -7.000e+00 -7.000e+00 -7.000e+00 -7.000e+00 -7.000e+00 -7.000e+00 -7.000e+00 -7.000e+00 -7.000e+00 -7.000e+00 -7.000e+00 -7.000e+00 -7.000e+00 -7.000e+00 -7.000e+00 -7.000e+00 -7.000e+00 -7.000e+00 -7.000e+00 -7.000e+00 -7.000e+00 -7.000e+00 -7.000e+00 -7.000e+00 -7.000e+00 -7.000e+00 -7.000e+00 -7.000e+00 -7.000e+00 -7.000e+00 -1.500e+01 -1.500e+01 -1.500e+01 -7.000e+00 -7.000e+00 -7.000e+00 -7.000e+00 -7.000e+00 -7.000e+00 -7.000e+00 -7.000e+00 -7.000e+00 -7.000e+00 -7.000e+00 -7.000e+00 -7.000e+00 -7.000e+00 -7.000e+00 -7.000e+00 -7.000e+00 -7.000e+00 -7.000e+00 -7.000e+00 -7.000e+00 -7.000e+00 -7.000e+00 -7.000e+00 -7.000e+00 -7.000e+00 -7.000e+00 -7.000e+00 -7.000e+00 -7.000e+00 -7.000e+00 -7.000e+00 -7.000e+00 -7.000e+00 -7.000e+00 -7.000e+00 -1.500e+01 -7.000e+00 -7.000e+00 -7.000e+00 -7.000e+00 -7.000e+00 -7.000e+00 -7.000e+00 -7.000e+00 -7.000e+00 -7.000e+00 -7.000e+00 -7.000e+00 -7.000e+00 -7.000e+00 -7.000e+00 -7.000e+00 -7.000e+00 -7.000e+00 -7.000e+00 -7.000e+00 -7.000e+00 -7.000e+00 -7.000e+00 -7.000e+00 -7.000e+00 -7.000e+00 -7.000e+00 -7.000e+00 -7.000e+00 -7.000e+00 -7.000e+00 -7.000e+00 -7.000e+00 -1.500e+01 -1.500e+01 -7.000e+00 -7.000e+00 -7.000e+00 -7.000e+00 -7.000e+00 -7.000e+00 -7.000e+00 -7.000e+00 -7.000e+00 -7.000e+00 -7.000e+00 -7.000e+00 -7.000e+00 -7.000e+00 -7.000e+00 -7.000e+00 -7.000e+00 -7.000e+00 -7.000e+00 -7.000e+00 -7.000e+00 -7.000e+00 -7.000e+00 -7.000e+00 -7.000e+00 -7.000e+00 -7.000e+00 -1.500e+01 -1.500e+01 -7.000e+00 -7.000e+00 -7.000e+00 -7.000e+00 -7.000e+00 -7.000e+00 -7.000e+00 -7.000e+00 -7.000e+00 -7.000e+00 -7.000e+00 -7.000e+00 -7.000e+00 -7.000e+00 -7.000e+00 -7.000e+00 -7.000e+00 -7.000e+00 -7.000e+00 -7.000e+00 -7.000e+00 -7.000e+00 -7.000e+00 -7.000e+00 -7.000e+00 -7.000e+00 -1.500e+01 -1.500e+01 -7.000e+00 -7.000e+00 -7.000e+00 -7.000e+00 -7.000e+00 -7.000e+00 -7.000e+00 -7.000e+00 -7.000e+00 -7.000e+00 -7.000e+00 -7.000e+00 -7.000e+00 -7.000e+00 -7.000e+00 -7.000e+00 -7.000e+00 -7.000e+00 -7.000e+00 -7.000e+00 -7.000e+00 -1.500e+01 -1.500e+01 -1.500e+01 -7.000e+00 -7.000e+00 -7.000e+00 -7.000e+00 -7.000e+00 -7.000e+00 -7.000e+00 -7.000e+00 -7.000e+00 -7.000e+00 -7.000e+00 -7.000e+00 -7.000e+00 -7.000e+00 -7.000e+00 -7.000e+00 -7.000e+00 -1.500e+01 -1.500e+01 -1.500e+01 -7.000e+00 -7.000e+00 -7.000e+00 -7.000e+00 -7.000e+00 -7.000e+00 -7.000e+00 -7.000e+00 -7.000e+00 -7.000e+00 -7.000e+00 -7.000e+00 -7.000e+00 -7.000e+00 -7.000e+00 -7.000e+00 -7.000e+00 -1.500e+01 -7.000e+00 -7.000e+00 -7.000e+00 -7.000e+00 -7.000e+00 -7.000e+00 -7.000e+00 -7.000e+00 -1.500e+01 -1.500e+01 -7.000e+00 -7.000e+00 -7.000e+00 -7.000e+00 -7.000e+00 -7.000e+00 -1.500e+01 -1.500e+01 -1.500e+01 -7.000e+00 -7.000e+00 -7.000e+00 -7.000e+00 -7.000e+00 -7.000e+00 -7.000e+00 -1.500e+01 -1.500e+01 -7.000e+00 -7.000e+00 -7.000e+00 -7.000e+00 -7.000e+00 -7.000e+00 -7.000e+00 -1.500e+01 -1.500e+01 -7.000e+00 -7.000e+00 -7.000e+00 -7.000e+00 -7.000e+00 -7.000e+00 -7.000e+00 -1.500e+01 -1.500e+01 -1.500e+01 -1.500e+01 -7.000e+00 -7.000e+00 -7.000e+00 -7.000e+00 -7.000e+00 -7.000e+00 -7.000e+00 -1.500e+01 -1.500e+01 -7.000e+00 -7.000e+00 -7.000e+00 -7.000e+00 -7.000e+00 -7.000e+00 -7.000e+00 -7.000e+00 -7.000e+00 -7.000e+00 -7.000e+00 -1.500e+01 -1.500e+01 -7.000e+00 -7.000e+00 -7.000e+00 -7.000e+00 -7.000e+00 -7.000e+00 -1.500e+01 -7.000e+00 -7.000e+00 -7.000e+00 -7.000e+00 -7.000e+00 -7.000e+00 -1.500e+01 -1.500e+01 -7.000e+00 -7.000e+00 -7.000e+00 -7.000e+00 -7.000e+00 -7.000e+00 -7.000e+00 -7.000e+00 -7.000e+00 -7.000e+00 -7.000e+00 -7.000e+00 -7.000e+00 -7.000e+00 -7.000e+00 -7.000e+00 -1.500e+01 -1.500e+01 -1.500e+01 -7.000e+00 -7.000e+00 -7.000e+00 -7.000e+00 -7.000e+00 -7.000e+00 -7.000e+00 -1.500e+01 -1.500e+01 -7.000e+00 -7.000e+00 -7.000e+00 -7.000e+00 -7.000e+00 -7.000e+00 -1.500e+01 -1.500e+01 -7.000e+00