<?xml version="1.0"?>
<VTKFile type="UnstructuredGrid" version="0.1" byte_order="LittleEndian">
   <UnstructuredGrid>
      <Piece NumberOfPoints="1430" NumberOfCells="95">
         <Points>
            <DataArray type="Float32" Name="Position" NumberOfComponents="3" format="ascii">
0.020	-5.017	0.006
0.023	-5.003	0.022
0.017	-4.984	0.029
0.004	-4.967	0.025
-0.010	-4.960	0.012
-0.021	-4.963	-0.006
-0.023	-4.977	-0.022
-0.017	-4.996	-0.029
-0.004	-5.013	-0.025
0.010	-5.020	-0.011
-0.559	-5.362	0.416
-0.557	-5.350	0.433
-0.564	-5.333	0.442
-0.578	-5.317	0.440
-0.593	-5.309	0.428
-0.603	-5.312	0.410
-0.605	-5.324	0.393
-0.598	-5.341	0.383
-0.584	-5.357	0.385
-0.569	-5.365	0.398
-1.118	-5.938	0.769
-1.117	-5.929	0.788
-1.126	-5.914	0.800
-1.141	-5.900	0.802
-1.157	-5.892	0.791
-1.168	-5.892	0.773
-1.169	-5.901	0.754
-1.160	-5.916	0.742
-1.145	-5.930	0.741
-1.129	-5.938	0.751
-1.564	-6.399	1.007
-1.545	-6.389	1.007
-1.525	-6.392	1.007
-1.510	-6.407	1.007
-1.506	-6.428	1.007
-1.516	-6.447	1.007
-1.535	-6.456	1.007
-1.555	-6.453	1.007
-1.570	-6.438	1.007
-1.574	-6.417	1.007
0.024	-4.991	-0.023
0.026	-4.973	-0.013
0.018	-4.961	0.002
0.002	-4.960	0.017
-0.014	-4.971	0.025
-0.025	-4.989	0.024
-0.026	-5.007	0.013
-0.018	-5.019	-0.002
-0.003	-5.020	-0.016
0.013	-5.009	-0.024
0.509	-5.325	0.503
0.512	-5.308	0.515
0.505	-5.298	0.532
0.490	-5.297	0.547
0.473	-5.307	0.554
0.460	-5.324	0.550
0.457	-5.340	0.538
0.464	-5.351	0.521
0.479	-5.351	0.506
0.496	-5.341	0.500
0.947	-5.940	0.955
0.953	-5.927	0.970
0.948	-5.918	0.988
0.933	-5.918	1.003
0.914	-5.926	1.008
0.899	-5.939	1.002
0.893	-5.952	0.987
0.898	-5.961	0.969
0.913	-5.961	0.954
0.932	-5.953	0.949
1.229	-6.485	1.263
1.235	-6.473	1.279
1.230	-6.465	1.298
1.215	-6.464	1.312
1.196	-6.471	1.317
1.180	-6.483	1.310
1.173	-6.496	1.295
1.178	-6.504	1.276
1.194	-6.504	1.261
1.213	-6.497	1.256
-0.004	-4.964	-0.022
0.011	-4.959	-0.008
0.021	-4.965	0.009
0.024	-4.981	0.023
0.017	-5.000	0.028
0.003	-5.016	0.022
-0.011	-5.021	0.008
-0.022	-5.015	-0.009
-0.024	-4.999	-0.022
-0.017	-4.980	-0.027
0.554	-5.287	-0.483
0.570	-5.282	-0.469
0.579	-5.288	-0.451
0.578	-5.303	-0.435
0.568	-5.320	-0.429
0.552	-5.333	-0.433
0.537	-5.338	-0.447
0.528	-5.332	-0.465
0.529	-5.317	-0.480
0.539	-5.300	-0.487
1.046	-5.924	-0.861
1.061	-5.921	-0.846
1.067	-5.926	-0.827
1.062	-5.938	-0.810
1.047	-5.951	-0.802
1.029	-5.961	-0.807
1.015	-5.964	-0.821
1.009	-5.958	-0.841
1.014	-5.947	-0.858
1.028	-5.933	-0.865
1.372	-6.492	-1.074
1.387	-6.489	-1.059
1.391	-6.494	-1.039
1.384	-6.504	-1.022
1.369	-6.516	-1.014
1.350	-6.525	-1.019
1.336	-6.527	-1.034
1.331	-6.523	-1.054
1.338	-6.512	-1.071
1.354	-6.500	-1.079
-0.028	-4.978	0.015
-0.021	-4.963	0.002
-0.006	-4.959	-0.012
0.011	-4.966	-0.021
0.024	-4.983	-0.023
0.027	-5.002	-0.015
0.020	-5.017	-0.002
0.005	-5.021	0.012
-0.012	-5.014	0.022
-0.025	-4.997	0.023
-0.479	-5.273	-0.563
-0.470	-5.261	-0.579
-0.454	-5.260	-0.592
-0.436	-5.270	-0.598
-0.424	-5.286	-0.595
-0.421	-5.303	-0.583
-0.430	-5.314	-0.567
-0.446	-5.315	-0.553
-0.464	-5.306	-0.547
-0.476	-5.290	-0.551
-0.865	-5.887	-1.074
-0.855	-5.879	-1.091
-0.837	-5.881	-1.103
-0.819	-5.890	-1.104
-0.806	-5.904	-1.095
-0.804	-5.917	-1.078
-0.814	-5.924	-1.061
-0.831	-5.923	-1.050
-0.850	-5.914	-1.049
-0.863	-5.900	-1.058
-1.064	-6.425	-1.458
-1.052	-6.438	-1.447
-1.051	-6.450	-1.430
-1.061	-6.456	-1.413
-1.080	-6.454	-1.403
-1.098	-6.445	-1.403
-1.111	-6.432	-1.414
-1.112	-6.420	-1.431
-1.101	-6.414	-1.448
-1.083	-6.416	-1.458
-0.147	-5.003	0.150
-0.031	-5.002	0.208
0.097	-5.001	0.186
0.188	-4.999	0.094
0.207	-4.998	-0.035
0.147	-4.997	-0.150
0.031	-4.998	-0.208
-0.097	-4.999	-0.186
-0.188	-5.001	-0.094
-0.207	-5.002	0.035
-0.153	-4.252	0.156
-0.038	-4.252	0.213
0.089	-4.250	0.192
0.179	-4.249	0.101
0.198	-4.248	-0.026
0.139	-4.248	-0.141
0.024	-4.249	-0.198
-0.103	-4.250	-0.177
-0.193	-4.251	-0.086
-0.212	-4.252	0.041
-0.157	-3.561	0.156
-0.043	-3.561	0.213
0.083	-3.560	0.193
0.173	-3.559	0.102
0.193	-3.559	-0.024
0.134	-3.559	-0.138
0.020	-3.560	-0.196
-0.106	-3.560	-0.175
-0.196	-3.561	-0.084
-0.215	-3.561	0.042
-0.163	-2.401	0.156
-0.050	-2.400	0.213
0.075	-2.400	0.193
0.165	-2.399	0.103
0.185	-2.399	-0.022
0.127	-2.400	-0.135
0.013	-2.400	-0.193
-0.112	-2.401	-0.173
-0.202	-2.401	-0.083
-0.221	-2.401	0.042
-0.164	-1.800	0.153
-0.052	-1.800	0.211
0.074	-1.800	0.191
0.163	-1.800	0.102
0.183	-1.801	-0.023
0.126	-1.801	-0.136
0.013	-1.800	-0.194
-0.112	-1.800	-0.174
-0.202	-1.800	-0.085
-0.222	-1.800	0.040
-0.161	-1.200	0.153
-0.048	-1.200	0.210
0.076	-1.200	0.191
0.166	-1.201	0.101
0.186	-1.201	-0.023
0.129	-1.201	-0.136
0.016	-1.200	-0.193
-0.108	-1.200	-0.174
-0.198	-1.200	-0.085
-0.218	-1.200	0.040
-0.160	-0.300	0.150
-0.048	-0.299	0.207
0.076	-0.299	0.188
0.165	-0.300	0.099
0.185	-0.300	-0.026
0.128	-0.301	-0.138
0.016	-0.301	-0.195
-0.108	-0.301	-0.176
-0.197	-0.301	-0.087
-0.217	-0.300	0.038
-0.161	0.560	0.146
-0.049	0.560	0.203
0.075	0.560	0.184
0.164	0.560	0.095
0.184	0.559	-0.029
0.127	0.559	-0.141
0.015	0.559	-0.198
-0.109	0.560	-0.179
-0.198	0.560	-0.090
-0.218	0.560	0.034
-0.156	1.440	0.145
-0.044	1.440	0.202
0.079	1.440	0.183
0.168	1.439	0.095
0.188	1.439	-0.029
0.131	1.439	-0.141
0.020	1.440	-0.198
-0.104	1.440	-0.178
-0.193	1.440	-0.090
-0.212	1.440	0.034
-0.154	2.316	0.145
-0.043	2.316	0.201
0.080	2.316	0.181
0.168	2.316	0.093
0.188	2.316	-0.030
0.131	2.316	-0.140
0.020	2.316	-0.197
-0.103	2.316	-0.177
-0.191	2.316	-0.089
-0.210	2.316	0.034
-0.153	2.569	0.144
-0.043	2.569	0.200
0.079	2.570	0.180
0.167	2.570	0.093
0.186	2.570	-0.029
0.129	2.570	-0.139
0.019	2.570	-0.195
-0.103	2.570	-0.176
-0.190	2.570	-0.088
-0.209	2.569	0.034
-0.010	-5.088	-0.001
-0.001	-5.090	0.001
0.005	-5.096	0.006
0.005	-5.102	0.012
0.000	-5.108	0.017
-0.009	-5.110	0.020
-0.017	-5.108	0.018
-0.023	-5.102	0.013
-0.023	-5.096	0.007
-0.018	-5.090	0.002
-0.033	-5.655	-0.592
-0.025	-5.657	-0.588
-0.021	-5.662	-0.581
-0.022	-5.668	-0.574
-0.028	-5.672	-0.570
-0.037	-5.674	-0.569
-0.046	-5.673	-0.573
-0.050	-5.668	-0.579
-0.049	-5.662	-0.587
-0.042	-5.657	-0.591
0.088	-6.025	-0.815
0.095	-6.026	-0.810
0.099	-6.029	-0.802
0.096	-6.035	-0.794
0.090	-6.039	-0.790
0.081	-6.042	-0.791
0.073	-6.041	-0.796
0.070	-6.037	-0.804
0.072	-6.032	-0.812
0.079	-6.027	-0.816
-0.022	-5.186	0.011
-0.015	-5.184	0.017
-0.010	-5.187	0.024
-0.007	-5.194	0.028
-0.009	-5.203	0.030
-0.014	-5.210	0.027
-0.021	-5.213	0.021
-0.027	-5.210	0.014
-0.029	-5.202	0.010
-0.027	-5.193	0.008
0.560	-5.381	-0.571
0.568	-5.378	-0.567
0.576	-5.382	-0.563
0.579	-5.389	-0.559
0.578	-5.398	-0.557
0.572	-5.405	-0.558
0.564	-5.408	-0.562
0.556	-5.404	-0.567
0.553	-5.397	-0.571
0.554	-5.388	-0.572
0.632	-5.472	-1.011
0.641	-5.470	-1.011
0.649	-5.473	-1.009
0.654	-5.480	-1.006
0.654	-5.489	-1.004
0.648	-5.496	-1.004
0.640	-5.499	-1.005
0.631	-5.496	-1.007
0.626	-5.489	-1.009
0.626	-5.480	-1.011
-0.100	-6.083	0.075
-0.099	-6.078	0.082
-0.099	-6.078	0.091
-0.101	-6.083	0.099
-0.104	-6.091	0.101
-0.107	-6.100	0.098
-0.109	-6.105	0.091
-0.109	-6.105	0.082
-0.106	-6.099	0.074
-0.103	-6.091	0.071
0.626	-6.360	0.101
0.624	-6.353	0.107
0.620	-6.351	0.115
0.617	-6.355	0.122
0.614	-6.363	0.126
0.614	-6.372	0.125
0.616	-6.379	0.119
0.619	-6.381	0.111
0.623	-6.377	0.103
0.625	-6.369	0.099
0.883	-6.302	0.354
0.880	-6.293	0.354
0.874	-6.288	0.359
0.867	-6.288	0.366
0.862	-6.293	0.372
0.862	-6.302	0.375
0.865	-6.311	0.374
0.871	-6.316	0.369
0.877	-6.316	0.363
0.882	-6.311	0.357
-0.126	-6.187	0.104
-0.124	-6.180	0.098
-0.119	-6.177	0.091
-0.112	-6.179	0.086
-0.105	-6.185	0.084
-0.102	-6.194	0.087
-0.103	-6.201	0.093
-0.109	-6.204	0.100
-0.116	-6.202	0.105
-0.123	-6.195	0.107
-0.623	-6.542	-0.449
-0.624	-6.535	-0.454
-0.621	-6.531	-0.462
-0.615	-6.532	-0.469
-0.609	-6.537	-0.473
-0.604	-6.545	-0.471
-0.603	-6.552	-0.465
-0.606	-6.556	-0.457
-0.612	-6.555	-0.450
-0.618	-6.549	-0.447
-0.731	-6.651	-0.497
-0.731	-6.643	-0.493
-0.731	-6.634	-0.495
-0.731	-6.627	-0.501
-0.731	-6.626	-0.510
-0.731	-6.630	-0.519
-0.731	-6.638	-0.523
-0.731	-6.647	-0.521
-0.731	-6.654	-0.515
-0.731	-6.655	-0.506
-0.110	-6.295	0.095
-0.108	-6.287	0.100
-0.111	-6.280	0.105
-0.118	-6.277	0.109
-0.127	-6.279	0.111
-0.134	-6.285	0.110
-0.136	-6.293	0.105
-0.133	-6.300	0.100
-0.126	-6.303	0.096
-0.117	-6.301	0.094
0.098	-6.687	0.746
0.101	-6.679	0.751
0.097	-6.672	0.756
0.090	-6.668	0.760
0.081	-6.670	0.762
0.074	-6.676	0.760
0.072	-6.684	0.756
0.075	-6.691	0.751
0.082	-6.694	0.747
0.091	-6.693	0.745
-0.139	-6.378	0.107
-0.131	-6.374	0.108
-0.122	-6.377	0.110
-0.116	-6.384	0.112
-0.116	-6.393	0.112
-0.121	-6.401	0.112
-0.129	-6.404	0.111
-0.138	-6.402	0.109
-0.144	-6.395	0.107
-0.144	-6.385	0.107
0.017	-6.430	-0.741
0.026	-6.426	-0.740
0.034	-6.429	-0.738
0.040	-6.436	-0.736
0.040	-6.445	-0.736
0.035	-6.453	-0.736
0.027	-6.456	-0.737
0.018	-6.454	-0.739
0.012	-6.447	-0.741
0.012	-6.438	-0.741
-0.126	-6.495	0.110
-0.124	-6.486	0.113
-0.127	-6.479	0.117
-0.135	-6.475	0.121
-0.143	-6.476	0.123
-0.150	-6.482	0.122
-0.153	-6.491	0.119
-0.149	-6.498	0.115
-0.142	-6.502	0.111
-0.133	-6.501	0.110
0.071	-6.807	0.839
0.073	-6.799	0.842
0.070	-6.791	0.846
0.062	-6.787	0.849
0.053	-6.789	0.851
0.046	-6.795	0.851
0.044	-6.803	0.848
0.047	-6.811	0.843
0.055	-6.815	0.840
0.064	-6.813	0.838
-0.147	-6.577	0.113
-0.141	-6.575	0.119
-0.136	-6.578	0.126
-0.135	-6.585	0.133
-0.139	-6.593	0.135
-0.145	-6.599	0.133
-0.152	-6.601	0.127
-0.157	-6.598	0.120
-0.157	-6.592	0.113
-0.154	-6.583	0.111
0.391	-6.955	-0.355
0.398	-6.953	-0.349
0.403	-6.956	-0.341
0.403	-6.963	-0.335
0.400	-6.971	-0.332
0.393	-6.977	-0.335
0.386	-6.980	-0.341
0.382	-6.977	-0.348
0.381	-6.970	-0.354
0.385	-6.962	-0.357
-0.149	-6.682	0.119
-0.147	-6.677	0.126
-0.148	-6.675	0.135
-0.152	-6.679	0.143
-0.158	-6.685	0.146
-0.163	-6.693	0.143
-0.165	-6.698	0.136
-0.164	-6.699	0.127
-0.160	-6.696	0.119
-0.154	-6.689	0.116
0.516	-7.193	0.270
0.519	-7.188	0.277
0.518	-7.187	0.286
0.513	-7.190	0.294
0.508	-7.196	0.297
0.502	-7.204	0.294
0.500	-7.209	0.287
0.501	-7.210	0.278
[...]
         <CellData>
           <DataArray type="Float32" Name="combinedRootClassID" NumberOfComponents="1" format="ascii">
 -5.000e+00 -5.000e+00 -5.000e+00 -5.000e+00 -5.000e+00 -5.000e+00 -5.000e+00 -5.000e+00 -5.000e+00 -5.000e+00 -5.000e+00 -5.000e+00 -2.000e+00 -2.000e+00 -2.000e+00 -2.000e+00 -2.000e+00 -2.000e+00 -2.000e+00 -2.000e+00 -2.000e+00 -2.000e+00 -7.000e+00 -7.000e+00 -7.000e+00 -7.000e+00 -7.000e+00 -7.000e+00 -7.000e+00 -7.000e+00 -7.000e+00 -7.000e+00 -7.000e+00 -7.000e+00 -7.000e+00 -7.000e+00 -7.000e+00 -7.000e+00 -7.000e+00 -7.000e+00 -7.000e+00 -7.000e+00 -7.000e+00 -7.000e+00 -7.000e+00 -7.000e+00 -7.000e+00 -7.000e+00 -7.000e+00 -7.000e+00 -7.000e+00 -7.000e+00 -7.000e+00 -7.000e+00 -7.000e+00 -7.000e+00 -7.000e+00 -7.000e+00 -7.000e+00 -7.000e+00 -7.000e+00 -7.000e+00 -7.000e+00 -7.000e+00 -7.000e+00 -7.000e+00 -7.000e+00 -7.000e+00 -7.000e+00 -7.000e+00 -7.000e+00 -7.000e+00 -7.000e+00 -7.000e+00 -9.000e+00 -4.000e+00 -4.000e+00 -4.000e+00 -4.000e+00 -4.000e+00 -4.000e+00 -4.000e+00 -4.000e+00 -4.000e+00 -4.000e+00 -4.000e+00 -4.000e+00 -4.000e+00 -4.000e+00 -4.000e+00 -4.000e+00 -4.000e+00 -4.000e+00 -4.000e+00 -4.000e+00
           </DataArray>
           <DataArray type="Float32" Name="nitrate/Cmin" NumberOfComponents="1" format="ascii">
 1.000e-03 1.000e-03 1.000e-03 1.000e-03 1.000e-03 1.000e-03 1.000e-03 1.000e-03 1.000e-03 1.000e-03 1.000e-03 1.000e-03 1.000e-03 1.000e-03 1.000e-03 1.000e-03 1.000e-03 1.000e-03 1.000e-03 1.000e-03 1.000e-03 1.000e-03 1.000e-03 1.000e-03 1.000e-03 1.000e-03 1.000e-03 1.000e-03 1.000e-03 1.000e-03 1.000e-03 1.000e-03 1.000e-03 1.000e-03 1.000e-03 1.000e-03 1.000e-03 1.000e-03 1.000e-03 1.000e-03 1.000e-03 1.000e-03 1.000e-03 1.000e-03 1.000e-03 1.000e-03 1.000e-03 1.000e-03 1.000e-03 1.000e-03 1.000e-03 1.000e-03 1.000e-03 1.000e-03 1.000e-03 1.000e-03 1.000e-03 1.000e-03 1.000e-03 1.000e-03 1.000e-03 1.000e-03 1.000e-03 1.000e-03 1.000e-03 1.000e-03 1.000e-03 1.000e-03 1.000e-03 1.000e-03 1.000e-03 1.000e-03 1.000e-03 1.000e-03 1.000e-03 1.000e-03 1.000e-03 1.000e-03 1.000e-03 1.000e-03 1.000e-03 1.000e-03 1.000e-03 1.000e-03 1.000e-03 1.000e-03 1.000e-03 1.000e-03 1.000e-03 1.000e-03 1.000e-03 1.000e-03 1.000e-03 1.000e-03 1.000e-03
           </DataArray>
           <DataArray type="Float32" Name="nitrate/Imax" NumberOfComponents="1" format="ascii">
 1.900e+00 1.900e+00 1.900e+00 1.900e+00 1.900e+00 1.900e+00 1.900e+00 1.900e+00 1.900e+00 1.900e+00 1.900e+00 1.900e+00 1.900e+00 1.900e+00 1.900e+00 1.900e+00 1.900e+00 1.900e+00 1.900e+00 1.900e+00 1.900e+00 1.900e+00 1.900e+00 1.900e+00 1.900e+00 1.900e+00 1.900e+00 1.900e+00 1.900e+00 1.900e+00 1.900e+00 1.900e+00 1.900e+00 1.900e+00 1.900e+00 1.900e+00 1.900e+00 1.900e+00 1.900e+00 1.900e+00 1.900e+00 1.900e+00 1.900e+00 1.900e+00 1.900e+00 1.900e+00 1.900e+00 1.900e+00 1.900e+00 1.900e+00 1.900e+00 1.900e+00 1.900e+00 1.900e+00 1.900e+00 1.900e+00 1.900e+00 1.900e+00 1.900e+00 1.900e+00 1.900e+00 1.900e+00 1.900e+00 1.900e+00 1.900e+00 1.900e+00 1.900e+00 1.900e+00 1.900e+00 1.900e+00 1.900e+00 1.900e+00 1.900e+00 1.900e+00 1.900e+00 1.900e+00 1.900e+00 1.900e+00 1.900e+00 1.900e+00 1.900e+00 1.900e+00 1.900e+00 1.900e+00 1.900e+00 1.900e+00 1.900e+00 1.900e+00 1.900e+00 1.900e+00 1.900e+00 1.900e+00 1.900e+00 1.900e+00 1.900e+00
           </DataArray>
           <DataArray type="Float32" Name="nitrate/Km" NumberOfComponents="1" format="ascii">
 1.610e-02 1.610e-02 1.610e-02 1.610e-02 1.610e-02 1.610e-02 1.610e-02 1.610e-02 1.610e-02 1.610e-02 1.610e-02 1.610e-02 1.610e-02 1.610e-02 1.610e-02 1.610e-02 1.610e-02 1.610e-02 1.610e-02 1.610e-02 1.610e-02 1.610e-02 1.610e-02 1.610e-02 1.610e-02 1.610e-02 1.610e-02 1.610e-02 1.610e-02 1.610e-02 1.610e-02 1.610e-02 1.610e-02 1.610e-02 1.610e-02 1.610e-02 1.610e-02 1.610e-02 1.610e-02 1.610e-02 1.610e-02 1.610e-02 1.610e-02 1.610e-02 1.610e-02 1.610e-02 1.610e-02 1.610e-02 1.610e-02 1.610e-02 1.610e-02 1.610e-02 1.610e-02 1.610e-02 1.610e-02 1.610e-02 1.610e-02 1.610e-02 1.610e-02 1.610e-02 1.610e-02 1.610e-02 1.610e-02 1.610e-02 1.610e-02 1.610e-02 1.610e-02 1.610e-02 1.610e-02 1.610e-02 1.610e-02 1.610e-02 1.610e-02 1.610e-02 1.610e-02 1.610e-02 1.610e-02 1.610e-02 1.610e-02 1.610e-02 1.610e-02 1.610e-02 1.610e-02 1.610e-02 1.610e-02 1.610e-02 1.610e-02 1.610e-02 1.610e-02 1.610e-02 1.610e-02 1.610e-02 1.610e-02 1.610e-02 1.610e-02
           </DataArray>
           <DataArray type="Float32" Name="nitrate/minimalNutrientConcentration" NumberOfComponents="1" format="ascii">
 6.000e+02 6.000e+02 6.000e+02 6.000e+02 6.000e+02 6.000e+02 6.000e+02 6.000e+02 6.000e+02 6.000e+02 6.000e+02 6.000e+02 6.000e+02 6.000e+02 6.000e+02 6.000e+02 6.000e+02 6.000e+02 6.000e+02 6.000e+02 6.000e+02 6.000e+02 6.000e+02 6.000e+02 6.000e+02 6.000e+02 6.000e+02 6.000e+02 6.000e+02 6.000e+02 6.000e+02 6.000e+02 6.000e+02 6.000e+02 6.000e+02 6.000e+02 6.000e+02 6.000e+02 6.000e+02 6.000e+02 6.000e+02 6.000e+02 6.000e+02 6.000e+02 6.000e+02 6.000e+02 6.000e+02 6.000e+02 6.000e+02 6.000e+02 6.000e+02 6.000e+02 6.000e+02 6.000e+02 6.000e+02 6.000e+02 6.000e+02 6.000e+02 6.000e+02 6.000e+02 6.000e+02 6.000e+02 6.000e+02 6.000e+02 6.000e+02 6.000e+02 6.000e+02 6.000e+02 6.000e+02 6.000e+02 6.000e+02 6.000e+02 6.000e+02 6.000e+02 6.000e+02 6.000e+02 6.000e+02 6.000e+02 6.000e+02 6.000e+02 6.000e+02 6.000e+02 6.000e+02 6.000e+02 6.000e+02 6.000e+02 6.000e+02 6.000e+02 6.000e+02 6.000e+02 6.000e+02 6.000e+02 6.000e+02 6.000e+02 6.000e+02
           </DataArray>
           <DataArray type="Float32" Name="nitrate/nutrientConcentrationAtTheRootSurface" NumberOfComponents="1" format="ascii">
 5.176e-01 5.618e-01 6.746e-01 5.176e-01 5.886e-01 7.994e-01 5.176e-01 5.690e-01 7.438e-01 5.176e-01 5.805e-01 7.694e-01 5.178e-01 4.837e-01 4.506e-01 3.630e-01 3.157e-01 2.787e-01 2.235e-01 0.000e+00 0.000e+00 0.000e+00 5.208e-01 5.844e-01 5.284e-01 5.969e-01 6.054e-01 7.071e-01 6.193e-01 7.279e-01 6.285e-01 6.399e-01 6.525e-01 6.644e-01 6.739e-01 6.805e-01 6.875e-01 6.941e-01 5.418e-01 5.661e-01 7.035e-01 7.151e-01 7.202e-01 7.264e-01 7.327e-01 7.376e-01 7.409e-01 7.424e-01 7.417e-01 7.426e-01 5.500e-01 6.098e-01 7.425e-01 7.510e-01 7.599e-01 7.641e-01 7.670e-01 7.667e-01 7.618e-01 7.503e-01 7.379e-01 7.266e-01 5.590e-01 6.038e-01 7.273e-01 5.673e-01 6.259e-01 5.742e-01 6.020e-01 5.793e-01 6.404e-01 5.879e-01 6.093e-01 5.954e-01 7.459e-01 5.178e-01 5.746e-01 6.417e-01 7.042e-01 7.426e-01 7.673e-01 7.384e-01 7.063e-01 7.573e-01 7.417e-01 7.404e-01 8.192e-01 8.846e-01 8.941e-01 1.017e+00 1.106e+00 1.165e+00 1.282e+00 1.408e+00 1.511e+00
           </DataArray>
           <DataArray type="Float32" Name="nitrate/optimalNutrientConcentration" NumberOfComponents="1" format="ascii">
 1.200e+03 1.200e+03 1.200e+03 1.200e+03 1.200e+03 1.200e+03 1.200e+03 1.200e+03 1.200e+03 1.200e+03 1.200e+03 1.200e+03 1.200e+03 1.200e+03 1.200e+03 1.200e+03 1.200e+03 1.200e+03 1.200e+03 1.200e+03 1.200e+03 1.200e+03 1.200e+03 1.200e+03 1.200e+03 1.200e+03 1.200e+03 1.200e+03 1.200e+03 1.200e+03 1.200e+03 1.200e+03 1.200e+03 1.200e+03 1.200e+03 1.200e+03 1.200e+03 1.200e+03 1.200e+03 1.200e+03 1.200e+03 1.200e+03 1.200e+03 1.200e+03 1.200e+03 1.200e+03 1.200e+03 1.200e+03 1.200e+03 1.200e+03 1.200e+03 1.200e+03 1.200e+03 1.200e+03 1.200e+03 1.200e+03 1.200e+03 1.200e+03 1.200e+03 1.200e+03 1.200e+03 1.200e+03 1.200e+03 1.200e+03 1.200e+03 1.200e+03 1.200e+03 1.200e+03 1.200e+03 1.200e+03 1.200e+03 1.200e+03 1.200e+03 1.200e+03 1.200e+03 1.200e+03 1.200e+03 1.200e+03 1.200e+03 1.200e+03 1.200e+03 1.200e+03 1.200e+03 1.200e+03 1.200e+03 1.200e+03 1.200e+03 1.200e+03 1.200e+03 1.200e+03 1.200e+03 1.200e+03 1.200e+03 1.200e+03 1.200e+03
           </DataArray>
           <DataArray type="Float32" Name="nitrate/rootSegmentMinimalNutrientContent" NumberOfComponents="1" format="ascii">
 1.632e-01 1.811e-01 1.406e-01 1.632e-01 1.811e-01 1.406e-01 1.632e-01 1.811e-01 1.406e-01 1.632e-01 1.811e-01 1.406e-01 5.806e+00 5.260e+00 8.735e+00 4.488e+00 4.462e+00 6.659e+00 6.322e+00 6.436e+00 6.333e+00 1.809e+00 3.361e-02 1.807e-02 3.434e-02 1.919e-02 3.233e-02 1.451e-02 3.367e-02 6.420e-03 3.186e-02 3.551e-02 3.347e-02 3.301e-02 3.480e-02 3.326e-02 2.560e-02 2.772e-02 3.323e-02 1.934e-02 2.775e-02 2.614e-02 2.872e-02 2.220e-02 1.819e-02 1.995e-02 1.684e-02 1.822e-02 1.401e-02 1.201e-02 3.476e-02 1.597e-02 1.409e-02 1.346e-02 9.427e-03 7.711e-03 1.001e-02 8.115e-03 4.778e-03 4.408e-03 3.663e-03 2.214e-03 3.529e-02 5.241e-03 5.542e-04 3.495e-02 1.267e-02 3.587e-02 5.687e-03 3.463e-02 1.360e-02 3.486e-02 1.428e-02 3.602e-02 1.786e-02 3.227e-01 3.135e-01 3.050e-01 2.972e-01 2.901e-01 2.842e-01 2.794e-01 2.756e-01 2.723e-01 2.693e-01 2.666e-01 2.641e-01 2.619e-01 2.600e-01 2.583e-01 2.569e-01 2.557e-01 2.549e-01 2.542e-01 2.538e-01
           </DataArray>
           <DataArray type="Float32" Name="nitrate/rootSegmentNutrientUptake" NumberOfComponents="1" format="ascii">
 0.000e+00 1.418e-01 4.988e-02 0.000e+00 1.471e-01 5.356e-02 0.000e+00 1.454e-01 5.265e-02 0.000e+00 1.466e-01 5.353e-02 0.000e+00 1.412e+00 1.200e+00 8.691e-01 7.004e-01 5.296e-01 2.958e-01 0.000e+00 0.000e+00 0.000e+00 0.000e+00 2.768e-02 0.000e+00 2.941e-02 0.000e+00 1.594e-02 0.000e+00 4.229e-03 0.000e+00 0.000e+00 0.000e+00 0.000e+00 0.000e+00 0.000e+00 0.000e+00 0.000e+00 0.000e+00 2.958e-02 0.000e+00 0.000e+00 0.000e+00 0.000e+00 0.000e+00 0.000e+00 0.000e+00 0.000e+00 0.000e+00 0.000e+00 0.000e+00 2.098e-02 0.000e+00 0.000e+00 0.000e+00 0.000e+00 0.000e+00 0.000e+00 0.000e+00 0.000e+00 0.000e+00 0.000e+00 0.000e+00 3.439e-03 0.000e+00 0.000e+00 1.387e-02 0.000e+00 3.733e-03 0.000e+00 1.490e-02 0.000e+00 1.564e-02 0.000e+00 0.000e+00 0.000e+00 1.649e+00 1.611e+00 1.564e+00 1.527e+00 1.459e+00 1.340e+00 1.219e+00 1.156e+00 1.036e+00 9.387e-01 8.883e-01 8.144e-01 7.138e-01 6.412e-01 5.359e-01 4.171e-01 3.007e-01 1.880e-01 7.520e-02
           </DataArray>
           <DataArray type="Float32" Name="nitrate/rootSegmentOptimalNutrientContent" NumberOfComponents="1" format="ascii">
 3.265e-01 3.621e-01 2.812e-01 3.265e-01 3.621e-01 2.812e-01 3.265e-01 3.621e-01 2.812e-01 3.265e-01 3.621e-01 2.812e-01 1.161e+01 1.052e+01 1.747e+01 8.976e+00 8.924e+00 1.332e+01 1.264e+01 1.287e+01 1.267e+01 3.619e+00 6.721e-02 3.613e-02 6.868e-02 3.838e-02 6.466e-02 2.902e-02 6.733e-02 1.284e-02 6.372e-02 7.102e-02 6.693e-02 6.602e-02 6.960e-02 6.651e-02 5.119e-02 5.545e-02 6.645e-02 3.867e-02 5.549e-02 5.227e-02 5.744e-02 4.440e-02 3.638e-02 3.990e-02 3.367e-02 3.644e-02 2.802e-02 2.402e-02 6.953e-02 3.193e-02 2.817e-02 2.691e-02 1.885e-02 1.542e-02 2.002e-02 1.623e-02 9.555e-03 8.817e-03 7.326e-03 4.427e-03 7.057e-02 1.048e-02 1.108e-03 6.989e-02 2.533e-02 7.174e-02 1.137e-02 6.926e-02 2.719e-02 6.972e-02 2.857e-02 7.204e-02 3.573e-02 6.454e-01 6.270e-01 6.100e-01 5.944e-01 5.802e-01 5.683e-01 5.587e-01 5.512e-01 5.446e-01 5.386e-01 5.331e-01 5.282e-01 5.238e-01 5.199e-01 5.166e-01 5.138e-01 5.115e-01 5.097e-01 5.084e-01 5.077e-01
           </DataArray>
           <DataArray type="Float32" Name="parentRootClassID" NumberOfComponents="1" format="ascii">
 -2.000e+00 -2.000e+00 -2.000e+00 -2.000e+00 -2.000e+00 -2.000e+00 -2.000e+00 -2.000e+00 -2.000e+00 -2.000e+00 -2.000e+00 -2.000e+00 -3.000e+00 -3.000e+00 -3.000e+00 -3.000e+00 -3.000e+00 -3.000e+00 -3.000e+00 -3.000e+00 -3.000e+00 -3.000e+00 -4.000e+00 -4.000e+00 -4.000e+00 -4.000e+00 -4.000e+00 -4.000e+00 -4.000e+00 -4.000e+00 -4.000e+00 -4.000e+00 -4.000e+00 -4.000e+00 -4.000e+00 -4.000e+00 -4.000e+00 -4.000e+00 -4.000e+00 -4.000e+00 -4.000e+00 -4.000e+00 -4.000e+00 -4.000e+00 -4.000e+00 -4.000e+00 -4.000e+00 -4.000e+00 -4.000e+00 -4.000e+00 -4.000e+00 -4.000e+00 -4.000e+00 -4.000e+00 -4.000e+00 -4.000e+00 -4.000e+00 -4.000e+00 -4.000e+00 -4.000e+00 -4.000e+00 -4.000e+00 -4.000e+00 -4.000e+00 -4.000e+00 -4.000e+00 -4.000e+00 -4.000e+00 -4.000e+00 -4.000e+00 -4.000e+00 -4.000e+00 -4.000e+00 -4.000e+00 -4.000e+00 -3.000e+00 -3.000e+00 -3.000e+00 -3.000e+00 -3.000e+00 -3.000e+00 -3.000e+00 -3.000e+00 -3.000e+00 -3.000e+00 -3.000e+00 -3.000e+00 -3.000e+00 -3.000e+00 -3.000e+00 -3.000e+00 -3.000e+00 -3.000e+00 -3.000e+00 -3.000e+00
           </DataArray>
           <DataArray type="Float32" Name="plantID" NumberOfComponents="1" format="ascii">
 7.000e+00 7.000e+00 7.000e+00 7.000e+00 7.000e+00 7.000e+00 7.000e+00 7.000e+00 7.000e+00 7.000e+00 7.000e+00 7.000e+00 7.000e+00 7.000e+00 7.000e+00 7.000e+00 7.000e+00 7.000e+00 7.000e+00 7.000e+00 7.000e+00 7.000e+00 7.000e+00 7.000e+00 7.000e+00 7.000e+00 7.000e+00 7.000e+00 7.000e+00 7.000e+00 7.000e+00 7.000e+00 7.000e+00 7.000e+00 7.000e+00 7.000e+00 7.000e+00 7.000e+00 7.000e+00 7.000e+00 7.000e+00 7.000e+00 7.000e+00 7.000e+00 7.000e+00 7.000e+00 7.000e+00 7.000e+00 7.000e+00 7.000e+00 7.000e+00 7.000e+00 7.000e+00 7.000e+00 7.000e+00 7.000e+00 7.000e+00 7.000e+00 7.000e+00 7.000e+00 7.000e+00 7.000e+00 7.000e+00 7.000e+00 7.000e+00 7.000e+00 7.000e+00 7.000e+00 7.000e+00 7.000e+00 7.000e+00 7.000e+00 7.000e+00 7.000e+00 7.000e+00 7.000e+00 7.000e+00 7.000e+00 7.000e+00 7.000e+00 7.000e+00 7.000e+00 7.000e+00 7.000e+00 7.000e+00 7.000e+00 7.000e+00 7.000e+00 7.000e+00 7.000e+00 7.000e+00 7.000e+00 7.000e+00 7.000e+00 7.000e+00
           </DataArray>
           <DataArray type="Float32" Name="plantTypeID" NumberOfComponents="1" format="ascii">
 0.000e+00 0.000e+00 0.000e+00 0.000e+00 0.000e+00 0.000e+00 0.000e+00 0.000e+00 0.000e+00 0.000e+00 0.000e+00 0.000e+00 0.000e+00 0.000e+00 0.000e+00 0.000e+00 0.000e+00 0.000e+00 0.000e+00 0.000e+00 0.000e+00 0.000e+00 0.000e+00 0.000e+00 0.000e+00 0.000e+00 0.000e+00 0.000e+00 0.000e+00 0.000e+00 0.000e+00 0.000e+00 0.000e+00 0.000e+00 0.000e+00 0.000e+00 0.000e+00 0.000e+00 0.000e+00 0.000e+00 0.000e+00 0.000e+00 0.000e+00 0.000e+00 0.000e+00 0.000e+00 0.000e+00 0.000e+00 0.000e+00 0.000e+00 0.000e+00 0.000e+00 0.000e+00 0.000e+00 0.000e+00 0.000e+00 0.000e+00 0.000e+00 0.000e+00 0.000e+00 0.000e+00 0.000e+00 0.000e+00 0.000e+00 0.000e+00 0.000e+00 0.000e+00 0.000e+00 0.000e+00 0.000e+00 0.000e+00 0.000e+00 0.000e+00 0.000e+00 0.000e+00 0.000e+00 0.000e+00 0.000e+00 0.000e+00 0.000e+00 0.000e+00 0.000e+00 0.000e+00 0.000e+00 0.000e+00 0.000e+00 0.000e+00 0.000e+00 0.000e+00 0.000e+00 0.000e+00 0.000e+00 0.000e+00 0.000e+00 0.000e+00
           </DataArray>
           <DataArray type="Float32" Name="rootCircumference" NumberOfComponents="1" format="ascii">
 2.136e-01 2.136e-01 2.136e-01 2.136e-01 2.136e-01 2.136e-01 2.136e-01 2.136e-01 2.136e-01 2.136e-01 2.136e-01 2.136e-01 1.320e+00 1.307e+00 1.300e+00 1.291e+00 1.287e+00 1.284e+00 1.280e+00 1.276e+00 1.273e+00 1.265e+00 9.431e-02 9.425e-02 9.430e-02 9.425e-02 9.428e-02 9.425e-02 9.428e-02 9.425e-02 9.428e-02 9.427e-02 9.427e-02 9.427e-02 9.427e-02 9.427e-02 9.427e-02 9.426e-02 9.430e-02 9.425e-02 9.426e-02 9.426e-02 9.426e-02 9.426e-02 9.426e-02 9.426e-02 9.426e-02 9.425e-02 9.425e-02 9.425e-02 9.430e-02 9.425e-02 9.425e-02 9.425e-02 9.425e-02 9.425e-02 9.425e-02 9.425e-02 9.425e-02 9.425e-02 9.425e-02 9.425e-02 9.429e-02 9.425e-02 9.425e-02 9.429e-02 9.425e-02 9.429e-02 9.425e-02 9.429e-02 9.425e-02 9.428e-02 9.425e-02 9.428e-02 9.426e-02 3.189e-01 3.143e-01 3.100e-01 3.060e-01 3.023e-01 2.992e-01 2.967e-01 2.947e-01 2.929e-01 2.913e-01 2.898e-01 2.885e-01 2.873e-01 2.862e-01 2.853e-01 2.845e-01 2.839e-01 2.834e-01 2.830e-01 2.828e-01
           </DataArray>
           <DataArray type="Float32" Name="rootClassID" NumberOfComponents="1" format="ascii">
 9.900e+01 9.900e+01 9.900e+01 9.900e+01 9.900e+01 9.900e+01 9.900e+01 9.900e+01 9.900e+01 9.900e+01 9.900e+01 9.900e+01 -2.000e+00 -2.000e+00 -2.000e+00 -2.000e+00 -2.000e+00 -2.000e+00 -2.000e+00 -2.000e+00 -2.000e+00 -2.000e+00 9.700e+01 9.700e+01 9.700e+01 9.700e+01 9.700e+01 9.700e+01 9.700e+01 9.700e+01 9.700e+01 9.700e+01 9.700e+01 9.700e+01 9.700e+01 9.700e+01 9.700e+01 9.700e+01 9.700e+01 9.700e+01 9.700e+01 9.700e+01 9.700e+01 9.700e+01 9.700e+01 9.700e+01 9.700e+01 9.700e+01 9.700e+01 9.700e+01 9.700e+01 9.700e+01 9.700e+01 9.700e+01 9.700e+01 9.700e+01 9.700e+01 9.700e+01 9.700e+01 9.700e+01 9.700e+01 9.700e+01 9.700e+01 9.700e+01 9.700e+01 9.700e+01 9.700e+01 9.700e+01 9.700e+01 9.700e+01 9.700e+01 9.700e+01 9.700e+01 9.700e+01 9.700e+01 -4.000e+00 -4.000e+00 -4.000e+00 -4.000e+00 -4.000e+00 -4.000e+00 -4.000e+00 -4.000e+00 -4.000e+00 -4.000e+00 -4.000e+00 -4.000e+00 -4.000e+00 -4.000e+00 -4.000e+00 -4.000e+00 -4.000e+00 -4.000e+00 -4.000e+00 -4.000e+00
           </DataArray>
           <DataArray type="Float32" Name="rootDiameter" NumberOfComponents="1" format="ascii">
 6.800e-02 6.800e-02 6.800e-02 6.800e-02 6.800e-02 6.800e-02 6.800e-02 6.800e-02 6.800e-02 6.800e-02 6.800e-02 6.800e-02 4.201e-01 4.160e-01 4.137e-01 4.109e-01 4.097e-01 4.087e-01 4.074e-01 4.063e-01 4.051e-01 4.027e-01 3.002e-02 3.000e-02 3.002e-02 3.000e-02 3.001e-02 3.000e-02 3.001e-02 3.000e-02 3.001e-02 3.001e-02 3.001e-02 3.001e-02 3.001e-02 3.001e-02 3.001e-02 3.001e-02 3.002e-02 3.000e-02 3.000e-02 3.000e-02 3.000e-02 3.000e-02 3.000e-02 3.000e-02 3.000e-02 3.000e-02 3.000e-02 3.000e-02 3.002e-02 3.000e-02 3.000e-02 3.000e-02 3.000e-02 3.000e-02 3.000e-02 3.000e-02 3.000e-02 3.000e-02 3.000e-02 3.000e-02 3.001e-02 3.000e-02 3.000e-02 3.001e-02 3.000e-02 3.001e-02 3.000e-02 3.001e-02 3.000e-02 3.001e-02 3.000e-02 3.001e-02 3.000e-02 1.015e-01 1.000e-01 9.868e-02 9.741e-02 9.624e-02 9.525e-02 9.444e-02 9.380e-02 9.324e-02 9.272e-02 9.225e-02 9.182e-02 9.144e-02 9.110e-02 9.081e-02 9.056e-02 9.036e-02 9.020e-02 9.009e-02 9.002e-02
           </DataArray>
           <DataArray type="Float32" Name="rootHairDensity" NumberOfComponents="1" format="ascii">
 2.000e+03 2.000e+03 2.000e+03 2.000e+03 2.000e+03 2.000e+03 2.000e+03 2.000e+03 2.000e+03 2.000e+03 2.000e+03 2.000e+03 0.000e+00 0.000e+00 0.000e+00 0.000e+00 0.000e+00 0.000e+00 0.000e+00 0.000e+00 0.000e+00 0.000e+00 2.000e+03 2.000e+03 2.000e+03 2.000e+03 2.000e+03 2.000e+03 2.000e+03 2.000e+03 2.000e+03 2.000e+03 2.000e+03 2.000e+03 2.000e+03 2.000e+03 2.000e+03 2.000e+03 2.000e+03 2.000e+03 2.000e+03 2.000e+03 2.000e+03 2.000e+03 2.000e+03 2.000e+03 2.000e+03 2.000e+03 2.000e+03 2.000e+03 2.000e+03 2.000e+03 2.000e+03 2.000e+03 2.000e+03 2.000e+03 2.000e+03 2.000e+03 2.000e+03 2.000e+03 2.000e+03 2.000e+03 2.000e+03 2.000e+03 2.000e+03 2.000e+03 2.000e+03 2.000e+03 2.000e+03 2.000e+03 2.000e+03 2.000e+03 2.000e+03 2.000e+03 3.000e+03 2.000e+03 2.000e+03 2.000e+03 2.000e+03 2.000e+03 2.000e+03 2.000e+03 2.000e+03 2.000e+03 2.000e+03 2.000e+03 2.000e+03 2.000e+03 2.000e+03 2.000e+03 2.000e+03 2.000e+03 2.000e+03 2.000e+03 2.000e+03
           </DataArray>
           <DataArray type="Float32" Name="rootHairDiameter" NumberOfComponents="1" format="ascii">
 5.000e-04 5.000e-04 5.000e-04 5.000e-04 5.000e-04 5.000e-04 5.000e-04 5.000e-04 5.000e-04 5.000e-04 5.000e-04 5.000e-04 5.000e-04 5.000e-04 5.000e-04 5.000e-04 5.000e-04 5.000e-04 5.000e-04 5.000e-04 5.000e-04 5.000e-04 5.000e-04 5.000e-04 5.000e-04 5.000e-04 5.000e-04 5.000e-04 5.000e-04 5.000e-04 5.000e-04 5.000e-04 5.000e-04 5.000e-04 5.000e-04 5.000e-04 5.000e-04 5.000e-04 5.000e-04 5.000e-04 5.000e-04 5.000e-04 5.000e-04 5.000e-04 5.000e-04 5.000e-04 5.000e-04 5.000e-04 5.000e-04 5.000e-04 5.000e-04 5.000e-04 5.000e-04 5.000e-04 5.000e-04 5.000e-04 5.000e-04 5.000e-04 5.000e-04 5.000e-04 5.000e-04 5.000e-04 5.000e-04 5.000e-04 5.000e-04 5.000e-04 5.000e-04 5.000e-04 5.000e-04 5.000e-04 5.000e-04 5.000e-04 5.000e-04 5.000e-04 5.000e-04 5.000e-04 5.000e-04 5.000e-04 5.000e-04 5.000e-04 5.000e-04 5.000e-04 5.000e-04 5.000e-04 5.000e-04 5.000e-04 5.000e-04 5.000e-04 5.000e-04 5.000e-04 5.000e-04 5.000e-04 5.000e-04 5.000e-04 5.000e-04
           </DataArray>
           <DataArray type="Float32" Name="rootHairLength" NumberOfComponents="1" format="ascii">