<?xml version="1.0"?>
<VTKFile type="UnstructuredGrid" version="0.1" byte_order="LittleEndian">
   <UnstructuredGrid>
      <Piece NumberOfPoints="260" NumberOfCells="24">
         <Points>
            <DataArray type="Float32" Name="Position" NumberOfComponents="3" format="ascii">
-0.142	-5.003	0.145
-0.030	-5.002	0.201
0.094	-5.001	0.180
0.182	-4.999	0.091
0.201	-4.998	-0.034
0.142	-4.997	-0.145
0.030	-4.998	-0.201
-0.094	-4.999	-0.180
-0.182	-5.001	-0.091
-0.201	-5.002	0.034
-0.150	-4.252	0.152
-0.038	-4.252	0.208
0.086	-4.250	0.187
0.174	-4.249	0.098
0.193	-4.248	-0.026
0.135	-4.248	-0.137
0.023	-4.249	-0.193
-0.100	-4.250	-0.172
-0.188	-4.251	-0.083
-0.207	-4.252	0.041
-0.154	-3.561	0.152
-0.042	-3.561	0.209
0.081	-3.560	0.189
0.169	-3.559	0.100
0.188	-3.559	-0.023
0.131	-3.559	-0.135
0.020	-3.560	-0.191
-0.104	-3.560	-0.171
-0.192	-3.561	-0.082
-0.211	-3.561	0.041
-0.161	-2.401	0.153
-0.050	-2.400	0.209
0.073	-2.400	0.190
0.161	-2.399	0.101
0.181	-2.399	-0.022
0.124	-2.400	-0.133
0.013	-2.400	-0.189
-0.110	-2.401	-0.170
-0.198	-2.401	-0.081
-0.218	-2.401	0.042
-0.162	-1.800	0.150
-0.051	-1.800	0.207
0.072	-1.800	0.188
0.160	-1.800	0.100
0.180	-1.801	-0.023
0.124	-1.801	-0.134
0.013	-1.800	-0.191
-0.110	-1.800	-0.171
-0.199	-1.800	-0.084
-0.218	-1.800	0.039
-0.159	-1.200	0.150
-0.048	-1.200	0.207
0.075	-1.200	0.188
0.163	-1.201	0.100
0.183	-1.201	-0.023
0.127	-1.201	-0.134
0.016	-1.200	-0.190
-0.107	-1.200	-0.171
-0.195	-1.200	-0.083
-0.215	-1.200	0.039
-0.158	-0.300	0.148
-0.048	-0.299	0.204
0.075	-0.299	0.185
0.163	-0.300	0.098
0.182	-0.300	-0.025
0.126	-0.301	-0.136
0.016	-0.301	-0.192
-0.107	-0.301	-0.173
-0.195	-0.301	-0.085
-0.215	-0.300	0.037
-0.159	0.560	0.144
-0.049	0.560	0.201
0.074	0.560	0.181
0.162	0.560	0.094
0.181	0.559	-0.029
0.125	0.559	-0.139
0.015	0.559	-0.196
-0.108	0.560	-0.177
-0.196	0.560	-0.089
-0.215	0.560	0.033
-0.154	1.440	0.144
-0.044	1.440	0.200
0.078	1.440	0.181
0.166	1.439	0.094
0.186	1.439	-0.029
0.130	1.439	-0.139
0.019	1.440	-0.196
-0.103	1.440	-0.176
-0.191	1.440	-0.089
-0.210	1.440	0.033
-0.153	2.316	0.144
-0.042	2.316	0.200
0.080	2.316	0.180
0.167	2.316	0.093
0.186	2.316	-0.029
0.130	2.316	-0.139
0.020	2.316	-0.196
-0.102	2.316	-0.176
-0.190	2.316	-0.089
-0.209	2.316	0.033
-0.153	2.469	0.144
-0.042	2.469	0.200
0.080	2.470	0.180
0.167	2.470	0.093
0.186	2.470	-0.029
0.130	2.470	-0.139
0.019	2.470	-0.195
-0.103	2.470	-0.176
-0.190	2.470	-0.088
-0.209	2.469	0.034
0.036	-5.006	-0.030
0.047	-5.005	-0.003
0.040	-5.002	0.025
0.018	-4.999	0.044
-0.011	-4.996	0.045
-0.036	-4.994	0.030
-0.047	-4.995	0.003
-0.040	-4.998	-0.025
-0.018	-5.001	-0.044
0.011	-5.004	-0.045
-0.034	-5.707	0.021
-0.023	-5.706	0.048
-0.030	-5.703	0.076
-0.052	-5.700	0.094
-0.081	-5.697	0.096
-0.105	-5.696	0.081
-0.116	-5.697	0.054
-0.109	-5.700	0.026
-0.087	-5.703	0.007
-0.059	-5.706	0.006
-0.096	-6.409	0.081
-0.085	-6.408	0.108
-0.092	-6.405	0.135
-0.114	-6.401	0.154
-0.142	-6.398	0.155
-0.167	-6.397	0.140
-0.177	-6.399	0.113
-0.170	-6.402	0.086
-0.149	-6.405	0.067
-0.120	-6.408	0.066
-0.168	-7.111	0.144
-0.158	-7.110	0.171
-0.165	-7.106	0.198
-0.187	-7.102	0.216
-0.215	-7.098	0.217
-0.239	-7.097	0.202
-0.249	-7.098	0.175
-0.242	-7.101	0.148
-0.220	-7.106	0.130
-0.192	-7.109	0.129
-0.266	-7.807	0.211
-0.256	-7.807	0.237
-0.264	-7.805	0.265
-0.286	-7.800	0.282
-0.314	-7.796	0.283
-0.337	-7.793	0.267
-0.347	-7.793	0.241
-0.340	-7.796	0.213
-0.318	-7.800	0.196
-0.290	-7.805	0.195
-0.385	-8.503	0.227
-0.375	-8.505	0.253
-0.382	-8.503	0.281
-0.403	-8.499	0.298
-0.431	-8.495	0.300
-0.455	-8.491	0.284
-0.465	-8.489	0.258
-0.457	-8.490	0.231
-0.436	-8.494	0.213
-0.408	-8.499	0.211
-0.511	-9.198	0.215
-0.501	-9.200	0.241
-0.508	-9.198	0.269
-0.530	-9.195	0.286
-0.558	-9.190	0.288
-0.581	-9.186	0.273
-0.591	-9.184	0.246
-0.584	-9.186	0.219
-0.562	-9.189	0.201
-0.534	-9.194	0.200
-0.625	-9.895	0.235
-0.615	-9.896	0.261
-0.622	-9.894	0.288
-0.643	-9.890	0.306
-0.671	-9.886	0.307
-0.695	-9.883	0.292
-0.705	-9.882	0.266
-0.698	-9.884	0.239
-0.676	-9.888	0.221
-0.648	-9.892	0.220
-0.720	-10.595	0.260
-0.710	-10.596	0.286
-0.717	-10.594	0.313
-0.738	-10.590	0.331
-0.766	-10.586	0.332
-0.790	-10.583	0.317
-0.800	-10.583	0.291
-0.793	-10.584	0.264
-0.771	-10.588	0.246
-0.744	-10.592	0.245
-0.827	-11.293	0.282
-0.817	-11.294	0.308
-0.824	-11.292	0.335
-0.845	-11.288	0.352
-0.873	-11.284	0.354
-0.896	-11.282	0.339
-0.906	-11.281	0.313
-0.900	-11.283	0.286
-0.878	-11.287	0.268
-0.851	-11.290	0.267
-0.913	-11.994	0.309
-0.903	-11.994	0.335
-0.910	-11.991	0.362
-0.931	-11.988	0.379
-0.959	-11.984	0.381
-0.982	-11.982	0.366
-0.992	-11.983	0.340
-0.986	-11.986	0.313
-0.964	-11.989	0.295
-0.937	-11.993	0.294
-0.993	-12.694	0.376
-0.982	-12.693	0.402
-0.989	-12.689	0.429
-1.011	-12.685	0.446
-1.038	-12.682	0.448
-1.062	-12.681	0.433
-1.072	-12.683	0.407
-1.065	-12.686	0.380
-1.044	-12.690	0.363
-1.016	-12.693	0.361
-1.063	-13.393	0.438
-1.053	-13.392	0.464
-1.059	-13.389	0.491
-1.080	-13.386	0.509
-1.108	-13.383	0.511
-1.132	-13.382	0.496
-1.142	-13.384	0.470
-1.136	-13.386	0.443
-1.115	-13.389	0.426
-1.087	-13.392	0.424
-1.115	-14.095	0.485
-1.104	-14.095	0.511
-1.111	-14.094	0.538
-1.131	-14.091	0.556
-1.159	-14.088	0.558
-1.183	-14.087	0.544
-1.194	-14.087	0.518
-1.188	-14.089	0.491
-1.167	-14.091	0.473
-1.139	-14.094	0.471
-1.142	-14.330	0.489
-1.131	-14.330	0.514
-1.137	-14.329	0.541
-1.158	-14.327	0.560
-1.185	-14.324	0.562
-1.209	-14.321	0.548
-1.220	-14.320	0.522
-1.214	-14.321	0.495
-1.193	-14.324	0.477
-1.165	-14.327	0.474
		    </DataArray>
         </Points>
         <Cells>
            <DataArray type="Int32" Name="connectivity" NumberOfComponents="1" format="ascii">
 0 10 1 11 2 12 3 13 4 14 5 15 6 16 7 17 8 18 9 19 0 10
 10 20 11 21 12 22 13 23 14 24 15 25 16 26 17 27 18 28 19 29 10 20
 20 30 21 31 22 32 23 33 24 34 25 35 26 36 27 37 28 38 29 39 20 30
 30 40 31 41 32 42 33 43 34 44 35 45 36 46 37 47 38 48 39 49 30 40
 40 50 41 51 42 52 43 53 44 54 45 55 46 56 47 57 48 58 49 59 40 50
 50 60 51 61 52 62 53 63 54 64 55 65 56 66 57 67 58 68 59 69 50 60
 60 70 61 71 62 72 63 73 64 74 65 75 66 76 67 77 68 78 69 79 60 70
 70 80 71 81 72 82 73 83 74 84 75 85 76 86 77 87 78 88 79 89 70 80
 80 90 81 91 82 92 83 93 84 94 85 95 86 96 87 97 88 98 89 99 80 90
 90 100 91 101 92 102 93 103 94 104 95 105 96 106 97 107 98 108 99 109 90 100
 110 120 111 121 112 122 113 123 114 124 115 125 116 126 117 127 118 128 119 129 110 120
 120 130 121 131 122 132 123 133 124 134 125 135 126 136 127 137 128 138 129 139 120 130
 130 140 131 141 132 142 133 143 134 144 135 145 136 146 137 147 138 148 139 149 130 140
 140 150 141 151 142 152 143 153 144 154 145 155 146 156 147 157 148 158 149 159 140 150
 150 160 151 161 152 162 153 163 154 164 155 165 156 166 157 167 158 168 159 169 150 160
 160 170 161 171 162 172 163 173 164 174 165 175 166 176 167 177 168 178 169 179 160 170
 170 180 171 181 172 182 173 183 174 184 175 185 176 186 177 187 178 188 179 189 170 180
 180 190 181 191 182 192 183 193 184 194 185 195 186 196 187 197 188 198 189 199 180 190
 190 200 191 201 192 202 193 203 194 204 195 205 196 206 197 207 198 208 199 209 190 200
 200 210 201 211 202 212 203 213 204 214 205 215 206 216 207 217 208 218 209 219 200 210
 210 220 211 221 212 222 213 223 214 224 215 225 216 226 217 227 218 228 219 229 210 220
 220 230 221 231 222 232 223 233 224 234 225 235 226 236 227 237 228 238 229 239 220 230
 230 240 231 241 232 242 233 243 234 244 235 245 236 246 237 247 238 248 239 249 230 240
 240 250 241 251 242 252 243 253 244 254 245 255 246 256 247 257 248 258 249 259 240 250

            </DataArray>
            <DataArray type="Int32" Name="offsets" NumberOfComponents="1" format="ascii">
 22 44 66 88 110 132 154 176 198 220 242 264 286 308 330 352 374 396 418 440 462 484 506 528
            </DataArray>
            <DataArray type="UInt8"  Name="types" NumberOfComponents="1" format="ascii">
6 6 6 6 6 6 6 6 6 6 6 6 6 6 6 6 6 6 6 6 6 6 6 6
            </DataArray>
         </Cells>
         <CellData>
           <DataArray type="Float32" Name="combinedRootClassID" NumberOfComponents="1" format="ascii">
 -2.000e+00 -2.000e+00 -2.000e+00 -2.000e+00 -2.000e+00 -2.000e+00 -2.000e+00 -2.000e+00 -2.000e+00 -2.000e+00 -4.000e+00 -4.000e+00 -4.000e+00 -4.000e+00 -4.000e+00 -4.000e+00 -4.000e+00 -4.000e+00 -4.000e+00 -4.000e+00 -4.000e+00 -4.000e+00 -4.000e+00 -4.000e+00
           </DataArray>
           <DataArray type="Float32" Name="nitrate/Cmin" NumberOfComponents="1" format="ascii">
 1.000e-03 1.000e-03 1.000e-03 1.000e-03 1.000e-03 1.000e-03 1.000e-03 1.000e-03 1.000e-03 1.000e-03 1.000e-03 1.000e-03 1.000e-03 1.000e-03 1.000e-03 1.000e-03 1.000e-03 1.000e-03 1.000e-03 1.000e-03 1.000e-03 1.000e-03 1.000e-03 1.000e-03
           </DataArray>
           <DataArray type="Float32" Name="nitrate/Imax" NumberOfComponents="1" format="ascii">
 1.900e+00 1.900e+00 1.900e+00 1.900e+00 1.900e+00 1.900e+00 1.900e+00 1.900e+00 1.900e+00 1.900e+00 1.900e+00 1.900e+00 1.900e+00 1.900e+00 1.900e+00 1.900e+00 1.900e+00 1.900e+00 1.900e+00 1.900e+00 1.900e+00 1.900e+00 1.900e+00 1.900e+00
           </DataArray>
           <DataArray type="Float32" Name="nitrate/Km" NumberOfComponents="1" format="ascii">
 1.610e-02 1.610e-02 1.610e-02 1.610e-02 1.610e-02 1.610e-02 1.610e-02 1.610e-02 1.610e-02 1.610e-02 1.610e-02 1.610e-02 1.610e-02 1.610e-02 1.610e-02 1.610e-02 1.610e-02 1.610e-02 1.610e-02 1.610e-02 1.610e-02 1.610e-02 1.610e-02 1.610e-02
           </DataArray>
           <DataArray type="Float32" Name="nitrate/minimalNutrientConcentration" NumberOfComponents="1" format="ascii">
 6.000e+02 6.000e+02 6.000e+02 6.000e+02 6.000e+02 6.000e+02 6.000e+02 6.000e+02 6.000e+02 6.000e+02 6.000e+02 6.000e+02 6.000e+02 6.000e+02 6.000e+02 6.000e+02 6.000e+02 6.000e+02 6.000e+02 6.000e+02 6.000e+02 6.000e+02 6.000e+02 6.000e+02
           </DataArray>
           <DataArray type="Float32" Name="nitrate/nutrientConcentrationAtTheRootSurface" NumberOfComponents="1" format="ascii">
 5.319e-01 4.452e-01 3.753e-01 2.594e-01 2.105e-01 1.591e-01 1.023e-01 0.000e+00 0.000e+00 0.000e+00 5.319e-01 5.997e-01 6.603e-01 7.171e-01 7.826e-01 8.411e-01 8.653e-01 8.868e-01 9.454e-01 9.594e-01 1.019e+00 1.146e+00 1.232e+00 1.346e+00
           </DataArray>
           <DataArray type="Float32" Name="nitrate/optimalNutrientConcentration" NumberOfComponents="1" format="ascii">
 1.200e+03 1.200e+03 1.200e+03 1.200e+03 1.200e+03 1.200e+03 1.200e+03 1.200e+03 1.200e+03 1.200e+03 1.200e+03 1.200e+03 1.200e+03 1.200e+03 1.200e+03 1.200e+03 1.200e+03 1.200e+03 1.200e+03 1.200e+03 1.200e+03 1.200e+03 1.200e+03 1.200e+03
           </DataArray>
           <DataArray type="Float32" Name="nitrate/rootSegmentMinimalNutrientContent" NumberOfComponents="1" format="ascii">
 5.503e+00 5.022e+00 8.407e+00 4.326e+00 4.316e+00 6.459e+00 6.154e+00 6.281e+00 6.238e+00 1.089e+00 2.768e-01 2.734e-01 2.703e-01 2.674e-01 2.649e-01 2.626e-01 2.606e-01 2.588e-01 2.573e-01 2.561e-01 2.551e-01 2.544e-01 2.539e-01 8.457e-02
           </DataArray>
           <DataArray type="Float32" Name="nitrate/rootSegmentNutrientUptake" NumberOfComponents="1" format="ascii">
 0.000e+00 1.065e+00 8.987e-01 6.457e-01 5.131e-01 3.698e-01 1.590e-01 0.000e+00 0.000e+00 0.000e+00 0.000e+00 1.205e+00 1.140e+00 1.072e+00 1.000e+00 9.005e-01 7.848e-01 6.715e-01 5.668e-01 4.513e-01 3.374e-01 2.251e-01 1.125e-01 1.251e-02
           </DataArray>
           <DataArray type="Float32" Name="nitrate/rootSegmentOptimalNutrientContent" NumberOfComponents="1" format="ascii">
 1.101e+01 1.004e+01 1.681e+01 8.651e+00 8.631e+00 1.292e+01 1.231e+01 1.256e+01 1.248e+01 2.178e+00 5.535e-01 5.467e-01 5.405e-01 5.349e-01 5.298e-01 5.252e-01 5.212e-01 5.176e-01 5.147e-01 5.122e-01 5.102e-01 5.088e-01 5.079e-01 1.691e-01
           </DataArray>
           <DataArray type="Float32" Name="parentRootClassID" NumberOfComponents="1" format="ascii">
 -3.000e+00 -3.000e+00 -3.000e+00 -3.000e+00 -3.000e+00 -3.000e+00 -3.000e+00 -3.000e+00 -3.000e+00 -3.000e+00 -3.000e+00 -3.000e+00 -3.000e+00 -3.000e+00 -3.000e+00 -3.000e+00 -3.000e+00 -3.000e+00 -3.000e+00 -3.000e+00 -3.000e+00 -3.000e+00 -3.000e+00 -3.000e+00
           </DataArray>
           <DataArray type="Float32" Name="plantID" NumberOfComponents="1" format="ascii">
 5.000e+00 5.000e+00 5.000e+00 5.000e+00 5.000e+00 5.000e+00 5.000e+00 5.000e+00 5.000e+00 5.000e+00 5.000e+00 5.000e+00 5.000e+00 5.000e+00 5.000e+00 5.000e+00 5.000e+00 5.000e+00 5.000e+00 5.000e+00 5.000e+00 5.000e+00 5.000e+00 5.000e+00
           </DataArray>
           <DataArray type="Float32" Name="plantTypeID" NumberOfComponents="1" format="ascii">
 0.000e+00 0.000e+00 0.000e+00 0.000e+00 0.000e+00 0.000e+00 0.000e+00 0.000e+00 0.000e+00 0.000e+00 0.000e+00 0.000e+00 0.000e+00 0.000e+00 0.000e+00 0.000e+00 0.000e+00 0.000e+00 0.000e+00 0.000e+00 0.000e+00 0.000e+00 0.000e+00 0.000e+00
           </DataArray>
           <DataArray type="Float32" Name="rootCircumference" NumberOfComponents="1" format="ascii">
 1.279e+00 1.273e+00 1.271e+00 1.267e+00 1.266e+00 1.265e+00 1.263e+00 1.261e+00 1.259e+00 1.257e+00 2.953e-01 2.935e-01 2.918e-01 2.903e-01 2.889e-01 2.877e-01 2.865e-01 2.856e-01 2.848e-01 2.841e-01 2.835e-01 2.831e-01 2.829e-01 2.828e-01
           </DataArray>
           <DataArray type="Float32" Name="rootClassID" NumberOfComponents="1" format="ascii">
 -2.000e+00 -2.000e+00 -2.000e+00 -2.000e+00 -2.000e+00 -2.000e+00 -2.000e+00 -2.000e+00 -2.000e+00 -2.000e+00 -4.000e+00 -4.000e+00 -4.000e+00 -4.000e+00 -4.000e+00 -4.000e+00 -4.000e+00 -4.000e+00 -4.000e+00 -4.000e+00 -4.000e+00 -4.000e+00 -4.000e+00 -4.000e+00
           </DataArray>
           <DataArray type="Float32" Name="rootDiameter" NumberOfComponents="1" format="ascii">
 4.070e-01 4.054e-01 4.045e-01 4.034e-01 4.030e-01 4.025e-01 4.019e-01 4.014e-01 4.009e-01 4.001e-01 9.400e-02 9.342e-02 9.289e-02 9.240e-02 9.196e-02 9.156e-02 9.121e-02 9.090e-02 9.064e-02 9.042e-02 9.025e-02 9.012e-02 9.004e-02 9.000e-02
           </DataArray>
           <DataArray type="Float32" Name="rootHairDensity" NumberOfComponents="1" format="ascii">
 0.000e+00 0.000e+00 0.000e+00 0.000e+00 0.000e+00 0.000e+00 0.000e+00 0.000e+00 0.000e+00 0.000e+00 2.000e+03 2.000e+03 2.000e+03 2.000e+03 2.000e+03 2.000e+03 2.000e+03 2.000e+03 2.000e+03 2.000e+03 2.000e+03 2.000e+03 2.000e+03 2.000e+03
           </DataArray>
           <DataArray type="Float32" Name="rootHairDiameter" NumberOfComponents="1" format="ascii">
 5.000e-04 5.000e-04 5.000e-04 5.000e-04 5.000e-04 5.000e-04 5.000e-04 5.000e-04 5.000e-04 5.000e-04 5.000e-04 5.000e-04 5.000e-04 5.000e-04 5.000e-04 5.000e-04 5.000e-04 5.000e-04 5.000e-04 5.000e-04 5.000e-04 5.000e-04 5.000e-04 5.000e-04
           </DataArray>
           <DataArray type="Float32" Name="rootHairLength" NumberOfComponents="1" format="ascii">
 3.000e-02 3.000e-02 3.000e-02 3.000e-02 3.000e-02 3.000e-02 3.000e-02 2.400e-02 1.200e-02 0.000e+00 3.000e-02 3.000e-02 3.000e-02 3.000e-02 3.000e-02 3.000e-02 3.000e-02 2.700e-02 1.800e-02 9.000e-03 0.000e+00 0.000e+00 0.000e+00 0.000e+00
           </DataArray>
           <DataArray type="Float32" Name="rootHairSurfaceArea" NumberOfComponents="1" format="ascii">
 0.000e+00 0.000e+00 0.000e+00 0.000e+00 0.000e+00 0.000e+00 0.000e+00 0.000e+00 0.000e+00 0.000e+00 9.425e-02 9.425e-02 9.425e-02 9.425e-02 9.425e-02 9.425e-02 9.425e-02 8.482e-02 5.655e-02 2.827e-02 0.000e+00 0.000e+00 0.000e+00 0.000e+00
           </DataArray>
           <DataArray type="Float32" Name="rootLength2Base" NumberOfComponents="1" format="ascii">
 0.000e+00 7.500e-01 1.440e+00 2.600e+00 3.200e+00 3.800e+00 4.700e+00 5.560e+00 6.440e+00 7.316e+00 0.000e+00 7.071e-01 1.414e+00 2.121e+00 2.828e+00 3.535e+00 4.243e+00 4.950e+00 5.657e+00 6.364e+00 7.071e+00 7.778e+00 8.485e+00 9.192e+00
           </DataArray>
           <DataArray type="Float32" Name="rootPotentialSecondaryGrowth" NumberOfComponents="1" format="ascii">
 4.070e-01 4.054e-01 4.045e-01 4.034e-01 4.030e-01 4.025e-01 4.019e-01 4.014e-01 4.009e-01 4.001e-01 9.400e-02 9.342e-02 9.289e-02 9.240e-02 9.196e-02 9.156e-02 9.121e-02 9.090e-02 9.064e-02 9.042e-02 9.025e-02 9.012e-02 9.004e-02 9.000e-02
           </DataArray>
           <DataArray type="Float32" Name="rootSegmentAge" NumberOfComponents="1" format="ascii">
 4.000e+00 3.500e+00 3.200e+00 2.800e+00 2.600e+00 2.400e+00 2.100e+00 1.800e+00 1.400e+00 5.000e-01 4.000e+00 3.700e+00 3.400e+00 3.100e+00 2.800e+00 2.500e+00 2.200e+00 1.900e+00 1.600e+00 1.300e+00 1.000e+00 7.000e-01 4.000e-01 1.000e-01
           </DataArray>
           <DataArray type="Float32" Name="rootSegmentCarbonCostOfExudates" NumberOfComponents="1" format="ascii">
 0.000e+00 0.000e+00 0.000e+00 0.000e+00 0.000e+00 0.000e+00 0.000e+00 0.000e+00 0.000e+00 0.000e+00 4.469e-05 4.143e-05 3.814e-05 3.455e-05 3.106e-05 2.752e-05 2.422e-05 2.087e-05 1.770e-05 1.425e-05 1.081e-05 7.083e-06 3.355e-06 2.239e-07
           </DataArray>
           <DataArray type="Float32" Name="rootSegmentDryWeight" NumberOfComponents="1" format="ascii">
 9.172e-03 8.370e-03 1.401e-02 7.210e-03 7.193e-03 1.077e-02 1.026e-02 1.047e-02 1.040e-02 1.815e-03 4.613e-04 4.556e-04 4.504e-04 4.457e-04 4.415e-04 4.377e-04 4.343e-04 4.314e-04 4.289e-04 4.268e-04 4.252e-04 4.240e-04 4.232e-04 1.410e-04
           </DataArray>
           <DataArray type="Float32" Name="rootSegmentLength" NumberOfComponents="1" format="ascii">
 7.500e-01 6.900e-01 1.160e+00 6.000e-01 6.000e-01 9.000e-01 8.600e-01 8.800e-01 8.764e-01 1.536e-01 7.071e-01 7.071e-01 7.071e-01 7.071e-01 7.071e-01 7.071e-01 7.071e-01 7.071e-01 7.071e-01 7.071e-01 7.071e-01 7.071e-01 7.071e-01 2.357e-01
           </DataArray>
           <DataArray type="Float32" Name="rootSegmentLengthDuration" NumberOfComponents="1" format="ascii">
 2.795e+00 2.311e+00 3.475e+00 1.620e+00 1.500e+00 2.030e+00 1.685e+00 1.419e+00 9.335e-01 4.388e-02 2.726e+00 2.514e+00 2.302e+00 2.090e+00 1.878e+00 1.666e+00 1.453e+00 1.241e+00 1.029e+00 8.171e-01 6.050e-01 3.928e-01 1.807e-01 2.357e-02
           </DataArray>
           <DataArray type="Float32" Name="rootSegmentRespiration" NumberOfComponents="1" format="ascii">
 3.669e-04 3.348e-04 5.604e-04 2.884e-04 2.877e-04 4.306e-04 4.103e-04 4.711e-04 5.718e-04 1.407e-04 1.845e-05 1.822e-05 1.802e-05 1.783e-05 1.766e-05 1.751e-05 1.737e-05 1.833e-05 2.144e-05 2.454e-05 2.764e-05 3.074e-05 3.386e-05 1.233e-05
           </DataArray>
           <DataArray type="Float32" Name="rootSegmentSecondaryPotentialCarbonSinkForGrowth" NumberOfComponents="1" format="ascii">
 1.239e-04 9.071e-05 1.223e-04 5.111e-05 4.379e-05 5.323e-05 3.820e-05 2.641e-05 1.039e-05 1.618e-07 1.603e-05 1.359e-05 1.136e-05 9.334e-06 7.515e-06 5.899e-06 4.482e-06 3.262e-06 2.239e-06 1.410e-06 7.729e-07 3.280e-07 7.402e-08 1.175e-09
           </DataArray>
           <DataArray type="Float32" Name="rootSegmentSurfaceArea" NumberOfComponents="1" format="ascii">
 9.590e-01 8.787e-01 1.474e+00 7.604e-01 7.596e-01 1.138e+00 1.086e+00 1.110e+00 1.104e+00 1.930e-01 2.088e-01 2.075e-01 2.063e-01 2.053e-01 2.043e-01 2.034e-01 2.026e-01 2.019e-01 2.013e-01 2.009e-01 2.005e-01 2.002e-01 2.000e-01 6.664e-02
           </DataArray>
           <DataArray type="Float32" Name="rootSegmentVolume" NumberOfComponents="1" format="ascii">
 9.758e-02 8.905e-02 1.491e-01 7.670e-02 7.652e-02 1.145e-01 1.091e-01 1.114e-01 1.106e-01 1.931e-02 4.907e-03 4.847e-03 4.792e-03 4.742e-03 4.696e-03 4.656e-03 4.620e-03 4.589e-03 4.563e-03 4.541e-03 4.523e-03 4.511e-03 4.502e-03 1.500e-03
           </DataArray>
           <DataArray type="Float32" Name="rootSegmentWaterUptake" NumberOfComponents="1" format="ascii">
 2.837e-02 2.610e-02 4.388e-02 2.269e-02 2.269e-02 3.404e-02 3.251e-02 0.000e+00 0.000e+00 0.000e+00 2.675e-02 2.675e-02 2.675e-02 2.675e-02 2.675e-02 2.675e-02 2.675e-02 2.661e-02 2.592e-02 2.400e-02 2.064e-02 1.533e-02 7.959e-03 5.638e-04
           </DataArray>
           <DataArray type="Float32" Name="spatialRootDensity" NumberOfComponents="1" format="ascii">
 3.376e-01 1.688e-01 0.000e+00 0.000e+00 0.000e+00 0.000e+00 0.000e+00 0.000e+00 0.000e+00 0.000e+00 3.438e-01 1.790e-01 0.000e+00 0.000e+00 0.000e+00 0.000e+00 0.000e+00 0.000e+00 0.000e+00 0.000e+00 0.000e+00 0.000e+00 0.000e+00 0.000e+00
           </DataArray>
           <DataArray type="Float32" Name="volumetricWaterContentAtTheRootSurface" NumberOfComponents="1" format="ascii">
 1.939e-01 1.939e-01 1.939e-01 1.939e-01 1.939e-01 1.939e-01 1.939e-01 0.000e+00 0.000e+00 0.000e+00 1.939e-01 1.939e-01 1.939e-01 1.939e-01 1.939e-01 1.939e-01 1.939e-01 1.939e-01 1.939e-01 1.939e-01 1.938e-01 1.938e-01 1.938e-01 1.938e-01
           </DataArray>
         </CellData>
      </Piece>
   </UnstructuredGrid>
</VTKFile>
