<?xml version="1.0"?>
<VTKFile type="UnstructuredGrid" version="0.1" byte_order="LittleEndian">
   <UnstructuredGrid>
      <Piece NumberOfPoints="2570" NumberOfCells="181">
         <Points>
            <DataArray type="Float32" Name="Position" NumberOfComponents="3" format="ascii">
0.020	-5.017	0.006
0.023	-5.003	0.022
0.017	-4.984	0.029
0.004	-4.967	0.025
-0.010	-4.960	0.012
-0.021	-4.963	-0.006
-0.023	-4.977	-0.022
-0.017	-4.996	-0.029
-0.004	-5.013	-0.025
0.010	-5.020	-0.011
-0.559	-5.362	0.416
-0.557	-5.350	0.433
-0.564	-5.333	0.442
-0.578	-5.317	0.440
-0.593	-5.309	0.428
-0.603	-5.312	0.410
-0.605	-5.324	0.393
-0.598	-5.341	0.383
-0.584	-5.357	0.385
-0.569	-5.365	0.398
-1.118	-5.938	0.769
-1.117	-5.929	0.788
-1.126	-5.914	0.800
-1.141	-5.900	0.802
-1.157	-5.892	0.791
-1.168	-5.892	0.773
-1.169	-5.901	0.754
-1.160	-5.916	0.742
-1.145	-5.930	0.741
-1.129	-5.938	0.751
-1.513	-6.443	1.000
-1.512	-6.436	1.020
-1.521	-6.425	1.035
-1.538	-6.412	1.039
-1.555	-6.404	1.030
-1.567	-6.402	1.013
-1.568	-6.409	0.993
-1.559	-6.421	0.978
-1.542	-6.433	0.974
-1.525	-6.442	0.983
-1.901	-7.114	1.193
-1.898	-7.109	1.213
-1.907	-7.100	1.230
-1.924	-7.090	1.237
-1.943	-7.082	1.231
-1.956	-7.080	1.215
-1.958	-7.085	1.194
-1.949	-7.094	1.178
-1.932	-7.104	1.171
-1.914	-7.112	1.177
-2.128	-7.646	1.336
-2.123	-7.643	1.357
-2.131	-7.635	1.375
-2.149	-7.627	1.383
-2.168	-7.621	1.380
-2.183	-7.619	1.365
-2.187	-7.623	1.345
-2.179	-7.630	1.327
-2.162	-7.639	1.318
-2.142	-7.645	1.322
-2.310	-8.254	1.472
-2.305	-8.251	1.493
-2.312	-8.245	1.512
-2.329	-8.239	1.522
-2.349	-8.234	1.520
-2.365	-8.233	1.507
-2.371	-8.236	1.487
-2.363	-8.241	1.468
-2.347	-8.247	1.457
-2.326	-8.252	1.459
-2.451	-8.932	1.583
-2.445	-8.930	1.603
-2.451	-8.926	1.622
-2.468	-8.921	1.634
-2.488	-8.917	1.634
-2.505	-8.916	1.621
-2.511	-8.918	1.601
-2.505	-8.922	1.581
-2.488	-8.927	1.570
-2.468	-8.931	1.570
-2.539	-9.263	1.629
-2.539	-9.254	1.648
-2.539	-9.257	1.669
-2.539	-9.272	1.684
-2.539	-9.293	1.687
-2.539	-9.311	1.677
-2.539	-9.321	1.659
-2.539	-9.318	1.638
-2.539	-9.303	1.623
-2.539	-9.282	1.620
0.024	-4.991	-0.023
0.026	-4.973	-0.013
0.018	-4.961	0.002
0.002	-4.960	0.017
-0.014	-4.971	0.025
-0.025	-4.989	0.024
-0.026	-5.007	0.013
-0.018	-5.019	-0.002
-0.003	-5.020	-0.016
0.013	-5.009	-0.024
0.509	-5.325	0.503
0.512	-5.308	0.515
0.505	-5.298	0.532
0.490	-5.297	0.547
0.473	-5.307	0.554
0.460	-5.324	0.550
0.457	-5.340	0.538
0.464	-5.351	0.521
0.479	-5.351	0.506
0.496	-5.341	0.500
0.947	-5.940	0.955
0.953	-5.927	0.970
0.948	-5.918	0.988
0.933	-5.918	1.003
0.914	-5.926	1.008
0.899	-5.939	1.002
0.893	-5.952	0.987
0.898	-5.961	0.969
0.913	-5.961	0.954
0.932	-5.953	0.949
1.229	-6.486	1.263
1.236	-6.474	1.279
1.230	-6.466	1.298
1.215	-6.465	1.313
1.196	-6.472	1.317
1.179	-6.483	1.310
1.173	-6.495	1.294
1.178	-6.503	1.275
1.193	-6.503	1.261
1.213	-6.497	1.256
1.503	-7.154	1.618
1.510	-7.142	1.634
1.505	-7.135	1.653
1.489	-7.133	1.667
1.470	-7.139	1.671
1.453	-7.149	1.664
1.446	-7.161	1.647
1.451	-7.168	1.628
1.466	-7.169	1.614
1.486	-7.164	1.610
1.689	-7.666	1.870
1.696	-7.655	1.887
1.691	-7.648	1.906
1.676	-7.647	1.920
1.656	-7.652	1.924
1.639	-7.661	1.916
1.632	-7.671	1.899
1.637	-7.679	1.880
1.652	-7.680	1.866
1.672	-7.675	1.862
1.867	-8.239	2.125
1.875	-8.230	2.142
1.870	-8.223	2.162
1.854	-8.222	2.176
1.834	-8.226	2.179
1.817	-8.235	2.171
1.809	-8.244	2.154
1.814	-8.251	2.134
1.829	-8.252	2.120
1.850	-8.248	2.117
2.046	-8.871	2.379
2.054	-8.862	2.397
2.049	-8.856	2.416
2.034	-8.855	2.431
2.013	-8.860	2.434
1.996	-8.868	2.426
1.988	-8.876	2.408
1.993	-8.882	2.388
2.008	-8.883	2.374
2.028	-8.879	2.371
2.138	-9.213	2.490
2.146	-9.205	2.507
2.142	-9.200	2.527
2.126	-9.199	2.542
2.106	-9.203	2.545
2.089	-9.211	2.537
2.080	-9.219	2.519
2.085	-9.224	2.499
2.100	-9.225	2.485
2.120	-9.220	2.481
-0.004	-4.964	-0.022
0.011	-4.959	-0.008
0.021	-4.965	0.009
0.024	-4.981	0.023
0.017	-5.000	0.028
0.003	-5.016	0.022
-0.011	-5.021	0.008
-0.022	-5.015	-0.009
-0.024	-4.999	-0.022
-0.017	-4.980	-0.027
0.554	-5.287	-0.483
0.570	-5.282	-0.469
0.579	-5.288	-0.451
0.578	-5.303	-0.435
0.568	-5.320	-0.429
0.552	-5.333	-0.433
0.537	-5.338	-0.447
0.528	-5.332	-0.465
0.529	-5.317	-0.480
0.539	-5.300	-0.487
1.046	-5.924	-0.861
1.061	-5.921	-0.846
1.067	-5.926	-0.827
1.062	-5.938	-0.810
1.047	-5.951	-0.802
1.029	-5.961	-0.807
1.015	-5.964	-0.821
1.009	-5.958	-0.841
1.014	-5.947	-0.858
1.028	-5.933	-0.865
1.374	-6.493	-1.074
1.388	-6.491	-1.059
1.392	-6.496	-1.039
1.384	-6.505	-1.022
1.368	-6.516	-1.014
1.349	-6.524	-1.019
1.335	-6.525	-1.034
1.331	-6.521	-1.054
1.338	-6.511	-1.072
1.355	-6.501	-1.079
1.671	-7.211	-1.286
1.685	-7.211	-1.270
1.688	-7.215	-1.250
1.679	-7.223	-1.233
1.661	-7.232	-1.225
1.642	-7.237	-1.230
1.628	-7.238	-1.246
1.625	-7.233	-1.266
1.634	-7.225	-1.283
1.652	-7.217	-1.291
1.840	-7.771	-1.431
1.853	-7.771	-1.415
1.855	-7.775	-1.394
1.845	-7.782	-1.377
1.827	-7.789	-1.370
1.807	-7.794	-1.376
1.793	-7.794	-1.392
1.791	-7.790	-1.412
1.801	-7.783	-1.429
1.820	-7.776	-1.436
2.020	-8.387	-1.556
2.034	-8.386	-1.540
2.035	-8.389	-1.519
2.024	-8.396	-1.502
2.006	-8.403	-1.495
1.986	-8.407	-1.501
1.973	-8.408	-1.517
1.972	-8.404	-1.538
1.982	-8.398	-1.555
2.001	-8.391	-1.562
2.215	-9.054	-1.677
2.228	-9.053	-1.661
2.229	-9.056	-1.640
2.218	-9.062	-1.623
2.199	-9.068	-1.617
2.179	-9.072	-1.623
2.166	-9.073	-1.640
2.165	-9.070	-1.660
2.177	-9.064	-1.677
2.196	-9.058	-1.684
2.306	-9.412	-1.727
2.318	-9.411	-1.711
2.319	-9.414	-1.690
2.307	-9.419	-1.673
2.288	-9.425	-1.667
2.268	-9.429	-1.673
2.256	-9.430	-1.690
2.255	-9.427	-1.711
2.267	-9.422	-1.728
2.286	-9.416	-1.734
-0.028	-4.978	0.015
-0.021	-4.963	0.002
-0.006	-4.959	-0.012
0.011	-4.966	-0.021
0.024	-4.983	-0.023
0.028	-5.002	-0.015
0.020	-5.017	-0.002
0.005	-5.021	0.012
-0.012	-5.014	0.022
-0.025	-4.997	0.023
-0.479	-5.273	-0.563
-0.470	-5.261	-0.579
-0.454	-5.260	-0.592
-0.436	-5.270	-0.598
-0.424	-5.286	-0.595
-0.421	-5.303	-0.583
-0.430	-5.314	-0.567
-0.446	-5.315	-0.553
-0.464	-5.306	-0.547
-0.476	-5.290	-0.551
-0.865	-5.887	-1.074
-0.855	-5.879	-1.091
-0.837	-5.881	-1.103
-0.819	-5.890	-1.104
-0.806	-5.904	-1.095
-0.804	-5.917	-1.078
-0.814	-5.924	-1.061
-0.831	-5.923	-1.050
-0.850	-5.914	-1.049
-0.863	-5.900	-1.058
-1.111	-6.419	-1.435
-1.099	-6.415	-1.452
-1.080	-6.418	-1.460
-1.061	-6.428	-1.457
-1.051	-6.440	-1.444
-1.052	-6.451	-1.425
-1.064	-6.455	-1.409
-1.083	-6.451	-1.401
-1.101	-6.442	-1.404
-1.112	-6.429	-1.417
-1.382	-7.097	-1.775
-1.368	-7.096	-1.790
-1.349	-7.100	-1.796
-1.331	-7.110	-1.790
-1.322	-7.120	-1.774
-1.325	-7.127	-1.754
-1.339	-7.129	-1.739
-1.358	-7.124	-1.733
-1.376	-7.115	-1.739
-1.385	-7.105	-1.755
-1.561	-7.635	-1.978
-1.547	-7.634	-1.993
-1.527	-7.639	-1.998
-1.509	-7.648	-1.990
-1.501	-7.657	-1.973
-1.504	-7.663	-1.953
-1.519	-7.663	-1.938
-1.539	-7.659	-1.933
-1.556	-7.650	-1.941
-1.565	-7.641	-1.958
-1.751	-8.226	-2.182
-1.737	-8.226	-2.198
-1.717	-8.230	-2.202
-1.699	-8.238	-2.194
-1.690	-8.246	-2.177
-1.694	-8.252	-2.157
-1.708	-8.252	-2.142
-1.728	-8.248	-2.137
-1.746	-8.240	-2.145
-1.755	-8.232	-2.162
-1.926	-8.884	-2.371
-1.911	-8.883	-2.386
-1.891	-8.887	-2.390
-1.873	-8.894	-2.382
-1.864	-8.902	-2.365
-1.867	-8.907	-2.344
-1.882	-8.907	-2.329
-1.902	-8.903	-2.325
-1.920	-8.896	-2.333
-1.929	-8.889	-2.350
-1.961	-9.241	-2.482
-1.951	-9.249	-2.465
-1.955	-9.254	-2.445
-1.969	-9.254	-2.430
-1.989	-9.251	-2.425
-2.007	-9.244	-2.433
-2.017	-9.236	-2.451
-2.013	-9.231	-2.471
-1.999	-9.231	-2.486
-1.979	-9.234	-2.490
0.011	-4.728	0.016
0.016	-4.711	0.028
0.014	-4.691	0.031
0.004	-4.674	0.023
-0.009	-4.667	0.008
-0.020	-4.672	-0.009
-0.026	-4.689	-0.021
-0.023	-4.709	-0.023
-0.014	-4.726	-0.016
-0.001	-4.734	-0.001
-0.334	-4.806	0.278
-0.328	-4.789	0.290
-0.331	-4.769	0.293
-0.340	-4.752	0.285
-0.353	-4.745	0.270
-0.365	-4.750	0.254
-0.370	-4.767	0.242
-0.368	-4.787	0.239
-0.358	-4.804	0.246
-0.345	-4.812	0.261
0.021	-4.704	-0.018
0.020	-4.684	-0.013
0.009	-4.670	-0.002
-0.007	-4.667	0.012
-0.022	-4.677	0.022
-0.031	-4.696	0.025
-0.029	-4.716	0.020
-0.019	-4.731	0.009
-0.003	-4.733	-0.004
0.012	-4.723	-0.015
0.295	-4.772	0.319
0.294	-4.751	0.324
0.283	-4.737	0.336
0.267	-4.735	0.349
0.252	-4.745	0.360
0.243	-4.763	0.363
0.244	-4.784	0.358
0.255	-4.798	0.347
0.271	-4.801	0.333
0.286	-4.790	0.323
-0.012	-4.673	-0.016
-0.000	-4.667	0.000
0.011	-4.673	0.017
0.015	-4.689	0.029
0.012	-4.710	0.031
0.003	-4.727	0.023
-0.009	-4.734	0.007
-0.020	-4.727	-0.010
-0.025	-4.711	-0.022
-0.022	-4.690	-0.024
0.326	-4.752	-0.244
0.345	-4.743	-0.244
0.366	-4.746	-0.244
0.381	-4.761	-0.244
0.384	-4.782	-0.244
0.374	-4.800	-0.244
0.356	-4.810	-0.244
0.335	-4.807	-0.244
0.320	-4.792	-0.244
0.317	-4.771	-0.244
-0.032	-4.691	0.021
-0.024	-4.673	0.012
-0.009	-4.667	-0.000
0.008	-4.672	-0.011
0.020	-4.689	-0.017
0.023	-4.710	-0.014
0.015	-4.727	-0.005
-0.001	-4.734	0.008
-0.018	-4.728	0.019
-0.030	-4.711	0.024
-0.286	-4.762	-0.331
-0.278	-4.744	-0.340
-0.263	-4.738	-0.353
-0.246	-4.743	-0.364
-0.234	-4.760	-0.369
-0.231	-4.781	-0.366
-0.239	-4.798	-0.357
-0.255	-4.805	-0.345
-0.272	-4.799	-0.334
-0.284	-4.782	-0.328
-0.150	-5.003	0.153
-0.032	-5.002	0.213
0.099	-5.001	0.190
0.192	-4.999	0.096
0.212	-4.998	-0.036
0.150	-4.997	-0.153
0.032	-4.998	-0.213
-0.099	-4.999	-0.190
-0.192	-5.001	-0.096
-0.212	-5.002	0.036
-0.156	-4.252	0.159
-0.039	-4.252	0.217
0.091	-4.250	0.196
0.183	-4.249	0.103
0.202	-4.248	-0.027
0.142	-4.248	-0.144
0.025	-4.249	-0.203
-0.105	-4.250	-0.181
-0.197	-4.251	-0.088
-0.217	-4.252	0.042
-0.160	-3.561	0.159
-0.044	-3.561	0.217
0.085	-3.560	0.197
0.177	-3.559	0.104
0.197	-3.559	-0.025
0.137	-3.559	-0.141
0.021	-3.560	-0.200
-0.108	-3.560	-0.179
-0.200	-3.561	-0.086
-0.220	-3.561	0.043
-0.166	-2.401	0.158
-0.051	-2.400	0.217
0.077	-2.400	0.196
0.168	-2.399	0.105
0.188	-2.399	-0.023
0.129	-2.400	-0.138
0.014	-2.400	-0.197
-0.114	-2.401	-0.176
-0.205	-2.401	-0.085
-0.225	-2.401	0.043
-0.167	-1.800	0.155
-0.052	-1.800	0.214
0.075	-1.800	0.194
0.166	-1.800	0.103
0.187	-1.801	-0.024
[...]
         <CellData>
           <DataArray type="Float32" Name="combinedRootClassID" NumberOfComponents="1" format="ascii">
 -5.000e+00 -5.000e+00 -5.000e+00 -5.000e+00 -5.000e+00 -5.000e+00 -5.000e+00 -5.000e+00 -5.000e+00 -5.000e+00 -5.000e+00 -5.000e+00 -5.000e+00 -5.000e+00 -5.000e+00 -5.000e+00 -5.000e+00 -5.000e+00 -5.000e+00 -5.000e+00 -5.000e+00 -5.000e+00 -5.000e+00 -5.000e+00 -5.000e+00 -5.000e+00 -5.000e+00 -5.000e+00 -5.000e+00 -5.000e+00 -5.000e+00 -5.000e+00 -1.100e+01 -1.100e+01 -1.100e+01 -1.100e+01 -2.000e+00 -2.000e+00 -2.000e+00 -2.000e+00 -2.000e+00 -2.000e+00 -2.000e+00 -2.000e+00 -2.000e+00 -2.000e+00 -7.000e+00 -7.000e+00 -7.000e+00 -7.000e+00 -7.000e+00 -7.000e+00 -7.000e+00 -7.000e+00 -7.000e+00 -7.000e+00 -7.000e+00 -7.000e+00 -7.000e+00 -7.000e+00 -7.000e+00 -7.000e+00 -7.000e+00 -7.000e+00 -7.000e+00 -7.000e+00 -7.000e+00 -7.000e+00 -7.000e+00 -7.000e+00 -7.000e+00 -7.000e+00 -7.000e+00 -7.000e+00 -7.000e+00 -7.000e+00 -7.000e+00 -7.000e+00 -7.000e+00 -7.000e+00 -7.000e+00 -7.000e+00 -7.000e+00 -7.000e+00 -7.000e+00 -7.000e+00 -7.000e+00 -7.000e+00 -7.000e+00 -7.000e+00 -7.000e+00 -7.000e+00 -7.000e+00 -7.000e+00 -7.000e+00 -7.000e+00 -7.000e+00 -7.000e+00 -7.000e+00 -7.000e+00 -7.000e+00 -7.000e+00 -7.000e+00 -7.000e+00 -7.000e+00 -7.000e+00 -7.000e+00 -7.000e+00 -7.000e+00 -7.000e+00 -7.000e+00 -7.000e+00 -7.000e+00 -7.000e+00 -7.000e+00 -7.000e+00 -7.000e+00 -7.000e+00 -7.000e+00 -7.000e+00 -7.000e+00 -7.000e+00 -7.000e+00 -7.000e+00 -7.000e+00 -7.000e+00 -7.000e+00 -7.000e+00 -7.000e+00 -7.000e+00 -7.000e+00 -7.000e+00 -7.000e+00 -7.000e+00 -7.000e+00 -7.000e+00 -7.000e+00 -7.000e+00 -7.000e+00 -7.000e+00 -7.000e+00 -7.000e+00 -7.000e+00 -7.000e+00 -7.000e+00 -7.000e+00 -7.000e+00 -7.000e+00 -7.000e+00 -7.000e+00 -7.000e+00 -7.000e+00 -7.000e+00 -7.000e+00 -9.000e+00 -9.000e+00 -9.000e+00 -4.000e+00 -4.000e+00 -4.000e+00 -4.000e+00 -4.000e+00 -4.000e+00 -4.000e+00 -4.000e+00 -4.000e+00 -4.000e+00 -4.000e+00 -4.000e+00 -4.000e+00 -4.000e+00 -4.000e+00 -4.000e+00 -4.000e+00 -4.000e+00 -4.000e+00 -4.000e+00 -4.000e+00 -4.000e+00 -4.000e+00 -4.000e+00
           </DataArray>
           <DataArray type="Float32" Name="nitrate/Cmin" NumberOfComponents="1" format="ascii">
 1.000e-03 1.000e-03 1.000e-03 1.000e-03 1.000e-03 1.000e-03 1.000e-03 1.000e-03 1.000e-03 1.000e-03 1.000e-03 1.000e-03 1.000e-03 1.000e-03 1.000e-03 1.000e-03 1.000e-03 1.000e-03 1.000e-03 1.000e-03 1.000e-03 1.000e-03 1.000e-03 1.000e-03 1.000e-03 1.000e-03 1.000e-03 1.000e-03 1.000e-03 1.000e-03 1.000e-03 1.000e-03 1.000e-03 1.000e-03 1.000e-03 1.000e-03 1.000e-03 1.000e-03 1.000e-03 1.000e-03 1.000e-03 1.000e-03 1.000e-03 1.000e-03 1.000e-03 1.000e-03 1.000e-03 1.000e-03 1.000e-03 1.000e-03 1.000e-03 1.000e-03 1.000e-03 1.000e-03 1.000e-03 1.000e-03 1.000e-03 1.000e-03 1.000e-03 1.000e-03 1.000e-03 1.000e-03 1.000e-03 1.000e-03 1.000e-03 1.000e-03 1.000e-03 1.000e-03 1.000e-03 1.000e-03 1.000e-03 1.000e-03 1.000e-03 1.000e-03 1.000e-03 1.000e-03 1.000e-03 1.000e-03 1.000e-03 1.000e-03 1.000e-03 1.000e-03 1.000e-03 1.000e-03 1.000e-03 1.000e-03 1.000e-03 1.000e-03 1.000e-03 1.000e-03 1.000e-03 1.000e-03 1.000e-03 1.000e-03 1.000e-03 1.000e-03 1.000e-03 1.000e-03 1.000e-03 1.000e-03 1.000e-03 1.000e-03 1.000e-03 1.000e-03 1.000e-03 1.000e-03 1.000e-03 1.000e-03 1.000e-03 1.000e-03 1.000e-03 1.000e-03 1.000e-03 1.000e-03 1.000e-03 1.000e-03 1.000e-03 1.000e-03 1.000e-03 1.000e-03 1.000e-03 1.000e-03 1.000e-03 1.000e-03 1.000e-03 1.000e-03 1.000e-03 1.000e-03 1.000e-03 1.000e-03 1.000e-03 1.000e-03 1.000e-03 1.000e-03 1.000e-03 1.000e-03 1.000e-03 1.000e-03 1.000e-03 1.000e-03 1.000e-03 1.000e-03 1.000e-03 1.000e-03 1.000e-03 1.000e-03 1.000e-03 1.000e-03 1.000e-03 1.000e-03 1.000e-03 1.000e-03 1.000e-03 1.000e-03 1.000e-03 1.000e-03 1.000e-03 1.000e-03 1.000e-03 1.000e-03 1.000e-03 1.000e-03 1.000e-03 1.000e-03 1.000e-03 1.000e-03 1.000e-03 1.000e-03 1.000e-03 1.000e-03 1.000e-03 1.000e-03 1.000e-03 1.000e-03 1.000e-03 1.000e-03 1.000e-03 1.000e-03 1.000e-03 1.000e-03 1.000e-03
           </DataArray>
           <DataArray type="Float32" Name="nitrate/Imax" NumberOfComponents="1" format="ascii">
 1.900e+00 1.900e+00 1.900e+00 1.900e+00 1.900e+00 1.900e+00 1.900e+00 1.900e+00 1.900e+00 1.900e+00 1.900e+00 1.900e+00 1.900e+00 1.900e+00 1.900e+00 1.900e+00 1.900e+00 1.900e+00 1.900e+00 1.900e+00 1.900e+00 1.900e+00 1.900e+00 1.900e+00 1.900e+00 1.900e+00 1.900e+00 1.900e+00 1.900e+00 1.900e+00 1.900e+00 1.900e+00 1.900e+00 1.900e+00 1.900e+00 1.900e+00 1.900e+00 1.900e+00 1.900e+00 1.900e+00 1.900e+00 1.900e+00 1.900e+00 1.900e+00 1.900e+00 1.900e+00 1.900e+00 1.900e+00 1.900e+00 1.900e+00 1.900e+00 1.900e+00 1.900e+00 1.900e+00 1.900e+00 1.900e+00 1.900e+00 1.900e+00 1.900e+00 1.900e+00 1.900e+00 1.900e+00 1.900e+00 1.900e+00 1.900e+00 1.900e+00 1.900e+00 1.900e+00 1.900e+00 1.900e+00 1.900e+00 1.900e+00 1.900e+00 1.900e+00 1.900e+00 1.900e+00 1.900e+00 1.900e+00 1.900e+00 1.900e+00 1.900e+00 1.900e+00 1.900e+00 1.900e+00 1.900e+00 1.900e+00 1.900e+00 1.900e+00 1.900e+00 1.900e+00 1.900e+00 1.900e+00 1.900e+00 1.900e+00 1.900e+00 1.900e+00 1.900e+00 1.900e+00 1.900e+00 1.900e+00 1.900e+00 1.900e+00 1.900e+00 1.900e+00 1.900e+00 1.900e+00 1.900e+00 1.900e+00 1.900e+00 1.900e+00 1.900e+00 1.900e+00 1.900e+00 1.900e+00 1.900e+00 1.900e+00 1.900e+00 1.900e+00 1.900e+00 1.900e+00 1.900e+00 1.900e+00 1.900e+00 1.900e+00 1.900e+00 1.900e+00 1.900e+00 1.900e+00 1.900e+00 1.900e+00 1.900e+00 1.900e+00 1.900e+00 1.900e+00 1.900e+00 1.900e+00 1.900e+00 1.900e+00 1.900e+00 1.900e+00 1.900e+00 1.900e+00 1.900e+00 1.900e+00 1.900e+00 1.900e+00 1.900e+00 1.900e+00 1.900e+00 1.900e+00 1.900e+00 1.900e+00 1.900e+00 1.900e+00 1.900e+00 1.900e+00 1.900e+00 1.900e+00 1.900e+00 1.900e+00 1.900e+00 1.900e+00 1.900e+00 1.900e+00 1.900e+00 1.900e+00 1.900e+00 1.900e+00 1.900e+00 1.900e+00 1.900e+00 1.900e+00 1.900e+00 1.900e+00 1.900e+00 1.900e+00 1.900e+00 1.900e+00 1.900e+00 1.900e+00 1.900e+00
           </DataArray>
           <DataArray type="Float32" Name="nitrate/Km" NumberOfComponents="1" format="ascii">
 1.610e-02 1.610e-02 1.610e-02 1.610e-02 1.610e-02 1.610e-02 1.610e-02 1.610e-02 1.610e-02 1.610e-02 1.610e-02 1.610e-02 1.610e-02 1.610e-02 1.610e-02 1.610e-02 1.610e-02 1.610e-02 1.610e-02 1.610e-02 1.610e-02 1.610e-02 1.610e-02 1.610e-02 1.610e-02 1.610e-02 1.610e-02 1.610e-02 1.610e-02 1.610e-02 1.610e-02 1.610e-02 1.610e-02 1.610e-02 1.610e-02 1.610e-02 1.610e-02 1.610e-02 1.610e-02 1.610e-02 1.610e-02 1.610e-02 1.610e-02 1.610e-02 1.610e-02 1.610e-02 1.610e-02 1.610e-02 1.610e-02 1.610e-02 1.610e-02 1.610e-02 1.610e-02 1.610e-02 1.610e-02 1.610e-02 1.610e-02 1.610e-02 1.610e-02 1.610e-02 1.610e-02 1.610e-02 1.610e-02 1.610e-02 1.610e-02 1.610e-02 1.610e-02 1.610e-02 1.610e-02 1.610e-02 1.610e-02 1.610e-02 1.610e-02 1.610e-02 1.610e-02 1.610e-02 1.610e-02 1.610e-02 1.610e-02 1.610e-02 1.610e-02 1.610e-02 1.610e-02 1.610e-02 1.610e-02 1.610e-02 1.610e-02 1.610e-02 1.610e-02 1.610e-02 1.610e-02 1.610e-02 1.610e-02 1.610e-02 1.610e-02 1.610e-02 1.610e-02 1.610e-02 1.610e-02 1.610e-02 1.610e-02 1.610e-02 1.610e-02 1.610e-02 1.610e-02 1.610e-02 1.610e-02 1.610e-02 1.610e-02 1.610e-02 1.610e-02 1.610e-02 1.610e-02 1.610e-02 1.610e-02 1.610e-02 1.610e-02 1.610e-02 1.610e-02 1.610e-02 1.610e-02 1.610e-02 1.610e-02 1.610e-02 1.610e-02 1.610e-02 1.610e-02 1.610e-02 1.610e-02 1.610e-02 1.610e-02 1.610e-02 1.610e-02 1.610e-02 1.610e-02 1.610e-02 1.610e-02 1.610e-02 1.610e-02 1.610e-02 1.610e-02 1.610e-02 1.610e-02 1.610e-02 1.610e-02 1.610e-02 1.610e-02 1.610e-02 1.610e-02 1.610e-02 1.610e-02 1.610e-02 1.610e-02 1.610e-02 1.610e-02 1.610e-02 1.610e-02 1.610e-02 1.610e-02 1.610e-02 1.610e-02 1.610e-02 1.610e-02 1.610e-02 1.610e-02 1.610e-02 1.610e-02 1.610e-02 1.610e-02 1.610e-02 1.610e-02 1.610e-02 1.610e-02 1.610e-02 1.610e-02 1.610e-02 1.610e-02 1.610e-02 1.610e-02 1.610e-02 1.610e-02
           </DataArray>
           <DataArray type="Float32" Name="nitrate/minimalNutrientConcentration" NumberOfComponents="1" format="ascii">
 6.000e+02 6.000e+02 6.000e+02 6.000e+02 6.000e+02 6.000e+02 6.000e+02 6.000e+02 6.000e+02 6.000e+02 6.000e+02 6.000e+02 6.000e+02 6.000e+02 6.000e+02 6.000e+02 6.000e+02 6.000e+02 6.000e+02 6.000e+02 6.000e+02 6.000e+02 6.000e+02 6.000e+02 6.000e+02 6.000e+02 6.000e+02 6.000e+02 6.000e+02 6.000e+02 6.000e+02 6.000e+02 6.000e+02 6.000e+02 6.000e+02 6.000e+02 6.000e+02 6.000e+02 6.000e+02 6.000e+02 6.000e+02 6.000e+02 6.000e+02 6.000e+02 6.000e+02 6.000e+02 6.000e+02 6.000e+02 6.000e+02 6.000e+02 6.000e+02 6.000e+02 6.000e+02 6.000e+02 6.000e+02 6.000e+02 6.000e+02 6.000e+02 6.000e+02 6.000e+02 6.000e+02 6.000e+02 6.000e+02 6.000e+02 6.000e+02 6.000e+02 6.000e+02 6.000e+02 6.000e+02 6.000e+02 6.000e+02 6.000e+02 6.000e+02 6.000e+02 6.000e+02 6.000e+02 6.000e+02 6.000e+02 6.000e+02 6.000e+02 6.000e+02 6.000e+02 6.000e+02 6.000e+02 6.000e+02 6.000e+02 6.000e+02 6.000e+02 6.000e+02 6.000e+02 6.000e+02 6.000e+02 6.000e+02 6.000e+02 6.000e+02 6.000e+02 6.000e+02 6.000e+02 6.000e+02 6.000e+02 6.000e+02 6.000e+02 6.000e+02 6.000e+02 6.000e+02 6.000e+02 6.000e+02 6.000e+02 6.000e+02 6.000e+02 6.000e+02 6.000e+02 6.000e+02 6.000e+02 6.000e+02 6.000e+02 6.000e+02 6.000e+02 6.000e+02 6.000e+02 6.000e+02 6.000e+02 6.000e+02 6.000e+02 6.000e+02 6.000e+02 6.000e+02 6.000e+02 6.000e+02 6.000e+02 6.000e+02 6.000e+02 6.000e+02 6.000e+02 6.000e+02 6.000e+02 6.000e+02 6.000e+02 6.000e+02 6.000e+02 6.000e+02 6.000e+02 6.000e+02 6.000e+02 6.000e+02 6.000e+02 6.000e+02 6.000e+02 6.000e+02 6.000e+02 6.000e+02 6.000e+02 6.000e+02 6.000e+02 6.000e+02 6.000e+02 6.000e+02 6.000e+02 6.000e+02 6.000e+02 6.000e+02 6.000e+02 6.000e+02 6.000e+02 6.000e+02 6.000e+02 6.000e+02 6.000e+02 6.000e+02 6.000e+02 6.000e+02 6.000e+02 6.000e+02 6.000e+02 6.000e+02 6.000e+02 6.000e+02 6.000e+02 6.000e+02 6.000e+02 6.000e+02
           </DataArray>
           <DataArray type="Float32" Name="nitrate/nutrientConcentrationAtTheRootSurface" NumberOfComponents="1" format="ascii">
 3.221e-01 3.702e-01 4.237e-01 5.540e-01 6.436e-01 7.425e-01 8.382e-01 9.852e-01 3.221e-01 3.630e-01 4.755e-01 5.638e-01 6.364e-01 7.907e-01 9.015e-01 1.032e+00 3.221e-01 3.343e-01 4.243e-01 5.543e-01 6.722e-01 7.748e-01 8.507e-01 9.679e-01 3.221e-01 3.480e-01 4.517e-01 5.396e-01 6.776e-01 7.807e-01 8.741e-01 1.013e+00 3.297e-01 3.297e-01 3.297e-01 3.297e-01 3.221e-01 3.351e-01 3.160e-01 2.355e-01 1.915e-01 1.388e-01 8.364e-02 0.000e+00 0.000e+00 0.000e+00 3.222e-01 2.987e-01 4.329e-01 3.216e-01 3.453e-01 4.332e-01 3.249e-01 3.874e-01 4.606e-01 3.335e-01 4.162e-01 5.398e-01 3.405e-01 4.141e-01 3.490e-01 3.629e-01 3.582e-01 4.135e-01 3.666e-01 3.947e-01 3.734e-01 4.355e-01 3.782e-01 4.598e-01 3.877e-01 4.367e-01 3.948e-01 4.908e-01 3.245e-01 3.599e-01 4.167e-01 4.115e-01 4.388e-01 4.296e-01 4.532e-01 4.427e-01 5.765e-01 4.598e-01 6.033e-01 4.791e-01 5.833e-01 4.979e-01 5.536e-01 5.142e-01 5.615e-01 5.267e-01 5.614e-01 5.431e-01 6.580e-01 5.610e-01 3.239e-01 3.551e-01 4.155e-01 5.672e-01 6.556e-01 5.924e-01 6.434e-01 6.101e-01 6.261e-01 6.452e-01 7.455e-01 6.649e-01 7.055e-01 6.824e-01 6.997e-01 7.106e-01 7.940e-01 7.177e-01 8.587e-01 3.226e-01 3.628e-01 7.285e-01 7.374e-01 7.502e-01 7.628e-01 7.847e-01 8.008e-01 8.138e-01 8.198e-01 8.246e-01 8.242e-01 3.207e-01 3.667e-01 4.849e-01 8.243e-01 8.295e-01 8.425e-01 8.561e-01 8.688e-01 8.863e-01 8.877e-01 8.853e-01 8.824e-01 8.779e-01 3.187e-01 3.006e-01 8.768e-01 8.812e-01 8.913e-01 9.117e-01 3.172e-01 3.588e-01 4.950e-01 3.155e-01 3.131e-01 4.087e-01 3.188e-01 3.572e-01 5.827e-01 6.385e-01 8.832e-01 3.221e-01 3.185e-01 3.503e-01 4.130e-01 5.296e-01 6.523e-01 7.451e-01 8.250e-01 8.868e-01 9.046e-01 9.350e-01 9.985e-01 1.043e+00 1.060e+00 1.129e+00 1.173e+00 1.190e+00 1.229e+00 1.280e+00 1.320e+00 1.367e+00 1.437e+00 1.507e+00 1.581e+00
           </DataArray>
           <DataArray type="Float32" Name="nitrate/optimalNutrientConcentration" NumberOfComponents="1" format="ascii">
 1.200e+03 1.200e+03 1.200e+03 1.200e+03 1.200e+03 1.200e+03 1.200e+03 1.200e+03 1.200e+03 1.200e+03 1.200e+03 1.200e+03 1.200e+03 1.200e+03 1.200e+03 1.200e+03 1.200e+03 1.200e+03 1.200e+03 1.200e+03 1.200e+03 1.200e+03 1.200e+03 1.200e+03 1.200e+03 1.200e+03 1.200e+03 1.200e+03 1.200e+03 1.200e+03 1.200e+03 1.200e+03 1.200e+03 1.200e+03 1.200e+03 1.200e+03 1.200e+03 1.200e+03 1.200e+03 1.200e+03 1.200e+03 1.200e+03 1.200e+03 1.200e+03 1.200e+03 1.200e+03 1.200e+03 1.200e+03 1.200e+03 1.200e+03 1.200e+03 1.200e+03 1.200e+03 1.200e+03 1.200e+03 1.200e+03 1.200e+03 1.200e+03 1.200e+03 1.200e+03 1.200e+03 1.200e+03 1.200e+03 1.200e+03 1.200e+03 1.200e+03 1.200e+03 1.200e+03 1.200e+03 1.200e+03 1.200e+03 1.200e+03 1.200e+03 1.200e+03 1.200e+03 1.200e+03 1.200e+03 1.200e+03 1.200e+03 1.200e+03 1.200e+03 1.200e+03 1.200e+03 1.200e+03 1.200e+03 1.200e+03 1.200e+03 1.200e+03 1.200e+03 1.200e+03 1.200e+03 1.200e+03 1.200e+03 1.200e+03 1.200e+03 1.200e+03 1.200e+03 1.200e+03 1.200e+03 1.200e+03 1.200e+03 1.200e+03 1.200e+03 1.200e+03 1.200e+03 1.200e+03 1.200e+03 1.200e+03 1.200e+03 1.200e+03 1.200e+03 1.200e+03 1.200e+03 1.200e+03 1.200e+03 1.200e+03 1.200e+03 1.200e+03 1.200e+03 1.200e+03 1.200e+03 1.200e+03 1.200e+03 1.200e+03 1.200e+03 1.200e+03 1.200e+03 1.200e+03 1.200e+03 1.200e+03 1.200e+03 1.200e+03 1.200e+03 1.200e+03 1.200e+03 1.200e+03 1.200e+03 1.200e+03 1.200e+03 1.200e+03 1.200e+03 1.200e+03 1.200e+03 1.200e+03 1.200e+03 1.200e+03 1.200e+03 1.200e+03 1.200e+03 1.200e+03 1.200e+03 1.200e+03 1.200e+03 1.200e+03 1.200e+03 1.200e+03 1.200e+03 1.200e+03 1.200e+03 1.200e+03 1.200e+03 1.200e+03 1.200e+03 1.200e+03 1.200e+03 1.200e+03 1.200e+03 1.200e+03 1.200e+03 1.200e+03 1.200e+03 1.200e+03 1.200e+03 1.200e+03 1.200e+03 1.200e+03 1.200e+03 1.200e+03 1.200e+03 1.200e+03 1.200e+03
           </DataArray>
           <DataArray type="Float32" Name="nitrate/rootSegmentMinimalNutrientContent" NumberOfComponents="1" format="ascii">
 1.635e-01 1.811e-01 1.406e-01 1.646e-01 1.230e-01 1.337e-01 1.443e-01 7.615e-02 1.635e-01 1.811e-01 1.406e-01 1.646e-01 1.230e-01 1.337e-01 1.443e-01 7.615e-02 1.635e-01 1.811e-01 1.406e-01 1.646e-01 1.230e-01 1.337e-01 1.443e-01 7.615e-02 1.635e-01 1.811e-01 1.406e-01 1.646e-01 1.230e-01 1.337e-01 1.443e-01 7.615e-02 9.025e-02 9.025e-02 9.025e-02 9.025e-02 6.064e+00 5.477e+00 9.071e+00 4.653e+00 4.616e+00 6.835e+00 6.464e+00 6.546e+00 6.432e+00 1.821e+00 3.367e-02 3.617e-02 1.204e-02 3.440e-02 3.522e-02 1.599e-02 3.238e-02 3.631e-02 1.451e-02 3.372e-02 3.533e-02 3.210e-03 3.587e-02 2.245e-02 3.556e-02 3.052e-02 3.351e-02 2.985e-02 3.305e-02 3.060e-02 3.485e-02 3.359e-02 3.330e-02 3.347e-02 3.640e-02 1.614e-02 3.539e-02 2.288e-02 3.329e-02 3.548e-02 1.611e-02 3.579e-02 2.402e-02 3.569e-02 2.220e-02 3.427e-02 3.124e-02 3.425e-02 1.802e-02 3.389e-02 1.044e-02 3.523e-02 1.524e-02 3.338e-02 1.101e-02 3.746e-02 1.280e-02 3.532e-02 5.318e-03 3.683e-02 3.483e-02 3.516e-02 1.277e-02 3.323e-02 1.275e-02 3.368e-02 1.347e-02 3.584e-02 3.223e-02 3.575e-02 1.102e-02 3.637e-02 7.058e-03 3.027e-02 3.481e-02 3.579e-02 3.568e-03 3.530e-02 3.674e-03 3.535e-02 3.147e-02 3.167e-02 2.718e-02 2.464e-02 2.780e-02 2.749e-02 2.451e-02 2.130e-02 1.827e-02 1.941e-02 1.879e-02 3.501e-02 3.486e-02 9.499e-03 1.895e-02 1.414e-02 1.483e-02 1.637e-02 1.186e-02 1.239e-02 9.752e-03 9.201e-03 6.734e-03 5.974e-03 3.593e-02 3.414e-02 4.146e-03 3.111e-03 2.336e-03 1.161e-03 3.468e-02 3.402e-02 1.360e-02 3.491e-02 3.574e-02 1.428e-02 3.608e-02 2.701e-02 3.509e-02 2.573e-02 2.178e-02 3.586e-01 3.469e-01 3.360e-01 3.259e-01 3.165e-01 3.078e-01 2.997e-01 2.923e-01 2.860e-01 2.808e-01 2.768e-01 2.734e-01 2.703e-01 2.674e-01 2.649e-01 2.626e-01 2.606e-01 2.588e-01 2.573e-01 2.561e-01 2.551e-01 2.544e-01 2.539e-01 8.457e-02
           </DataArray>
           <DataArray type="Float32" Name="nitrate/rootSegmentNutrientUptake" NumberOfComponents="1" format="ascii">
 0.000e+00 3.199e-01 2.553e-01 2.300e-01 1.548e-01 1.166e-01 6.992e-02 1.482e-02 0.000e+00 3.261e-01 2.837e-01 2.354e-01 1.548e-01 1.167e-01 7.000e-02 1.484e-02 0.000e+00 3.160e-01 2.648e-01 2.329e-01 1.549e-01 1.167e-01 6.995e-02 1.482e-02 0.000e+00 3.219e-01 2.739e-01 2.261e-01 1.549e-01 1.167e-01 6.997e-02 1.483e-02 0.000e+00 0.000e+00 0.000e+00 0.000e+00 0.000e+00 1.570e+00 1.347e+00 9.823e-01 7.952e-01 6.006e-01 3.371e-01 0.000e+00 0.000e+00 0.000e+00 0.000e+00 1.584e-01 1.306e-02 0.000e+00 1.703e-01 2.083e-02 0.000e+00 1.535e-01 1.578e-02 0.000e+00 1.100e-01 1.393e-03 0.000e+00 4.628e-02 0.000e+00 7.285e-02 0.000e+00 7.154e-02 0.000e+00 7.328e-02 0.000e+00 8.060e-02 0.000e+00 8.037e-02 0.000e+00 2.458e-02 0.000e+00 4.231e-02 0.000e+00 1.722e-01 2.094e-02 0.000e+00 4.429e-02 0.000e+00 3.871e-02 0.000e+00 6.487e-02 0.000e+00 2.765e-02 0.000e+00 1.143e-02 0.000e+00 2.001e-02 0.000e+00 1.204e-02 0.000e+00 1.400e-02 0.000e+00 3.496e-03 0.000e+00 0.000e+00 1.543e-01 1.384e-02 0.000e+00 1.399e-02 0.000e+00 1.477e-02 0.000e+00 0.000e+00 0.000e+00 9.696e-03 0.000e+00 4.651e-03 0.000e+00 0.000e+00 0.000e+00 1.569e-03 0.000e+00 1.616e-03 0.000e+00 9.037e-02 0.000e+00 0.000e+00 0.000e+00 0.000e+00 0.000e+00 0.000e+00 0.000e+00 0.000e+00 0.000e+00 0.000e+00 0.000e+00 1.381e-01 8.259e-03 0.000e+00 0.000e+00 0.000e+00 0.000e+00 0.000e+00 0.000e+00 0.000e+00 0.000e+00 0.000e+00 0.000e+00 0.000e+00 9.288e-02 0.000e+00 0.000e+00 0.000e+00 0.000e+00 0.000e+00 1.432e-01 1.481e-02 0.000e+00 1.417e-01 1.546e-02 0.000e+00 6.439e-02 0.000e+00 3.953e-02 0.000e+00 0.000e+00 1.818e+00 1.802e+00 1.784e+00 1.783e+00 1.747e+00 1.646e+00 1.535e+00 1.489e+00 1.372e+00 1.279e+00 1.250e+00 1.193e+00 1.095e+00 1.050e+00 9.634e-01 8.540e-01 7.301e-01 5.910e-01 4.590e-01 3.385e-01 2.256e-01 1.128e-01 1.253e-02
           </DataArray>
           <DataArray type="Float32" Name="nitrate/rootSegmentOptimalNutrientContent" NumberOfComponents="1" format="ascii">
 3.270e-01 3.621e-01 2.812e-01 3.291e-01 2.460e-01 2.673e-01 2.886e-01 1.523e-01 3.270e-01 3.621e-01 2.812e-01 3.291e-01 2.460e-01 2.673e-01 2.886e-01 1.523e-01 3.270e-01 3.621e-01 2.812e-01 3.291e-01 2.460e-01 2.673e-01 2.886e-01 1.523e-01 3.270e-01 3.621e-01 2.812e-01 3.291e-01 2.460e-01 2.673e-01 2.886e-01 1.523e-01 1.805e-01 1.805e-01 1.805e-01 1.805e-01 1.213e+01 1.095e+01 1.814e+01 9.306e+00 9.233e+00 1.367e+01 1.293e+01 1.309e+01 1.286e+01 3.643e+00 6.734e-02 7.233e-02 2.409e-02 6.880e-02 7.043e-02 3.198e-02 6.476e-02 7.261e-02 2.902e-02 6.743e-02 7.066e-02 6.420e-03 7.175e-02 4.490e-02 7.112e-02 6.104e-02 6.702e-02 5.971e-02 6.611e-02 6.121e-02 6.969e-02 6.718e-02 6.660e-02 6.694e-02 7.280e-02 3.228e-02 7.078e-02 4.576e-02 6.657e-02 7.096e-02 3.223e-02 7.159e-02 4.804e-02 7.139e-02 4.441e-02 6.854e-02 6.248e-02 6.850e-02 3.604e-02 6.778e-02 2.089e-02 7.045e-02 3.049e-02 6.675e-02 2.201e-02 7.491e-02 2.560e-02 7.063e-02 1.064e-02 7.366e-02 6.965e-02 7.031e-02 2.555e-02 6.646e-02 2.549e-02 6.737e-02 2.694e-02 7.168e-02 6.446e-02 7.150e-02 2.205e-02 7.274e-02 1.412e-02 6.054e-02 6.962e-02 7.158e-02 7.135e-03 7.059e-02 7.348e-03 7.069e-02 6.293e-02 6.334e-02 5.437e-02 4.928e-02 5.560e-02 5.499e-02 4.901e-02 4.259e-02 3.654e-02 3.881e-02 3.759e-02 7.001e-02 6.971e-02 1.900e-02 3.790e-02 2.828e-02 2.966e-02 3.273e-02 2.373e-02 2.478e-02 1.950e-02 1.840e-02 1.347e-02 1.195e-02 7.186e-02 6.829e-02 8.293e-03 6.221e-03 4.672e-03 2.322e-03 6.937e-02 6.804e-02 2.719e-02 6.983e-02 7.147e-02 2.857e-02 7.215e-02 5.403e-02 7.019e-02 5.146e-02 4.355e-02 7.172e-01 6.939e-01 6.721e-01 6.518e-01 6.330e-01 6.155e-01 5.994e-01 5.847e-01 5.720e-01 5.617e-01 5.535e-01 5.467e-01 5.405e-01 5.349e-01 5.298e-01 5.252e-01 5.212e-01 5.176e-01 5.147e-01 5.122e-01 5.102e-01 5.088e-01 5.079e-01 1.691e-01
           </DataArray>
           <DataArray type="Float32" Name="parentRootClassID" NumberOfComponents="1" format="ascii">