<?xml version="1.0"?>
<VTKFile type="UnstructuredGrid" version="0.1" byte_order="LittleEndian">
   <UnstructuredGrid>
      <Piece NumberOfPoints="73290" NumberOfCells="5399">
         <Points>
            <DataArray type="Float32" Name="Position" NumberOfComponents="3" format="ascii">
-0.120	-5.040	0.097
-0.123	-5.031	0.098
-0.123	-5.023	0.094
-0.121	-5.018	0.087
-0.117	-5.018	0.079
-0.112	-5.024	0.073
-0.109	-5.032	0.072
-0.109	-5.041	0.075
-0.111	-5.046	0.083
-0.115	-5.045	0.091
-0.883	-5.259	-0.298
-0.887	-5.251	-0.295
-0.888	-5.243	-0.298
-0.887	-5.237	-0.305
-0.883	-5.236	-0.314
-0.879	-5.241	-0.321
-0.875	-5.249	-0.323
-0.874	-5.258	-0.320
-0.875	-5.263	-0.313
-0.879	-5.264	-0.304
-1.660	-5.523	-0.585
-1.663	-5.515	-0.583
-1.664	-5.506	-0.587
-1.661	-5.501	-0.594
-1.657	-5.501	-0.603
-1.653	-5.507	-0.609
-1.650	-5.515	-0.610
-1.649	-5.524	-0.607
-1.652	-5.529	-0.599
-1.656	-5.529	-0.591
-2.397	-5.652	-1.026
-2.398	-5.643	-1.025
-2.397	-5.635	-1.030
-2.393	-5.632	-1.038
-2.388	-5.634	-1.045
-2.384	-5.641	-1.050
-2.383	-5.650	-1.050
-2.384	-5.658	-1.045
-2.388	-5.661	-1.038
-2.393	-5.659	-1.030
-3.143	-5.731	-1.469
-3.145	-5.722	-1.468
-3.145	-5.714	-1.472
-3.141	-5.709	-1.480
-3.137	-5.711	-1.488
-3.133	-5.717	-1.493
-3.131	-5.726	-1.494
-3.131	-5.734	-1.490
-3.135	-5.738	-1.482
-3.139	-5.737	-1.474
-3.575	-5.852	-1.678
-3.578	-5.843	-1.677
-3.579	-5.834	-1.680
-3.577	-5.829	-1.687
-3.573	-5.829	-1.696
-3.568	-5.835	-1.702
-3.565	-5.843	-1.704
-3.564	-5.852	-1.700
-3.566	-5.857	-1.693
-3.570	-5.857	-1.684
-0.241	-5.091	0.171
-0.239	-5.082	0.169
-0.234	-5.077	0.163
-0.227	-5.078	0.157
-0.222	-5.083	0.152
-0.219	-5.092	0.151
-0.222	-5.101	0.154
-0.227	-5.106	0.159
-0.234	-5.105	0.166
-0.239	-5.100	0.170
-0.843	-5.151	-0.478
-0.840	-5.143	-0.481
-0.833	-5.139	-0.486
-0.825	-5.142	-0.491
-0.820	-5.149	-0.495
-0.819	-5.158	-0.495
-0.823	-5.166	-0.491
-0.830	-5.169	-0.486
-0.837	-5.167	-0.481
-0.842	-5.160	-0.478
-1.284	-5.188	-1.251
-1.282	-5.179	-1.252
-1.275	-5.174	-1.255
-1.266	-5.173	-1.259
-1.259	-5.179	-1.261
-1.256	-5.187	-1.261
-1.258	-5.196	-1.259
-1.265	-5.202	-1.256
-1.274	-5.202	-1.253
-1.281	-5.197	-1.251
-1.429	-5.326	-2.114
-1.430	-5.317	-2.116
-1.425	-5.309	-2.119
-1.417	-5.306	-2.120
-1.408	-5.309	-2.121
-1.402	-5.316	-2.120
-1.401	-5.325	-2.118
-1.406	-5.332	-2.115
-1.415	-5.335	-2.113
-1.423	-5.333	-2.113
-1.487	-5.629	-2.946
-1.489	-5.621	-2.948
-1.485	-5.612	-2.950
-1.477	-5.608	-2.953
-1.469	-5.609	-2.955
-1.462	-5.616	-2.956
-1.460	-5.625	-2.954
-1.463	-5.633	-2.952
-1.471	-5.637	-2.949
-1.480	-5.636	-2.947
-1.579	-5.629	-3.143
-1.573	-5.623	-3.146
-1.565	-5.621	-3.150
-1.557	-5.626	-3.154
-1.553	-5.634	-3.155
-1.554	-5.643	-3.154
-1.560	-5.650	-3.150
-1.569	-5.651	-3.147
-1.576	-5.647	-3.143
-1.580	-5.638	-3.142
-1.121	-5.885	0.748
-1.115	-5.883	0.755
-1.113	-5.885	0.764
-1.115	-5.890	0.771
-1.121	-5.896	0.774
-1.129	-5.901	0.772
-1.135	-5.903	0.765
-1.137	-5.901	0.756
-1.134	-5.896	0.749
-1.128	-5.890	0.746
-0.597	-6.526	0.484
-0.591	-6.524	0.491
-0.589	-6.525	0.500
-0.591	-6.531	0.507
-0.596	-6.538	0.510
-0.603	-6.544	0.508
-0.608	-6.546	0.501
-0.611	-6.544	0.492
-0.609	-6.539	0.485
-0.603	-6.532	0.482
0.074	-7.030	0.207
0.080	-7.027	0.214
0.082	-7.029	0.222
0.081	-7.034	0.229
0.076	-7.042	0.232
0.070	-7.049	0.229
0.065	-7.051	0.222
0.063	-7.050	0.214
0.064	-7.044	0.207
0.068	-7.036	0.204
0.729	-7.507	-0.099
0.734	-7.504	-0.092
0.737	-7.506	-0.083
0.736	-7.512	-0.076
0.732	-7.520	-0.073
0.726	-7.526	-0.076
0.721	-7.529	-0.083
0.718	-7.527	-0.092
0.719	-7.521	-0.099
0.723	-7.514	-0.101
1.208	-7.823	-0.324
1.213	-7.820	-0.317
1.216	-7.822	-0.309
1.215	-7.828	-0.302
1.211	-7.836	-0.299
1.205	-7.843	-0.302
1.200	-7.846	-0.309
1.197	-7.844	-0.318
1.198	-7.838	-0.325
1.202	-7.830	-0.327
-3.630	-18.783	2.752
-3.623	-18.781	2.757
-3.617	-18.785	2.763
-3.616	-18.792	2.769
-3.619	-18.800	2.772
-3.627	-18.806	2.771
-3.634	-18.807	2.766
-3.640	-18.804	2.760
-3.641	-18.797	2.754
-3.638	-18.789	2.751
-3.175	-19.205	2.146
-3.167	-19.204	2.150
-3.161	-19.207	2.156
-3.160	-19.214	2.162
-3.164	-19.222	2.165
-3.171	-19.228	2.165
-3.179	-19.229	2.160
-3.185	-19.225	2.154
-3.186	-19.218	2.148
-3.182	-19.210	2.145
-2.843	-19.705	1.500
-2.835	-19.705	1.504
-2.829	-19.709	1.511
-2.829	-19.715	1.517
-2.834	-19.722	1.521
-2.842	-19.727	1.521
-2.851	-19.727	1.517
-2.856	-19.723	1.510
-2.856	-19.717	1.503
-2.851	-19.710	1.500
-2.673	-20.015	1.250
-2.665	-20.014	1.255
-2.661	-20.018	1.263
-2.662	-20.024	1.270
-2.667	-20.030	1.274
-2.676	-20.034	1.273
-2.684	-20.034	1.268
-2.688	-20.031	1.260
-2.687	-20.025	1.253
-2.681	-20.019	1.250
-3.631	-18.946	2.765
-3.630	-18.937	2.768
-3.634	-18.931	2.774
-3.641	-18.929	2.779
-3.649	-18.933	2.783
-3.654	-18.941	2.783
-3.655	-18.949	2.780
-3.651	-18.956	2.774
-3.644	-18.957	2.769
-3.636	-18.953	2.765
-3.168	-19.253	3.447
-3.167	-19.244	3.450
-3.171	-19.238	3.456
-3.178	-19.236	3.461
-3.186	-19.240	3.465
-3.191	-19.248	3.465
-3.192	-19.257	3.462
-3.188	-19.263	3.456
-3.180	-19.264	3.451
-3.173	-19.261	3.447
-2.771	-19.477	4.030
-2.771	-19.473	4.038
-2.771	-19.474	4.047
-2.771	-19.481	4.054
-2.771	-19.490	4.055
-2.771	-19.498	4.051
-2.771	-19.502	4.043
-2.771	-19.501	4.034
-2.771	-19.494	4.027
-2.771	-19.485	4.026
-3.666	-19.094	2.798
-3.667	-19.085	2.795
-3.664	-19.079	2.789
-3.658	-19.078	2.782
-3.651	-19.082	2.776
-3.647	-19.090	2.775
-3.646	-19.099	2.778
-3.649	-19.105	2.784
-3.655	-19.106	2.791
-3.661	-19.102	2.797
-4.285	-19.356	2.235
-4.288	-19.347	2.234
-4.286	-19.339	2.230
-4.280	-19.335	2.223
-4.273	-19.337	2.218
-4.267	-19.343	2.215
-4.264	-19.352	2.216
-4.266	-19.360	2.221
-4.272	-19.364	2.227
-4.279	-19.362	2.233
-4.738	-19.568	1.524
-4.738	-19.564	1.533
-4.738	-19.566	1.542
-4.738	-19.572	1.548
-4.738	-19.581	1.550
-4.738	-19.590	1.546
-4.738	-19.594	1.537
-4.738	-19.592	1.528
-4.738	-19.586	1.522
-4.738	-19.577	1.520
-3.658	-19.240	2.787
-3.658	-19.232	2.792
-3.661	-19.228	2.799
-3.668	-19.228	2.805
-3.674	-19.234	2.809
-3.678	-19.242	2.809
-3.678	-19.250	2.804
-3.674	-19.255	2.797
-3.668	-19.254	2.790
-3.662	-19.249	2.786
-3.055	-19.559	3.314
-3.055	-19.552	3.319
-3.059	-19.547	3.326
-3.065	-19.548	3.333
-3.071	-19.553	3.337
-3.075	-19.561	3.336
-3.076	-19.569	3.331
-3.072	-19.574	3.324
-3.066	-19.573	3.317
-3.059	-19.568	3.313
-2.538	-19.856	3.788
-2.530	-19.852	3.788
-2.521	-19.853	3.788
-2.514	-19.860	3.788
-2.513	-19.869	3.788
-2.517	-19.877	3.788
-2.525	-19.882	3.788
-2.534	-19.880	3.788
-2.541	-19.874	3.788
-2.542	-19.864	3.788
-3.670	-19.402	2.812
-3.667	-19.395	2.817
-3.668	-19.386	2.818
-3.673	-19.378	2.816
-3.680	-19.376	2.811
-3.687	-19.379	2.806
-3.691	-19.386	2.801
-3.690	-19.395	2.800
-3.684	-19.402	2.802
-3.677	-19.405	2.807
-4.188	-19.569	3.505
-4.184	-19.561	3.508
-4.185	-19.552	3.509
-4.190	-19.545	3.507
-4.198	-19.542	3.503
-4.205	-19.545	3.498
-4.209	-19.552	3.494
-4.209	-19.561	3.493
-4.203	-19.569	3.495
-4.196	-19.572	3.500
-4.577	-19.617	4.261
-4.572	-19.609	4.263
-4.573	-19.600	4.264
-4.579	-19.593	4.262
-4.587	-19.591	4.260
-4.596	-19.594	4.257
-4.600	-19.602	4.255
-4.599	-19.611	4.254
-4.593	-19.618	4.255
-4.585	-19.620	4.258
-4.679	-19.673	4.870
-4.679	-19.668	4.878
-4.679	-19.670	4.887
-4.679	-19.676	4.894
-4.679	-19.686	4.895
-4.679	-19.694	4.891
-4.679	-19.698	4.883
-4.679	-19.697	4.874
-4.679	-19.690	4.867
-4.679	-19.681	4.866
-3.691	-19.528	2.810
-3.685	-19.526	2.816
-3.680	-19.529	2.824
-3.679	-19.536	2.830
-3.682	-19.544	2.832
-3.688	-19.551	2.829
-3.695	-19.553	2.823
-3.699	-19.550	2.816
-3.700	-19.544	2.810
-3.697	-19.535	2.807
-3.067	-19.889	2.299
-3.060	-19.887	2.305
-3.056	-19.889	2.313
-3.055	-19.896	2.319
-3.058	-19.905	2.321
-3.063	-19.912	2.318
-3.070	-19.914	2.312
-3.074	-19.911	2.304
-3.075	-19.904	2.299
-3.072	-19.896	2.296
-2.432	-20.197	1.806
-2.427	-20.194	1.813
-2.424	-20.196	1.822
-2.424	-20.202	1.829
-2.427	-20.211	1.831
-2.433	-20.218	1.828
-2.438	-20.221	1.821
-2.441	-20.219	1.812
-2.440	-20.212	1.806
-2.437	-20.204	1.803
-2.267	-20.294	1.770
-2.263	-20.290	1.777
-2.262	-20.291	1.786
-2.264	-20.297	1.794
-2.268	-20.305	1.796
-2.273	-20.312	1.793
-2.276	-20.316	1.786
-2.278	-20.315	1.777
-2.276	-20.309	1.769
-2.272	-20.301	1.767
-3.713	-19.680	2.830
-3.707	-19.675	2.826
-3.698	-19.675	2.822
-3.691	-19.681	2.821
-3.688	-19.689	2.821
-3.690	-19.698	2.824
-3.696	-19.703	2.828
-3.705	-19.703	2.831
-3.712	-19.697	2.833
-3.715	-19.689	2.832
-4.027	-19.843	2.049
-4.021	-19.838	2.044
-4.013	-19.839	2.040
-4.006	-19.844	2.038
-4.002	-19.853	2.039
-4.004	-19.861	2.044
-4.010	-19.865	2.049
-4.018	-19.865	2.054
-4.025	-19.859	2.056
-4.029	-19.851	2.054
-4.416	-20.208	1.577
-4.411	-20.205	1.570
-4.404	-20.206	1.565
-4.397	-20.212	1.563
-4.392	-20.220	1.566
-4.393	-20.227	1.572
-4.398	-20.230	1.579
-4.405	-20.229	1.584
-4.413	-20.223	1.586
-4.417	-20.216	1.583
-3.701	-19.842	2.826
-3.701	-19.833	2.827
-3.706	-19.826	2.831
-3.713	-19.824	2.837
-3.720	-19.827	2.841
-3.725	-19.835	2.842
-3.726	-19.844	2.841
-3.721	-19.851	2.837
-3.714	-19.853	2.831
-3.706	-19.850	2.827
-3.255	-19.976	3.520
-3.255	-19.967	3.522
-3.259	-19.961	3.527
-3.266	-19.960	3.533
-3.273	-19.964	3.538
-3.277	-19.972	3.539
-3.277	-19.981	3.536
-3.273	-19.987	3.531
-3.266	-19.988	3.525
-3.259	-19.984	3.521
-2.656	-20.192	4.146
-2.657	-20.183	4.149
-2.661	-20.177	4.154
-2.668	-20.177	4.161
-2.674	-20.182	4.165
-2.678	-20.190	4.166
-2.677	-20.199	4.163
-2.673	-20.205	4.158
-2.666	-20.205	4.151
-2.660	-20.200	4.147
-2.350	-20.262	4.498
-2.351	-20.253	4.500
-2.356	-20.247	4.505
-2.363	-20.246	4.511
-2.369	-20.251	4.516
-2.373	-20.259	4.517
-2.372	-20.268	4.515
-2.367	-20.274	4.510
-2.360	-20.275	4.504
-2.354	-20.270	4.499
-3.724	-19.999	2.849
-3.723	-19.992	2.854
-3.724	-19.982	2.854
-3.726	-19.975	2.848
-3.728	-19.973	2.839
-3.730	-19.976	2.831
-3.730	-19.984	2.826
-3.730	-19.993	2.826
-3.728	-20.000	2.832
-3.726	-20.003	2.840
-4.584	-20.043	3.052
-4.583	-20.036	3.058
-4.584	-20.027	3.058
-4.587	-20.019	3.053
-4.590	-20.016	3.045
-4.591	-20.019	3.036
[...]
         <CellData>
           <DataArray type="Float32" Name="combinedRootClassID" NumberOfComponents="1" format="ascii">
 -1.300e+01 -1.300e+01 -1.300e+01 -1.300e+01 -1.300e+01 -1.300e+01 -1.300e+01 -1.300e+01 -1.300e+01 -1.300e+01 -1.300e+01 -1.300e+01 -1.300e+01 -1.300e+01 -1.300e+01 -1.300e+01 -1.300e+01 -1.300e+01 -1.300e+01 -1.300e+01 -1.300e+01 -1.300e+01 -1.300e+01 -1.300e+01 -1.300e+01 -1.300e+01 -1.300e+01 -1.300e+01 -1.300e+01 -1.300e+01 -1.300e+01 -1.300e+01 -1.300e+01 -1.300e+01 -1.300e+01 -1.300e+01 -1.300e+01 -1.300e+01 -1.300e+01 -1.300e+01 -1.300e+01 -1.300e+01 -1.300e+01 -1.300e+01 -1.300e+01 -1.300e+01 -1.300e+01 -1.300e+01 -1.300e+01 -1.300e+01 -1.300e+01 -1.300e+01 -1.300e+01 -1.300e+01 -1.300e+01 -1.300e+01 -1.300e+01 -1.300e+01 -1.300e+01 -1.300e+01 -1.300e+01 -1.300e+01 -1.300e+01 -1.300e+01 -1.300e+01 -1.300e+01 -1.300e+01 -1.300e+01 -1.300e+01 -1.300e+01 -1.300e+01 -1.300e+01 -1.300e+01 -1.300e+01 -1.300e+01 -1.300e+01 -1.300e+01 -1.300e+01 -1.300e+01 -1.300e+01 -1.300e+01 -1.300e+01 -1.300e+01 -1.300e+01 -1.300e+01 -1.300e+01 -1.300e+01 -1.300e+01 -1.300e+01 -1.300e+01 -1.300e+01 -1.300e+01 -1.300e+01 -1.300e+01 -1.300e+01 -1.300e+01 -1.300e+01 -1.300e+01 -1.300e+01 -1.300e+01 -1.300e+01 -1.300e+01 -1.300e+01 -1.300e+01 -1.300e+01 -1.300e+01 -1.300e+01 -1.300e+01 -1.300e+01 -1.300e+01 -1.300e+01 -1.300e+01 -1.300e+01 -1.300e+01 -1.300e+01 -1.300e+01 -1.300e+01 -1.300e+01 -1.300e+01 -1.300e+01 -1.300e+01 -1.300e+01 -1.300e+01 -1.300e+01 -1.300e+01 -1.300e+01 -1.300e+01 -1.300e+01 -1.300e+01 -1.300e+01 -1.300e+01 -1.300e+01 -1.300e+01 -1.300e+01 -1.300e+01 -1.300e+01 -1.300e+01 -1.300e+01 -1.300e+01 -1.300e+01 -1.300e+01 -1.300e+01 -1.300e+01 -1.300e+01 -1.300e+01 -1.300e+01 -1.300e+01 -1.300e+01 -1.300e+01 -1.300e+01 -1.300e+01 -1.300e+01 -1.300e+01 -1.300e+01 -1.300e+01 -1.300e+01 -1.300e+01 -1.300e+01 -1.300e+01 -1.300e+01 -1.300e+01 -1.300e+01 -1.300e+01 -1.300e+01 -1.300e+01 -1.300e+01 -1.300e+01 -1.300e+01 -1.300e+01 -1.300e+01 -1.300e+01 -1.300e+01 -1.300e+01 -1.300e+01 -1.300e+01 -1.300e+01 -1.300e+01 -1.300e+01 -1.300e+01 -1.300e+01 -1.300e+01 -1.300e+01 -1.300e+01 -1.300e+01 -1.300e+01 -1.300e+01 -1.300e+01 -1.300e+01 -1.300e+01 -1.300e+01 -1.300e+01 -1.300e+01 -1.300e+01 -1.300e+01 -1.300e+01 -1.300e+01 -1.300e+01 -1.300e+01 -1.300e+01 -1.300e+01 -1.300e+01 -1.300e+01 -1.300e+01 -1.300e+01 -1.300e+01 -1.300e+01 -1.300e+01 -1.300e+01 -1.300e+01 -1.300e+01 -1.300e+01 -1.300e+01 -1.300e+01 -1.300e+01 -1.300e+01 -1.300e+01 -1.300e+01 -1.300e+01 -1.300e+01 -1.300e+01 -1.300e+01 -1.300e+01 -1.300e+01 -1.300e+01 -1.300e+01 -1.300e+01 -1.300e+01 -1.300e+01 -1.300e+01 -1.300e+01 -1.300e+01 -1.300e+01 -1.300e+01 -1.300e+01 -1.300e+01 -1.300e+01 -1.300e+01 -1.300e+01 -1.300e+01 -1.300e+01 -1.300e+01 -1.300e+01 -1.300e+01 -1.300e+01 -1.300e+01 -1.300e+01 -1.300e+01 -1.300e+01 -1.300e+01 -1.300e+01 -1.300e+01 -1.300e+01 -1.300e+01 -1.300e+01 -1.300e+01 -1.300e+01 -1.300e+01 -1.300e+01 -1.300e+01 -1.300e+01 -1.300e+01 -1.300e+01 -1.300e+01 -1.300e+01 -1.300e+01 -1.300e+01 -1.300e+01 -1.300e+01 -1.300e+01 -1.300e+01 -1.300e+01 -1.300e+01 -1.300e+01 -1.300e+01 -1.300e+01 -1.300e+01 -1.300e+01 -1.300e+01 -1.300e+01 -1.300e+01 -1.300e+01 -1.300e+01 -1.300e+01 -1.300e+01 -1.300e+01 -1.300e+01 -1.300e+01 -1.300e+01 -1.300e+01 -1.300e+01 -1.300e+01 -1.300e+01 -1.300e+01 -1.300e+01 -1.300e+01 -1.300e+01 -1.300e+01 -1.300e+01 -1.300e+01 -1.300e+01 -1.300e+01 -1.300e+01 -1.300e+01 -1.300e+01 -1.300e+01 -1.300e+01 -1.300e+01 -1.300e+01 -1.300e+01 -1.300e+01 -1.300e+01 -1.300e+01 -1.300e+01 -1.300e+01 -1.300e+01 -1.300e+01 -1.300e+01 -1.300e+01 -1.300e+01 -1.300e+01 -1.300e+01 -1.300e+01 -1.300e+01 -1.300e+01 -1.300e+01 -1.300e+01 -1.300e+01 -1.300e+01 -1.300e+01 -1.300e+01 -1.300e+01 -1.300e+01 -1.300e+01 -1.300e+01 -1.300e+01 -1.300e+01 -1.300e+01 -1.300e+01 -1.300e+01 -1.300e+01 -1.300e+01 -1.300e+01 -1.300e+01 -1.300e+01 -1.300e+01 -1.300e+01 -1.300e+01 -1.300e+01 -1.300e+01 -1.300e+01 -1.300e+01 -1.300e+01 -1.300e+01 -1.300e+01 -1.300e+01 -1.300e+01 -1.300e+01 -1.300e+01 -1.300e+01 -1.300e+01 -1.300e+01 -1.300e+01 -1.300e+01 -1.300e+01 -1.300e+01 -1.300e+01 -1.300e+01 -1.300e+01 -1.300e+01 -1.300e+01 -1.300e+01 -1.300e+01 -1.300e+01 -1.300e+01 -1.300e+01 -1.300e+01 -1.300e+01 -1.300e+01 -1.300e+01 -1.300e+01 -1.300e+01 -1.300e+01 -1.300e+01 -1.300e+01 -1.300e+01 -1.300e+01 -1.300e+01 -1.300e+01 -1.300e+01 -1.300e+01 -1.300e+01 -1.300e+01 -1.300e+01 -1.300e+01 -1.300e+01 -1.300e+01 -1.300e+01 -1.300e+01 -1.300e+01 -1.300e+01 -1.300e+01 -1.300e+01 -1.300e+01 -1.300e+01 -1.300e+01 -1.300e+01 -1.300e+01 -1.300e+01 -1.300e+01 -1.300e+01 -1.300e+01 -1.300e+01 -1.300e+01 -1.300e+01 -1.300e+01 -1.300e+01 -1.300e+01 -1.300e+01 -1.300e+01 -1.300e+01 -1.300e+01 -1.300e+01 -1.300e+01 -1.300e+01 -1.300e+01 -1.300e+01 -1.300e+01 -1.300e+01 -1.300e+01 -1.300e+01 -1.300e+01 -1.300e+01 -1.300e+01 -1.300e+01 -1.300e+01 -1.300e+01 -1.300e+01 -1.300e+01 -1.300e+01 -1.300e+01 -1.300e+01 -1.300e+01 -1.300e+01 -1.300e+01 -1.300e+01 -1.300e+01 -1.300e+01 -1.300e+01 -1.300e+01 -1.300e+01 -1.300e+01 -1.300e+01 -1.300e+01 -1.300e+01 -1.300e+01 -1.300e+01 -1.300e+01 -1.300e+01 -1.300e+01 -1.300e+01 -1.300e+01 -1.300e+01 -1.300e+01 -1.300e+01 -1.300e+01 -1.300e+01 -1.300e+01 -1.300e+01 -1.300e+01 -1.300e+01 -1.300e+01 -1.300e+01 -1.300e+01 -1.300e+01 -1.300e+01 -1.300e+01 -1.300e+01 -1.300e+01 -1.300e+01 -1.300e+01 -1.300e+01 -1.300e+01 -1.300e+01 -1.300e+01 -1.300e+01 -1.300e+01 -1.300e+01 -1.300e+01 -1.300e+01 -1.300e+01 -1.300e+01 -1.300e+01 -1.300e+01 -1.300e+01 -1.300e+01 -1.300e+01 -1.300e+01 -1.300e+01 -1.300e+01 -1.300e+01 -1.300e+01 -1.300e+01 -1.300e+01 -1.300e+01 -1.300e+01 -1.300e+01 -1.300e+01 -1.300e+01 -1.300e+01 -1.300e+01 -1.300e+01 -1.300e+01 -1.300e+01 -1.300e+01 -1.300e+01 -1.300e+01 -1.300e+01 -1.300e+01 -1.300e+01 -1.300e+01 -1.300e+01 -1.300e+01 -1.300e+01 -1.300e+01 -1.300e+01 -1.300e+01 -1.300e+01 -1.300e+01 -1.300e+01 -1.300e+01 -1.300e+01 -1.300e+01 -1.300e+01 -1.300e+01 -1.300e+01 -1.300e+01 -1.300e+01 -1.300e+01 -1.300e+01 -1.300e+01 -1.300e+01 -1.300e+01 -1.300e+01 -1.300e+01 -1.300e+01 -1.300e+01 -1.300e+01 -1.300e+01 -1.300e+01 -1.300e+01 -5.000e+00 -5.000e+00 -5.000e+00 -5.000e+00 -5.000e+00 -5.000e+00 -5.000e+00 -5.000e+00 -5.000e+00 -5.000e+00 -5.000e+00 -5.000e+00 -5.000e+00 -5.000e+00 -5.000e+00 -5.000e+00 -5.000e+00 -5.000e+00 -5.000e+00 -5.000e+00 -5.000e+00 -5.000e+00 -5.000e+00 -5.000e+00 -5.000e+00 -5.000e+00 -5.000e+00 -5.000e+00 -5.000e+00 -5.000e+00 -5.000e+00 -5.000e+00 -5.000e+00 -5.000e+00 -5.000e+00 -5.000e+00 -5.000e+00 -5.000e+00 -5.000e+00 -5.000e+00 -5.000e+00 -5.000e+00 -5.000e+00 -5.000e+00 -5.000e+00 -5.000e+00 -5.000e+00 -5.000e+00 -1.300e+01 -1.300e+01 -1.300e+01 -1.300e+01 -1.300e+01 -1.300e+01 -1.300e+01 -1.300e+01 -1.300e+01 -1.300e+01 -1.300e+01 -1.300e+01 -1.300e+01 -1.300e+01 -1.300e+01 -1.300e+01 -1.300e+01 -1.300e+01 -1.300e+01 -1.300e+01 -1.300e+01 -1.300e+01 -1.300e+01 -1.300e+01 -1.300e+01 -1.300e+01 -1.300e+01 -1.300e+01 -1.300e+01 -1.300e+01 -1.300e+01 -1.300e+01 -1.300e+01 -1.300e+01 -1.300e+01 -1.300e+01 -1.300e+01 -1.300e+01 -1.300e+01 -1.300e+01 -1.300e+01 -1.300e+01 -1.300e+01 -1.300e+01 -1.300e+01 -1.300e+01 -1.300e+01 -1.300e+01 -1.300e+01 -1.300e+01 -1.300e+01 -1.300e+01 -1.300e+01 -1.300e+01 -1.300e+01 -1.300e+01 -1.300e+01 -1.300e+01 -1.300e+01 -1.300e+01 -1.300e+01 -1.300e+01 -1.300e+01 -1.300e+01 -1.300e+01 -1.300e+01 -1.300e+01 -1.300e+01 -1.300e+01 -1.300e+01 -1.300e+01 -1.300e+01 -1.300e+01 -1.300e+01 -1.300e+01 -1.300e+01 -1.300e+01 -1.300e+01 -1.300e+01 -1.300e+01 -1.300e+01 -1.300e+01 -1.300e+01 -1.300e+01 -1.300e+01 -1.300e+01 -1.300e+01 -1.300e+01 -1.300e+01 -1.300e+01 -1.300e+01 -1.300e+01 -1.300e+01 -1.300e+01 -1.300e+01 -1.300e+01 -1.300e+01 -1.300e+01 -1.300e+01 -1.300e+01 -1.300e+01 -1.300e+01 -1.300e+01 -1.300e+01 -1.300e+01 -1.300e+01 -1.300e+01 -1.300e+01 -1.300e+01 -1.300e+01 -1.300e+01 -1.300e+01 -1.300e+01 -1.300e+01 -1.300e+01 -1.300e+01 -1.300e+01 -1.300e+01 -1.300e+01 -1.300e+01 -1.300e+01 -1.300e+01 -1.300e+01 -1.300e+01 -1.300e+01 -1.300e+01 -1.300e+01 -1.300e+01 -1.300e+01 -1.300e+01 -1.300e+01 -1.300e+01 -1.300e+01 -1.300e+01 -1.300e+01 -1.300e+01 -1.300e+01 -1.300e+01 -1.300e+01 -1.300e+01 -1.300e+01 -1.300e+01 -1.300e+01 -1.300e+01 -1.300e+01 -1.300e+01 -1.300e+01 -1.300e+01 -1.300e+01 -1.300e+01 -1.300e+01 -1.300e+01 -1.300e+01 -1.300e+01 -1.300e+01 -1.300e+01 -1.300e+01 -1.300e+01 -1.300e+01 -1.300e+01 -1.300e+01 -1.300e+01 -1.300e+01 -1.300e+01 -1.300e+01 -1.300e+01 -1.300e+01 -1.300e+01 -1.300e+01 -1.300e+01 -1.300e+01 -1.300e+01 -1.300e+01 -1.300e+01 -1.300e+01 -1.300e+01 -1.300e+01 -1.300e+01 -1.300e+01 -1.300e+01 -1.300e+01 -1.300e+01 -1.300e+01 -1.300e+01 -1.300e+01 -1.300e+01 -1.300e+01 -1.300e+01 -1.300e+01 -1.300e+01 -1.300e+01 -1.300e+01 -1.300e+01 -1.300e+01 -1.300e+01 -1.300e+01 -1.300e+01 -1.300e+01 -1.300e+01 -1.300e+01 -1.300e+01 -1.300e+01 -1.300e+01 -1.300e+01 -1.300e+01 -1.300e+01 -1.300e+01 -1.300e+01 -1.300e+01 -1.300e+01 -1.300e+01 -1.300e+01 -1.300e+01 -1.300e+01 -1.300e+01 -1.300e+01 -1.300e+01 -1.300e+01 -1.300e+01 -1.300e+01 -1.300e+01 -1.300e+01 -1.300e+01 -1.300e+01 -1.300e+01 -1.300e+01 -1.300e+01 -1.300e+01 -1.300e+01 -1.300e+01 -1.300e+01 -1.300e+01 -1.300e+01 -1.300e+01 -1.300e+01 -1.300e+01 -1.300e+01 -1.300e+01 -1.300e+01 -1.300e+01 -1.300e+01 -1.300e+01 -1.300e+01 -1.300e+01 -1.300e+01 -1.300e+01 -1.300e+01 -1.300e+01 -1.300e+01 -1.300e+01 -1.300e+01 -1.300e+01 -1.300e+01 -1.300e+01 -1.300e+01 -1.300e+01 -1.300e+01 -1.300e+01 -1.300e+01 -1.300e+01 -1.300e+01 -1.300e+01 -1.300e+01 -1.300e+01 -1.300e+01 -1.300e+01 -1.300e+01 -1.300e+01 -1.300e+01 -1.300e+01 -1.300e+01 -1.300e+01 -1.300e+01 -1.300e+01 -1.300e+01 -1.300e+01 -1.300e+01 -1.300e+01 -1.300e+01 -1.300e+01 -1.300e+01 -1.300e+01 -1.300e+01 -1.300e+01 -1.300e+01 -1.300e+01 -1.300e+01 -1.300e+01 -1.300e+01 -1.300e+01 -1.300e+01 -1.300e+01 -1.300e+01 -1.300e+01 -1.300e+01 -1.300e+01 -1.300e+01 -1.300e+01 -1.300e+01 -1.300e+01 -1.300e+01 -1.300e+01 -1.300e+01 -1.300e+01 -1.300e+01 -1.300e+01 -1.300e+01 -1.300e+01 -1.300e+01 -1.300e+01 -1.300e+01 -1.300e+01 -1.300e+01 -1.300e+01 -1.300e+01 -1.300e+01 -1.300e+01 -1.300e+01 -1.300e+01 -1.300e+01 -1.300e+01 -1.300e+01 -1.300e+01 -1.300e+01 -1.300e+01 -1.300e+01 -1.300e+01 -1.300e+01 -1.300e+01 -1.300e+01 -1.300e+01 -1.300e+01 -1.300e+01 -1.300e+01 -1.300e+01 -1.300e+01 -1.300e+01 -1.300e+01 -1.300e+01 -1.300e+01 -1.300e+01 -1.300e+01 -1.300e+01 -1.300e+01 -1.300e+01 -1.300e+01 -1.300e+01 -1.300e+01 -1.300e+01 -1.300e+01 -1.300e+01 -1.300e+01 -1.300e+01 -1.300e+01 -1.300e+01 -1.300e+01 -1.300e+01 -1.300e+01 -1.300e+01 -1.300e+01 -1.300e+01 -1.300e+01 -1.300e+01 -1.300e+01 -1.300e+01 -1.300e+01 -1.300e+01 -1.300e+01 -1.300e+01 -1.300e+01 -1.300e+01 -1.300e+01 -1.300e+01 -1.300e+01 -1.300e+01 -1.300e+01 -1.300e+01 -1.300e+01 -1.300e+01 -1.300e+01 -1.300e+01 -1.300e+01 -1.300e+01 -1.300e+01 -1.300e+01 -1.300e+01 -1.300e+01 -1.300e+01 -1.300e+01 -1.300e+01 -1.300e+01 -1.300e+01 -1.300e+01 -1.300e+01 -1.300e+01 -1.300e+01 -1.300e+01 -1.300e+01 -1.300e+01 -1.300e+01 -1.300e+01 -1.300e+01 -1.300e+01 -1.300e+01 -1.300e+01 -1.300e+01 -1.300e+01 -1.300e+01 -1.300e+01 -1.300e+01 -1.300e+01 -1.300e+01 -1.300e+01 -1.300e+01 -1.300e+01 -1.300e+01 -1.300e+01 -1.300e+01 -1.300e+01 -1.300e+01 -1.300e+01 -1.300e+01 -1.300e+01 -1.300e+01 -1.300e+01 -1.300e+01 -1.300e+01 -1.300e+01 -1.300e+01 -1.300e+01 -1.300e+01 -1.300e+01 -1.300e+01 -1.300e+01 -1.300e+01 -1.300e+01 -1.300e+01 -1.300e+01 -1.300e+01 -1.300e+01 -1.300e+01 -1.300e+01 -1.300e+01 -1.300e+01 -1.300e+01 -1.300e+01 -1.300e+01 -1.300e+01 -1.300e+01 -1.300e+01 -1.300e+01 -1.300e+01 -1.300e+01 -1.300e+01 -1.300e+01 -1.300e+01 -1.300e+01 -1.300e+01 -1.300e+01 -1.300e+01 -1.300e+01 -1.300e+01 -1.300e+01 -1.300e+01 -1.300e+01 -1.300e+01 -1.300e+01 -1.300e+01 -1.300e+01 -1.300e+01 -1.300e+01 -1.300e+01 -1.300e+01 -1.300e+01 -1.300e+01 -1.300e+01 -1.300e+01 -1.300e+01 -1.300e+01 -1.300e+01 -1.300e+01 -1.300e+01 -1.300e+01 -1.300e+01 -1.300e+01 -1.300e+01 -1.300e+01 -1.300e+01 -1.300e+01 -1.300e+01 -1.300e+01 -1.300e+01 -1.300e+01 -1.300e+01 -1.300e+01 -1.300e+01 -1.300e+01 -1.300e+01 -1.300e+01 -1.300e+01 -1.300e+01 -1.300e+01 -1.300e+01 -1.300e+01 -1.300e+01 -1.300e+01 -1.300e+01 -1.300e+01 -1.300e+01 -1.300e+01 -1.300e+01 -1.300e+01 -1.300e+01 -1.300e+01 -1.300e+01 -1.300e+01 -1.300e+01 -1.300e+01 -1.300e+01 -1.300e+01 -1.300e+01 -1.300e+01 -1.300e+01 -1.300e+01 -1.300e+01 -1.300e+01 -1.300e+01 -1.300e+01 -1.300e+01 -1.300e+01 -1.300e+01 -1.300e+01 -1.300e+01 -1.300e+01 -1.300e+01 -1.300e+01 -1.300e+01 -1.300e+01 -1.300e+01 -1.300e+01 -1.300e+01 -1.300e+01 -1.300e+01 -1.300e+01 -1.300e+01 -1.300e+01 -1.300e+01 -1.300e+01 -1.300e+01 -1.300e+01 -1.300e+01 -5.000e+00 -5.000e+00 -5.000e+00 -5.000e+00 -5.000e+00 -5.000e+00 -5.000e+00 -5.000e+00 -5.000e+00 -5.000e+00 -5.000e+00 -5.000e+00 -5.000e+00 -5.000e+00 -5.000e+00 -5.000e+00 -5.000e+00 -5.000e+00 -5.000e+00 -5.000e+00 -5.000e+00 -5.000e+00 -5.000e+00 -5.000e+00 -5.000e+00 -5.000e+00 -5.000e+00 -5.000e+00 -5.000e+00 -5.000e+00 -5.000e+00 -5.000e+00 -5.000e+00 -5.000e+00 -5.000e+00 -5.000e+00 -5.000e+00 -5.000e+00 -5.000e+00 -5.000e+00 -5.000e+00 -5.000e+00 -5.000e+00 -5.000e+00 -5.000e+00 -5.000e+00 -5.000e+00 -5.000e+00 -1.300e+01 -1.300e+01 -1.300e+01 -1.300e+01 -1.300e+01 -1.300e+01 -1.300e+01 -1.300e+01 -1.300e+01 -1.300e+01 -1.300e+01 -1.300e+01 -1.300e+01 -1.300e+01 -1.300e+01 -1.300e+01 -1.300e+01 -1.300e+01 -1.300e+01 -1.300e+01 -1.300e+01 -1.300e+01 -1.300e+01 -1.300e+01 -1.300e+01 -1.300e+01 -1.300e+01 -1.300e+01 -1.300e+01 -1.300e+01 -1.300e+01 -1.300e+01 -1.300e+01 -1.300e+01 -1.300e+01 -1.300e+01 -1.300e+01 -1.300e+01 -1.300e+01 -1.300e+01 -1.300e+01 -1.300e+01 -1.300e+01 -1.300e+01 -1.300e+01 -1.300e+01 -1.300e+01 -1.300e+01 -1.300e+01 -1.300e+01 -1.300e+01 -1.300e+01 -1.300e+01 -1.300e+01 -1.300e+01 -1.300e+01 -1.300e+01 -1.300e+01 -1.300e+01 -1.300e+01 -1.300e+01 -1.300e+01 -1.300e+01 -1.300e+01 -1.300e+01 -1.300e+01 -1.300e+01 -1.300e+01 -1.300e+01 -1.300e+01 -1.300e+01 -1.300e+01 -1.300e+01 -1.300e+01 -1.300e+01 -1.300e+01 -1.300e+01 -1.300e+01 -1.300e+01 -1.300e+01 -1.300e+01 -1.300e+01 -1.300e+01 -1.300e+01 -1.300e+01 -1.300e+01 -1.300e+01 -1.300e+01 -1.300e+01 -1.300e+01 -1.300e+01 -1.300e+01 -1.300e+01 -1.300e+01 -1.300e+01 -1.300e+01 -1.300e+01 -1.300e+01 -1.300e+01 -1.300e+01 -1.300e+01 -1.300e+01 -1.300e+01 -1.300e+01 -1.300e+01 -1.300e+01 -1.300e+01 -1.300e+01 -1.300e+01 -1.300e+01 -1.300e+01 -1.300e+01 -1.300e+01 -1.300e+01 -1.300e+01 -1.300e+01 -1.300e+01 -1.300e+01 -1.300e+01 -1.300e+01 -1.300e+01 -1.300e+01 -1.300e+01 -1.300e+01 -1.300e+01 -1.300e+01 -1.300e+01 -1.300e+01 -1.300e+01 -1.300e+01 -1.300e+01 -1.300e+01 -1.300e+01 -1.300e+01 -1.300e+01 -1.300e+01 -1.300e+01 -1.300e+01 -1.300e+01 -1.300e+01 -1.300e+01 -1.300e+01 -1.300e+01 -1.300e+01 -1.300e+01 -1.300e+01 -1.300e+01 -1.300e+01 -1.300e+01 -1.300e+01 -1.300e+01 -1.300e+01 -1.300e+01 -1.300e+01 -1.300e+01 -1.300e+01 -1.300e+01 -1.300e+01 -1.300e+01 -1.300e+01 -1.300e+01 -1.300e+01 -1.300e+01 -1.300e+01 -1.300e+01 -1.300e+01 -1.300e+01 -1.300e+01 -1.300e+01 -1.300e+01 -1.300e+01 -1.300e+01 -1.300e+01 -1.300e+01 -1.300e+01 -1.300e+01 -1.300e+01 -1.300e+01 -1.300e+01 -1.300e+01 -1.300e+01 -1.300e+01 -1.300e+01 -1.300e+01 -1.300e+01 -1.300e+01 -1.300e+01 -1.300e+01 -1.300e+01 -1.300e+01 -1.300e+01 -1.300e+01 -1.300e+01 -1.300e+01 -1.300e+01 -1.300e+01 -1.300e+01 -1.300e+01 -1.300e+01 -1.300e+01 -1.300e+01 -1.300e+01 -1.300e+01 -1.300e+01 -1.300e+01 -1.300e+01 -1.300e+01 -1.300e+01 -1.300e+01 -1.300e+01 -1.300e+01 -1.300e+01 -1.300e+01 -1.300e+01 -1.300e+01 -1.300e+01 -1.300e+01 -1.300e+01 -1.300e+01 -1.300e+01 -1.300e+01 -1.300e+01 -1.300e+01 -1.300e+01 -1.300e+01 -1.300e+01 -1.300e+01 -1.300e+01 -1.300e+01 -1.300e+01 -1.300e+01 -1.300e+01 -1.300e+01 -1.300e+01 -1.300e+01 -1.300e+01 -1.300e+01 -1.300e+01 -1.300e+01 -1.300e+01 -1.300e+01 -1.300e+01 -1.300e+01 -1.300e+01 -1.300e+01 -1.300e+01 -1.300e+01 -1.300e+01 -1.300e+01 -1.300e+01 -1.300e+01 -1.300e+01 -1.300e+01 -1.300e+01 -1.300e+01 -1.300e+01 -1.300e+01 -1.300e+01 -1.300e+01 -1.300e+01 -1.300e+01 -1.300e+01 -1.300e+01 -1.300e+01 -1.300e+01 -1.300e+01 -1.300e+01 -1.300e+01 -1.300e+01 -1.300e+01 -1.300e+01 -1.300e+01 -1.300e+01 -1.300e+01 -1.300e+01 -1.300e+01 -1.300e+01 -1.300e+01 -1.300e+01 -1.300e+01 -1.300e+01 -1.300e+01 -1.300e+01 -1.300e+01 -1.300e+01 -1.300e+01 -1.300e+01 -1.300e+01 -1.300e+01 -1.300e+01 -1.300e+01 -1.300e+01 -1.300e+01 -1.300e+01 -1.300e+01 -1.300e+01 -1.300e+01 -1.300e+01 -1.300e+01 -1.300e+01 -1.300e+01 -1.300e+01 -1.300e+01 -1.300e+01 -1.300e+01 -1.300e+01 -1.300e+01 -1.300e+01 -1.300e+01 -1.300e+01 -1.300e+01 -1.300e+01 -1.300e+01 -1.300e+01 -1.300e+01 -1.300e+01 -1.300e+01 -1.300e+01 -1.300e+01 -1.300e+01 -1.300e+01 -1.300e+01 -1.300e+01 -1.300e+01 -1.300e+01 -1.300e+01 -1.300e+01 -1.300e+01 -1.300e+01 -1.300e+01 -1.300e+01 -1.300e+01 -1.300e+01 -1.300e+01 -1.300e+01 -1.300e+01 -1.300e+01 -1.300e+01 -1.300e+01 -1.300e+01 -1.300e+01 -1.300e+01 -1.300e+01 -1.300e+01 -1.300e+01 -1.300e+01 -1.300e+01 -1.300e+01 -1.300e+01 -1.300e+01 -1.300e+01 -1.300e+01 -1.300e+01 -1.300e+01 -1.300e+01 -1.300e+01 -1.300e+01 -1.300e+01 -1.300e+01 -1.300e+01 -1.300e+01 -1.300e+01 -1.300e+01 -1.300e+01 -1.300e+01 -1.300e+01 -1.300e+01 -1.300e+01 -1.300e+01 -1.300e+01 -1.300e+01 -1.300e+01 -1.300e+01 -1.300e+01 -1.300e+01 -1.300e+01 -1.300e+01 -1.300e+01 -1.300e+01 -1.300e+01 -1.300e+01 -1.300e+01 -1.300e+01 -1.300e+01 -1.300e+01 -1.300e+01 -1.300e+01 -1.300e+01 -1.300e+01 -1.300e+01 -1.300e+01 -1.300e+01 -1.300e+01 -1.300e+01 -1.300e+01 -1.300e+01 -1.300e+01 -1.300e+01 -1.300e+01 -1.300e+01 -1.300e+01 -1.300e+01 -1.300e+01 -1.300e+01 -1.300e+01 -1.300e+01 -1.300e+01 -1.300e+01 -1.300e+01 -1.300e+01 -1.300e+01 -1.300e+01 -1.300e+01 -1.300e+01 -1.300e+01 -1.300e+01 -1.300e+01 -1.300e+01 -1.300e+01 -1.300e+01 -1.300e+01 -1.300e+01 -1.300e+01 -1.300e+01 -1.300e+01 -1.300e+01 -1.300e+01 -1.300e+01 -1.300e+01 -1.300e+01 -1.300e+01 -1.300e+01 -1.300e+01 -1.300e+01 -1.300e+01 -1.300e+01 -1.300e+01 -1.300e+01 -1.300e+01 -1.300e+01 -1.300e+01 -1.300e+01 -1.300e+01 -1.300e+01 -1.300e+01 -1.300e+01 -1.300e+01 -1.300e+01 -1.300e+01 -1.300e+01 -1.300e+01 -1.300e+01 -1.300e+01 -1.300e+01 -1.300e+01 -1.300e+01 -1.300e+01 -1.300e+01 -1.300e+01 -1.300e+01 -1.300e+01 -1.300e+01 -1.300e+01 -1.300e+01 -1.300e+01 -1.300e+01 -1.300e+01 -1.300e+01 -1.300e+01 -1.300e+01 -1.300e+01 -1.300e+01 -1.300e+01 -1.300e+01 -1.300e+01 -1.300e+01 -1.300e+01 -1.300e+01 -1.300e+01 -1.300e+01 -1.300e+01 -1.300e+01 -1.300e+01 -1.300e+01 -1.300e+01 -1.300e+01 -1.300e+01 -1.300e+01 -1.300e+01 -1.300e+01 -1.300e+01 -1.300e+01 -1.300e+01 -1.300e+01 -1.300e+01 -1.300e+01 -1.300e+01 -1.300e+01 -1.300e+01 -1.300e+01 -1.300e+01 -1.300e+01 -1.300e+01 -1.300e+01 -1.300e+01 -1.300e+01 -1.300e+01 -1.300e+01 -1.300e+01 -1.300e+01 -1.300e+01 -1.300e+01 -1.300e+01 -1.300e+01 -1.300e+01 -1.300e+01 -1.300e+01 -1.300e+01 -1.300e+01 -1.300e+01 -1.300e+01 -1.300e+01 -1.300e+01 -1.300e+01 -1.300e+01 -1.300e+01 -1.300e+01 -1.300e+01 -1.300e+01 -1.300e+01 -1.300e+01 -1.300e+01 -1.300e+01 -1.300e+01 -1.300e+01 -1.300e+01 -1.300e+01 -1.300e+01 -1.300e+01 -1.300e+01 -1.300e+01 -1.300e+01 -1.300e+01 -1.300e+01 -1.300e+01 -1.300e+01 -1.300e+01 -1.300e+01 -1.300e+01 -1.300e+01 -1.300e+01 -1.300e+01 -1.300e+01 -1.300e+01 -5.000e+00 -5.000e+00 -5.000e+00 -5.000e+00 -5.000e+00 -5.000e+00 -5.000e+00 -5.000e+00 -5.000e+00 -5.000e+00 -5.000e+00 -5.000e+00 -5.000e+00 -5.000e+00 -5.000e+00 -5.000e+00 -5.000e+00 -5.000e+00 -5.000e+00 -5.000e+00 -5.000e+00 -5.000e+00 -5.000e+00 -5.000e+00 -5.000e+00 -5.000e+00 -5.000e+00 -5.000e+00 -5.000e+00 -5.000e+00 -5.000e+00 -5.000e+00 -5.000e+00 -5.000e+00 -5.000e+00 -5.000e+00 -5.000e+00 -5.000e+00 -5.000e+00 -5.000e+00 -5.000e+00 -5.000e+00 -5.000e+00 -5.000e+00 -5.000e+00 -5.000e+00 -5.000e+00 -5.000e+00 -1.300e+01 -1.300e+01 -1.300e+01 -1.300e+01 -1.300e+01 -1.300e+01 -1.300e+01 -1.300e+01