<?xml version="1.0"?>
<VTKFile type="UnstructuredGrid" version="0.1" byte_order="LittleEndian">
   <UnstructuredGrid>
      <Piece NumberOfPoints="8560" NumberOfCells="585">
         <Points>
            <DataArray type="Float32" Name="Position" NumberOfComponents="3" format="ascii">
-0.120	-5.040	0.097
-0.123	-5.031	0.098
-0.123	-5.023	0.094
-0.121	-5.018	0.087
-0.117	-5.018	0.079
-0.112	-5.024	0.073
-0.109	-5.032	0.072
-0.109	-5.041	0.075
-0.111	-5.046	0.083
-0.115	-5.045	0.091
-0.883	-5.259	-0.298
-0.887	-5.251	-0.295
-0.888	-5.242	-0.298
-0.886	-5.237	-0.305
-0.883	-5.236	-0.314
-0.879	-5.241	-0.321
-0.875	-5.249	-0.323
-0.874	-5.258	-0.320
-0.875	-5.264	-0.313
-0.879	-5.264	-0.304
-0.948	-5.280	-0.321
-0.951	-5.272	-0.318
-0.953	-5.263	-0.320
-0.953	-5.257	-0.327
-0.950	-5.255	-0.335
-0.946	-5.259	-0.343
-0.943	-5.267	-0.346
-0.941	-5.276	-0.344
-0.942	-5.283	-0.337
-0.944	-5.284	-0.328
-0.241	-5.091	0.171
-0.239	-5.082	0.169
-0.234	-5.077	0.163
-0.227	-5.078	0.157
-0.222	-5.083	0.152
-0.219	-5.092	0.151
-0.222	-5.101	0.154
-0.227	-5.106	0.159
-0.234	-5.105	0.166
-0.239	-5.100	0.170
-0.842	-5.153	-0.476
-0.840	-5.145	-0.479
-0.835	-5.140	-0.484
-0.828	-5.140	-0.491
-0.822	-5.146	-0.495
-0.820	-5.155	-0.496
-0.822	-5.164	-0.494
-0.828	-5.169	-0.488
-0.835	-5.168	-0.482
-0.840	-5.162	-0.477
-1.121	-5.885	0.748
-1.115	-5.883	0.755
-1.113	-5.885	0.764
-1.115	-5.890	0.771
-1.121	-5.896	0.774
-1.129	-5.901	0.772
-1.135	-5.903	0.765
-1.137	-5.901	0.756
-1.134	-5.896	0.749
-1.128	-5.890	0.746
-0.782	-6.314	0.578
-0.776	-6.312	0.585
-0.774	-6.314	0.594
-0.777	-6.319	0.601
-0.783	-6.325	0.604
-0.790	-6.330	0.602
-0.796	-6.332	0.595
-0.799	-6.330	0.586
-0.796	-6.325	0.579
-0.790	-6.319	0.576
-1.209	-6.013	0.820
-1.206	-6.006	0.825
-1.206	-5.997	0.825
-1.210	-5.989	0.821
-1.215	-5.986	0.814
-1.220	-5.989	0.806
-1.222	-5.996	0.802
-1.222	-6.005	0.801
-1.219	-6.013	0.805
-1.213	-6.016	0.812
-1.758	-6.053	1.195
-1.756	-6.046	1.200
-1.756	-6.037	1.200
-1.759	-6.029	1.196
-1.764	-6.026	1.189
-1.769	-6.029	1.181
-1.772	-6.036	1.177
-1.772	-6.045	1.176
-1.768	-6.053	1.180
-1.763	-6.056	1.187
-1.297	-6.103	0.854
-1.291	-6.102	0.861
-1.289	-6.103	0.870
-1.293	-6.108	0.878
-1.300	-6.113	0.881
-1.308	-6.116	0.879
-1.314	-6.118	0.872
-1.316	-6.116	0.863
-1.312	-6.112	0.855
-1.305	-6.107	0.852
-1.031	-6.574	0.719
-1.025	-6.573	0.726
-1.024	-6.574	0.735
-1.027	-6.578	0.743
-1.034	-6.583	0.746
-1.042	-6.587	0.744
-1.048	-6.589	0.737
-1.050	-6.587	0.728
-1.047	-6.583	0.720
-1.039	-6.578	0.717
-1.383	-6.213	0.909
-1.377	-6.212	0.916
-1.375	-6.214	0.925
-1.379	-6.218	0.932
-1.386	-6.223	0.936
-1.395	-6.226	0.933
-1.401	-6.226	0.927
-1.403	-6.224	0.918
-1.399	-6.220	0.910
-1.392	-6.216	0.907
-1.184	-6.670	0.765
-1.178	-6.669	0.772
-1.176	-6.672	0.780
-1.180	-6.676	0.788
-1.188	-6.680	0.791
-1.196	-6.683	0.789
-1.202	-6.683	0.782
-1.204	-6.681	0.774
-1.200	-6.677	0.766
-1.193	-6.673	0.763
-1.462	-6.340	0.964
-1.460	-6.331	0.965
-1.463	-6.323	0.967
-1.471	-6.318	0.971
-1.480	-6.320	0.974
-1.486	-6.326	0.975
-1.488	-6.335	0.974
-1.485	-6.343	0.972
-1.477	-6.348	0.969
-1.468	-6.346	0.966
-1.268	-6.418	1.520
-1.266	-6.409	1.521
-1.270	-6.400	1.523
-1.277	-6.396	1.527
-1.286	-6.397	1.529
-1.292	-6.404	1.531
-1.294	-6.413	1.530
-1.291	-6.421	1.528
-1.283	-6.425	1.525
-1.275	-6.424	1.522
-1.553	-6.441	1.004
-1.547	-6.440	1.010
-1.544	-6.442	1.019
-1.547	-6.447	1.026
-1.553	-6.453	1.030
-1.561	-6.457	1.028
-1.568	-6.458	1.021
-1.570	-6.456	1.012
-1.568	-6.451	1.005
-1.561	-6.445	1.002
-1.283	-6.865	0.814
-1.276	-6.864	0.821
-1.274	-6.866	0.830
-1.276	-6.871	0.837
-1.283	-6.877	0.840
-1.291	-6.881	0.838
-1.297	-6.882	0.832
-1.300	-6.880	0.823
-1.297	-6.875	0.816
-1.291	-6.869	0.812
-1.633	-6.561	1.045
-1.628	-6.558	1.052
-1.626	-6.560	1.061
-1.628	-6.565	1.068
-1.633	-6.572	1.071
-1.639	-6.579	1.069
-1.644	-6.582	1.061
-1.646	-6.580	1.053
-1.644	-6.574	1.045
-1.639	-6.567	1.042
-1.346	-6.812	0.940
-1.343	-6.808	0.947
-1.345	-6.804	0.955
-1.353	-6.801	0.960
-1.362	-6.801	0.960
-1.370	-6.804	0.956
-1.373	-6.807	0.948
-1.370	-6.811	0.940
-1.362	-6.814	0.935
-1.353	-6.814	0.935
-1.699	-6.703	1.090
-1.696	-6.694	1.091
-1.698	-6.685	1.093
-1.706	-6.680	1.096
-1.715	-6.681	1.097
-1.722	-6.686	1.098
-1.725	-6.695	1.097
-1.722	-6.703	1.095
-1.715	-6.709	1.092
-1.706	-6.708	1.091
-1.630	-6.770	1.477
-1.627	-6.761	1.478
-1.630	-6.752	1.480
-1.637	-6.747	1.482
-1.646	-6.747	1.484
-1.654	-6.753	1.484
-1.657	-6.762	1.483
-1.654	-6.770	1.481
-1.647	-6.775	1.479
-1.637	-6.775	1.478
-1.777	-6.835	1.135
-1.774	-6.827	1.140
-1.774	-6.818	1.140
-1.777	-6.810	1.135
-1.781	-6.808	1.128
-1.785	-6.810	1.120
-1.788	-6.818	1.115
-1.788	-6.827	1.115
-1.785	-6.835	1.120
-1.781	-6.837	1.127
-2.060	-6.842	1.286
-2.058	-6.835	1.291
-2.058	-6.826	1.291
-2.061	-6.818	1.286
-2.065	-6.815	1.278
-2.069	-6.818	1.270
-2.071	-6.826	1.265
-2.071	-6.835	1.265
-2.068	-6.843	1.270
-2.064	-6.845	1.278
-1.838	-6.957	1.157
-1.836	-6.948	1.159
-1.840	-6.940	1.162
-1.847	-6.936	1.166
-1.856	-6.938	1.168
-1.862	-6.945	1.169
-1.864	-6.954	1.167
-1.861	-6.961	1.164
-1.853	-6.965	1.160
-1.844	-6.964	1.157
-1.702	-7.060	1.537
-1.700	-7.051	1.538
-1.703	-7.044	1.542
-1.711	-7.040	1.546
-1.719	-7.041	1.548
-1.726	-7.048	1.549
-1.728	-7.057	1.547
-1.724	-7.065	1.544
-1.717	-7.069	1.540
-1.708	-7.067	1.537
-0.330	-5.159	0.226
-0.325	-5.157	0.234
-0.326	-5.156	0.243
-0.332	-5.157	0.250
-0.341	-5.160	0.252
-0.349	-5.163	0.249
-0.354	-5.165	0.241
-0.353	-5.166	0.231
-0.347	-5.165	0.224
-0.338	-5.162	0.222
-0.131	-5.819	0.300
-0.127	-5.817	0.308
-0.128	-5.816	0.317
-0.134	-5.817	0.324
-0.142	-5.820	0.326
-0.151	-5.823	0.323
-0.155	-5.825	0.315
-0.154	-5.826	0.306
-0.148	-5.825	0.299
-0.139	-5.822	0.296
-1.907	-7.084	1.192
-1.906	-7.075	1.192
-1.910	-7.067	1.195
-1.918	-7.064	1.200
-1.926	-7.067	1.204
-1.931	-7.074	1.206
-1.931	-7.084	1.206
-1.927	-7.091	1.203
-1.920	-7.094	1.198
-1.912	-7.092	1.194
-1.742	-7.111	1.488
-1.741	-7.102	1.488
-1.746	-7.094	1.492
-1.753	-7.091	1.496
-1.761	-7.094	1.500
-1.766	-7.101	1.502
-1.767	-7.110	1.502
-1.763	-7.118	1.499
-1.755	-7.121	1.494
-1.747	-7.118	1.490
-1.968	-7.216	1.232
-1.967	-7.207	1.233
-1.970	-7.199	1.237
-1.978	-7.196	1.241
-1.986	-7.198	1.244
-1.993	-7.205	1.245
-1.994	-7.214	1.243
-1.990	-7.221	1.240
-1.983	-7.225	1.236
-1.974	-7.223	1.233
-1.848	-7.286	1.519
-1.846	-7.277	1.521
-1.850	-7.269	1.524
-1.857	-7.266	1.528
-1.866	-7.268	1.531
-1.872	-7.275	1.532
-1.874	-7.284	1.531
-1.870	-7.291	1.527
-1.862	-7.295	1.523
-1.854	-7.293	1.520
-2.029	-7.348	1.271
-2.027	-7.338	1.272
-2.031	-7.331	1.275
-2.039	-7.327	1.279
-2.047	-7.329	1.283
-2.053	-7.336	1.284
-2.054	-7.345	1.283
-2.051	-7.353	1.280
-2.043	-7.356	1.276
-2.035	-7.354	1.273
-1.895	-7.395	1.571
-1.894	-7.386	1.572
-1.898	-7.378	1.575
-1.905	-7.374	1.579
-1.914	-7.376	1.582
-1.920	-7.383	1.584
-1.921	-7.392	1.583
-1.917	-7.400	1.580
-1.909	-7.404	1.576
-1.901	-7.402	1.573
-2.092	-7.468	1.301
-2.086	-7.466	1.307
-2.083	-7.468	1.316
-2.085	-7.474	1.323
-2.090	-7.481	1.326
-2.097	-7.487	1.324
-2.103	-7.489	1.317
-2.106	-7.487	1.309
-2.105	-7.481	1.301
-2.099	-7.474	1.298
-1.881	-7.679	1.174
-1.875	-7.677	1.181
-1.872	-7.679	1.189
-1.874	-7.685	1.196
-1.879	-7.692	1.199
-1.886	-7.698	1.197
-1.892	-7.700	1.190
-1.895	-7.698	1.182
-1.894	-7.692	1.175
-1.888	-7.685	1.172
-2.147	-7.604	1.335
-2.140	-7.602	1.341
-2.136	-7.604	1.349
-2.137	-7.610	1.356
-2.142	-7.618	1.359
-2.149	-7.624	1.357
-2.155	-7.625	1.351
-2.159	-7.623	1.343
-2.158	-7.617	1.336
-2.154	-7.609	1.333
-1.942	-7.820	1.199
-1.936	-7.813	1.202
-1.930	-7.807	1.199
-1.926	-7.803	1.191
-1.926	-7.804	1.182
-1.930	-7.807	1.175
-1.936	-7.814	1.172
-1.943	-7.820	1.175
-1.946	-7.824	1.183
-1.946	-7.824	1.192
-2.191	-7.764	1.388
-2.189	-7.756	1.393
-2.189	-7.747	1.393
-2.192	-7.739	1.389
-2.196	-7.736	1.381
-2.200	-7.739	1.373
-2.202	-7.747	1.368
-2.202	-7.756	1.368
-2.199	-7.764	1.373
-2.195	-7.766	1.380
-2.393	-7.770	1.495
-2.391	-7.763	1.499
-2.391	-7.753	1.500
-2.394	-7.746	1.495
-2.398	-7.743	1.487
-2.402	-7.746	1.479
-2.404	-7.754	1.474
-2.404	-7.763	1.474
-2.401	-7.770	1.479
-2.397	-7.773	1.487
-2.230	-7.893	1.407
-2.230	-7.884	1.409
-2.234	-7.877	1.414
-2.242	-7.875	1.419
-2.249	-7.879	1.423
-2.254	-7.887	1.424
-2.254	-7.896	1.422
-2.250	-7.902	1.417
-2.243	-7.904	1.412
-2.235	-7.901	1.408
-2.099	-7.945	1.604
-2.099	-7.936	1.606
-2.103	-7.929	1.611
-2.111	-7.927	1.616
-2.118	-7.931	1.620
-2.123	-7.938	1.622
-2.123	-7.947	1.619
-2.119	-7.954	1.615
-2.112	-7.956	1.609
-2.104	-7.952	1.605
-2.281	-8.021	1.435
-2.276	-8.018	1.442
-2.272	-8.020	1.450
-2.273	-8.027	1.457
-2.276	-8.035	1.460
-2.282	-8.041	1.457
-2.288	-8.044	1.450
-2.292	-8.042	1.442
-2.291	-8.035	1.435
-2.287	-8.027	1.433
-2.135	-8.116	1.350
-2.130	-8.114	1.356
-2.126	-8.116	1.365
-2.126	-8.123	1.371
-2.130	-8.131	1.374
-2.136	-8.137	1.371
-2.142	-8.140	1.364
-2.145	-8.138	1.356
-2.145	-8.131	1.349
-2.141	-8.123	1.347
-2.307	-8.177	1.467
-2.306	-8.169	1.470
-2.310	-8.162	1.475
-2.317	-8.159	1.480
-2.325	-8.162	1.483
-2.331	-8.169	1.483
-2.333	-8.178	1.480
-2.329	-8.185	1.475
-2.321	-8.187	1.470
-2.313	-8.184	1.467
-2.251	-8.224	1.575
-2.250	-8.215	1.578
-2.254	-8.208	1.583
-2.261	-8.206	1.588
-2.269	-8.209	1.591
-2.275	-8.216	1.591
-2.277	-8.224	1.588
-2.273	-8.231	1.583
-2.265	-8.234	1.578
-2.257	-8.231	1.575
-2.355	-8.305	1.493
-2.348	-8.303	1.499
-2.344	-8.306	1.507
-2.344	-8.313	1.513
-2.347	-8.321	1.516
-2.354	-8.327	1.514
-2.360	-8.329	1.507
-2.365	-8.327	1.500
-2.365	-8.320	1.493
-2.361	-8.312	1.491
-2.249	-8.383	1.407
-2.242	-8.380	1.413
-2.238	-8.383	1.421
-2.237	-8.390	1.427
-2.241	-8.398	1.430
-2.248	-8.404	1.428
-2.254	-8.407	1.421
-2.258	-8.404	1.414
-2.259	-8.397	1.407
-2.255	-8.389	1.405
-0.435	-5.240	0.308
-0.433	-5.231	0.309
-0.436	-5.223	0.311
-0.444	-5.218	0.314
-0.453	-5.219	0.316
-0.460	-5.225	0.317
-0.462	-5.234	0.316
-0.459	-5.242	0.314
-0.451	-5.247	0.312
-0.442	-5.246	0.309
-0.250	-5.340	0.998
-0.247	-5.331	0.998
-0.251	-5.323	1.000
-0.258	-5.318	1.003
[...]
         <CellData>
           <DataArray type="Float32" Name="combinedRootClassID" NumberOfComponents="1" format="ascii">
 -1.300e+01 -1.300e+01 -1.300e+01 -1.300e+01 -1.300e+01 -1.300e+01 -1.300e+01 -1.300e+01 -1.300e+01 -1.300e+01 -1.300e+01 -1.300e+01 -1.300e+01 -1.300e+01 -1.300e+01 -1.300e+01 -1.300e+01 -1.300e+01 -1.300e+01 -1.300e+01 -1.300e+01 -1.300e+01 -1.300e+01 -1.300e+01 -1.300e+01 -1.300e+01 -1.300e+01 -1.300e+01 -1.300e+01 -1.300e+01 -1.300e+01 -1.300e+01 -1.300e+01 -1.300e+01 -1.300e+01 -1.300e+01 -1.300e+01 -5.000e+00 -5.000e+00 -5.000e+00 -5.000e+00 -5.000e+00 -5.000e+00 -5.000e+00 -5.000e+00 -5.000e+00 -5.000e+00 -5.000e+00 -5.000e+00 -5.000e+00 -5.000e+00 -5.000e+00 -5.000e+00 -5.000e+00 -5.000e+00 -1.300e+01 -1.300e+01 -1.300e+01 -1.300e+01 -1.300e+01 -1.300e+01 -1.300e+01 -1.300e+01 -1.300e+01 -1.300e+01 -1.300e+01 -1.300e+01 -1.300e+01 -1.300e+01 -1.300e+01 -1.300e+01 -1.300e+01 -1.300e+01 -1.300e+01 -1.300e+01 -1.300e+01 -1.300e+01 -1.300e+01 -1.300e+01 -1.300e+01 -1.300e+01 -1.300e+01 -1.300e+01 -1.300e+01 -1.300e+01 -1.300e+01 -1.300e+01 -1.300e+01 -1.300e+01 -1.300e+01 -1.300e+01 -1.300e+01 -5.000e+00 -5.000e+00 -5.000e+00 -5.000e+00 -5.000e+00 -5.000e+00 -5.000e+00 -5.000e+00 -5.000e+00 -5.000e+00 -5.000e+00 -5.000e+00 -5.000e+00 -5.000e+00 -5.000e+00 -5.000e+00 -5.000e+00 -5.000e+00 -1.300e+01 -1.300e+01 -1.300e+01 -1.300e+01 -1.300e+01 -1.300e+01 -1.300e+01 -1.300e+01 -1.300e+01 -1.300e+01 -1.300e+01 -1.300e+01 -1.300e+01 -1.300e+01 -1.300e+01 -1.300e+01 -1.300e+01 -1.300e+01 -1.300e+01 -1.300e+01 -1.300e+01 -1.300e+01 -1.300e+01 -1.300e+01 -1.300e+01 -1.300e+01 -1.300e+01 -1.300e+01 -1.300e+01 -1.300e+01 -1.300e+01 -1.300e+01 -1.300e+01 -1.300e+01 -1.300e+01 -1.300e+01 -5.000e+00 -5.000e+00 -5.000e+00 -5.000e+00 -5.000e+00 -5.000e+00 -5.000e+00 -5.000e+00 -5.000e+00 -5.000e+00 -5.000e+00 -5.000e+00 -5.000e+00 -5.000e+00 -5.000e+00 -5.000e+00 -5.000e+00 -5.000e+00 -1.300e+01 -1.300e+01 -1.300e+01 -1.300e+01 -1.300e+01 -1.300e+01 -1.300e+01 -1.300e+01 -1.300e+01 -1.300e+01 -1.300e+01 -1.300e+01 -1.300e+01 -1.300e+01 -1.300e+01 -1.300e+01 -1.300e+01 -1.300e+01 -1.300e+01 -1.300e+01 -1.300e+01 -1.300e+01 -1.300e+01 -1.300e+01 -1.300e+01 -1.300e+01 -1.300e+01 -1.300e+01 -1.300e+01 -1.300e+01 -1.300e+01 -1.300e+01 -1.300e+01 -1.300e+01 -1.300e+01 -1.300e+01 -1.300e+01 -5.000e+00 -5.000e+00 -5.000e+00 -5.000e+00 -5.000e+00 -5.000e+00 -5.000e+00 -5.000e+00 -5.000e+00 -5.000e+00 -5.000e+00 -5.000e+00 -5.000e+00 -5.000e+00 -5.000e+00 -5.000e+00 -5.000e+00 -5.000e+00 -1.100e+01 -1.100e+01 -1.100e+01 -1.100e+01 -1.100e+01 -1.100e+01 -1.100e+01 -1.100e+01 -1.100e+01 -1.100e+01 -1.100e+01 -1.100e+01 -1.100e+01 -1.100e+01 -1.100e+01 -1.100e+01 -1.100e+01 -1.100e+01 -1.100e+01 -1.100e+01 -1.100e+01 -1.100e+01 -1.100e+01 -1.100e+01 -1.100e+01 -1.100e+01 -1.100e+01 -1.100e+01 -2.000e+00 -2.000e+00 -2.000e+00 -2.000e+00 -2.000e+00 -2.000e+00 -2.000e+00 -2.000e+00 -2.000e+00 -2.000e+00 -7.000e+00 -7.000e+00 -7.000e+00 -7.000e+00 -7.000e+00 -7.000e+00 -7.000e+00 -7.000e+00 -7.000e+00 -7.000e+00 -7.000e+00 -7.000e+00 -7.000e+00 -7.000e+00 -7.000e+00 -7.000e+00 -7.000e+00 -7.000e+00 -7.000e+00 -7.000e+00 -7.000e+00 -7.000e+00 -7.000e+00 -7.000e+00 -7.000e+00 -7.000e+00 -7.000e+00 -7.000e+00 -7.000e+00 -7.000e+00 -7.000e+00 -7.000e+00 -7.000e+00 -7.000e+00 -7.000e+00 -7.000e+00 -7.000e+00 -7.000e+00 -7.000e+00 -7.000e+00 -7.000e+00 -7.000e+00 -7.000e+00 -7.000e+00 -7.000e+00 -7.000e+00 -7.000e+00 -7.000e+00 -7.000e+00 -7.000e+00 -7.000e+00 -7.000e+00 -7.000e+00 -7.000e+00 -7.000e+00 -7.000e+00 -7.000e+00 -7.000e+00 -7.000e+00 -7.000e+00 -7.000e+00 -7.000e+00 -7.000e+00 -7.000e+00 -7.000e+00 -7.000e+00 -7.000e+00 -7.000e+00 -7.000e+00 -7.000e+00 -7.000e+00 -7.000e+00 -7.000e+00 -7.000e+00 -7.000e+00 -7.000e+00 -7.000e+00 -7.000e+00 -7.000e+00 -7.000e+00 -7.000e+00 -7.000e+00 -7.000e+00 -7.000e+00 -7.000e+00 -7.000e+00 -7.000e+00 -7.000e+00 -7.000e+00 -7.000e+00 -7.000e+00 -7.000e+00 -7.000e+00 -7.000e+00 -7.000e+00 -7.000e+00 -7.000e+00 -7.000e+00 -7.000e+00 -7.000e+00 -7.000e+00 -7.000e+00 -7.000e+00 -7.000e+00 -7.000e+00 -7.000e+00 -7.000e+00 -7.000e+00 -7.000e+00 -7.000e+00 -7.000e+00 -7.000e+00 -7.000e+00 -7.000e+00 -7.000e+00 -7.000e+00 -7.000e+00 -7.000e+00 -7.000e+00 -7.000e+00 -7.000e+00 -7.000e+00 -7.000e+00 -7.000e+00 -7.000e+00 -7.000e+00 -7.000e+00 -7.000e+00 -7.000e+00 -7.000e+00 -7.000e+00 -7.000e+00 -7.000e+00 -7.000e+00 -7.000e+00 -7.000e+00 -7.000e+00 -7.000e+00 -7.000e+00 -7.000e+00 -7.000e+00 -7.000e+00 -7.000e+00 -7.000e+00 -7.000e+00 -7.000e+00 -7.000e+00 -7.000e+00 -7.000e+00 -7.000e+00 -7.000e+00 -7.000e+00 -7.000e+00 -7.000e+00 -7.000e+00 -7.000e+00 -7.000e+00 -7.000e+00 -7.000e+00 -7.000e+00 -7.000e+00 -7.000e+00 -7.000e+00 -7.000e+00 -7.000e+00 -7.000e+00 -7.000e+00 -7.000e+00 -7.000e+00 -7.000e+00 -7.000e+00 -7.000e+00 -7.000e+00 -7.000e+00 -7.000e+00 -7.000e+00 -7.000e+00 -7.000e+00 -7.000e+00 -7.000e+00 -7.000e+00 -7.000e+00 -7.000e+00 -7.000e+00 -7.000e+00 -7.000e+00 -7.000e+00 -7.000e+00 -7.000e+00 -7.000e+00 -7.000e+00 -7.000e+00 -7.000e+00 -7.000e+00 -7.000e+00 -7.000e+00 -7.000e+00 -7.000e+00 -7.000e+00 -7.000e+00 -7.000e+00 -7.000e+00 -7.000e+00 -7.000e+00 -7.000e+00 -7.000e+00 -7.000e+00 -7.000e+00 -7.000e+00 -7.000e+00 -7.000e+00 -7.000e+00 -7.000e+00 -7.000e+00 -7.000e+00 -7.000e+00 -7.000e+00 -7.000e+00 -7.000e+00 -7.000e+00 -7.000e+00 -7.000e+00 -7.000e+00 -7.000e+00 -7.000e+00 -7.000e+00 -7.000e+00 -7.000e+00 -7.000e+00 -7.000e+00 -7.000e+00 -7.000e+00 -7.000e+00 -7.000e+00 -7.000e+00 -7.000e+00 -7.000e+00 -7.000e+00 -7.000e+00 -7.000e+00 -7.000e+00 -7.000e+00 -7.000e+00 -7.000e+00 -7.000e+00 -7.000e+00 -7.000e+00 -7.000e+00 -7.000e+00 -7.000e+00 -7.000e+00 -7.000e+00 -7.000e+00 -7.000e+00 -7.000e+00 -7.000e+00 -7.000e+00 -7.000e+00 -7.000e+00 -7.000e+00 -7.000e+00 -7.000e+00 -7.000e+00 -7.000e+00 -7.000e+00 -7.000e+00 -7.000e+00 -7.000e+00 -7.000e+00 -7.000e+00 -7.000e+00 -7.000e+00 -7.000e+00 -7.000e+00 -7.000e+00 -7.000e+00 -7.000e+00 -7.000e+00 -7.000e+00 -7.000e+00 -7.000e+00 -7.000e+00 -7.000e+00 -9.000e+00 -9.000e+00 -9.000e+00 -9.000e+00 -9.000e+00 -9.000e+00 -9.000e+00 -9.000e+00 -9.000e+00 -9.000e+00 -9.000e+00 -9.000e+00 -9.000e+00 -9.000e+00 -9.000e+00 -4.000e+00 -4.000e+00 -4.000e+00 -4.000e+00 -4.000e+00 -4.000e+00 -4.000e+00 -4.000e+00 -4.000e+00 -4.000e+00 -4.000e+00 -4.000e+00 -4.000e+00 -4.000e+00 -4.000e+00 -4.000e+00 -4.000e+00 -4.000e+00 -4.000e+00 -4.000e+00 -4.000e+00 -4.000e+00 -4.000e+00 -4.000e+00 -4.000e+00 -4.000e+00 -4.000e+00 -4.000e+00 -4.000e+00 -4.000e+00
           </DataArray>
           <DataArray type="Float32" Name="nitrate/Cmin" NumberOfComponents="1" format="ascii">
 1.000e-03 1.000e-03 1.000e-03 1.000e-03 1.000e-03 1.000e-03 1.000e-03 1.000e-03 1.000e-03 1.000e-03 1.000e-03 1.000e-03 1.000e-03 1.000e-03 1.000e-03 1.000e-03 1.000e-03 1.000e-03 1.000e-03 1.000e-03 1.000e-03 1.000e-03 1.000e-03 1.000e-03 1.000e-03 1.000e-03 1.000e-03 1.000e-03 1.000e-03 1.000e-03 1.000e-03 1.000e-03 1.000e-03 1.000e-03 1.000e-03 1.000e-03 1.000e-03 1.000e-03 1.000e-03 1.000e-03 1.000e-03 1.000e-03 1.000e-03 1.000e-03 1.000e-03 1.000e-03 1.000e-03 1.000e-03 1.000e-03 1.000e-03 1.000e-03 1.000e-03 1.000e-03 1.000e-03 1.000e-03 1.000e-03 1.000e-03 1.000e-03 1.000e-03 1.000e-03 1.000e-03 1.000e-03 1.000e-03 1.000e-03 1.000e-03 1.000e-03 1.000e-03 1.000e-03 1.000e-03 1.000e-03 1.000e-03 1.000e-03 1.000e-03 1.000e-03 1.000e-03 1.000e-03 1.000e-03 1.000e-03 1.000e-03 1.000e-03 1.000e-03 1.000e-03 1.000e-03 1.000e-03 1.000e-03 1.000e-03 1.000e-03 1.000e-03 1.000e-03 1.000e-03 1.000e-03 1.000e-03 1.000e-03 1.000e-03 1.000e-03 1.000e-03 1.000e-03 1.000e-03 1.000e-03 1.000e-03 1.000e-03 1.000e-03 1.000e-03 1.000e-03 1.000e-03 1.000e-03 1.000e-03 1.000e-03 1.000e-03 1.000e-03 1.000e-03 1.000e-03 1.000e-03 1.000e-03 1.000e-03 1.000e-03 1.000e-03 1.000e-03 1.000e-03 1.000e-03 1.000e-03 1.000e-03 1.000e-03 1.000e-03 1.000e-03 1.000e-03 1.000e-03 1.000e-03 1.000e-03 1.000e-03 1.000e-03 1.000e-03 1.000e-03 1.000e-03 1.000e-03 1.000e-03 1.000e-03 1.000e-03 1.000e-03 1.000e-03 1.000e-03 1.000e-03 1.000e-03 1.000e-03 1.000e-03 1.000e-03 1.000e-03 1.000e-03 1.000e-03 1.000e-03 1.000e-03 1.000e-03 1.000e-03 1.000e-03 1.000e-03 1.000e-03 1.000e-03 1.000e-03 1.000e-03 1.000e-03 1.000e-03 1.000e-03 1.000e-03 1.000e-03 1.000e-03 1.000e-03 1.000e-03 1.000e-03 1.000e-03 1.000e-03 1.000e-03 1.000e-03 1.000e-03 1.000e-03 1.000e-03 1.000e-03 1.000e-03 1.000e-03 1.000e-03 1.000e-03 1.000e-03 1.000e-03 1.000e-03 1.000e-03 1.000e-03 1.000e-03 1.000e-03 1.000e-03 1.000e-03 1.000e-03 1.000e-03 1.000e-03 1.000e-03 1.000e-03 1.000e-03 1.000e-03 1.000e-03 1.000e-03 1.000e-03 1.000e-03 1.000e-03 1.000e-03 1.000e-03 1.000e-03 1.000e-03 1.000e-03 1.000e-03 1.000e-03 1.000e-03 1.000e-03 1.000e-03 1.000e-03 1.000e-03 1.000e-03 1.000e-03 1.000e-03 1.000e-03 1.000e-03 1.000e-03 1.000e-03 1.000e-03 1.000e-03 1.000e-03 1.000e-03 1.000e-03 1.000e-03 1.000e-03 1.000e-03 1.000e-03 1.000e-03 1.000e-03 1.000e-03 1.000e-03 1.000e-03 1.000e-03 1.000e-03 1.000e-03 1.000e-03 1.000e-03 1.000e-03 1.000e-03 1.000e-03 1.000e-03 1.000e-03 1.000e-03 1.000e-03 1.000e-03 1.000e-03 1.000e-03 1.000e-03 1.000e-03 1.000e-03 1.000e-03 1.000e-03 1.000e-03 1.000e-03 1.000e-03 1.000e-03 1.000e-03 1.000e-03 1.000e-03 1.000e-03 1.000e-03 1.000e-03 1.000e-03 1.000e-03 1.000e-03 1.000e-03 1.000e-03 1.000e-03 1.000e-03 1.000e-03 1.000e-03 1.000e-03 1.000e-03 1.000e-03 1.000e-03 1.000e-03 1.000e-03 1.000e-03 1.000e-03 1.000e-03 1.000e-03 1.000e-03 1.000e-03 1.000e-03 1.000e-03 1.000e-03 1.000e-03 1.000e-03 1.000e-03 1.000e-03 1.000e-03 1.000e-03 1.000e-03 1.000e-03 1.000e-03 1.000e-03 1.000e-03 1.000e-03 1.000e-03 1.000e-03 1.000e-03 1.000e-03 1.000e-03 1.000e-03 1.000e-03 1.000e-03 1.000e-03 1.000e-03 1.000e-03 1.000e-03 1.000e-03 1.000e-03 1.000e-03 1.000e-03 1.000e-03 1.000e-03 1.000e-03 1.000e-03 1.000e-03 1.000e-03 1.000e-03 1.000e-03 1.000e-03 1.000e-03 1.000e-03 1.000e-03 1.000e-03 1.000e-03 1.000e-03 1.000e-03 1.000e-03 1.000e-03 1.000e-03 1.000e-03 1.000e-03 1.000e-03 1.000e-03 1.000e-03 1.000e-03 1.000e-03 1.000e-03 1.000e-03 1.000e-03 1.000e-03 1.000e-03 1.000e-03 1.000e-03 1.000e-03 1.000e-03 1.000e-03 1.000e-03 1.000e-03 1.000e-03 1.000e-03 1.000e-03 1.000e-03 1.000e-03 1.000e-03 1.000e-03 1.000e-03 1.000e-03 1.000e-03 1.000e-03 1.000e-03 1.000e-03 1.000e-03 1.000e-03 1.000e-03 1.000e-03 1.000e-03 1.000e-03 1.000e-03 1.000e-03 1.000e-03 1.000e-03 1.000e-03 1.000e-03 1.000e-03 1.000e-03 1.000e-03 1.000e-03 1.000e-03 1.000e-03 1.000e-03 1.000e-03 1.000e-03 1.000e-03 1.000e-03 1.000e-03 1.000e-03 1.000e-03 1.000e-03 1.000e-03 1.000e-03 1.000e-03 1.000e-03 1.000e-03 1.000e-03 1.000e-03 1.000e-03 1.000e-03 1.000e-03 1.000e-03 1.000e-03 1.000e-03 1.000e-03 1.000e-03 1.000e-03 1.000e-03 1.000e-03 1.000e-03 1.000e-03 1.000e-03 1.000e-03 1.000e-03 1.000e-03 1.000e-03 1.000e-03 1.000e-03 1.000e-03 1.000e-03 1.000e-03 1.000e-03 1.000e-03 1.000e-03 1.000e-03 1.000e-03 1.000e-03 1.000e-03 1.000e-03 1.000e-03 1.000e-03 1.000e-03 1.000e-03 1.000e-03 1.000e-03 1.000e-03 1.000e-03 1.000e-03 1.000e-03 1.000e-03 1.000e-03 1.000e-03 1.000e-03 1.000e-03 1.000e-03 1.000e-03 1.000e-03 1.000e-03 1.000e-03 1.000e-03 1.000e-03 1.000e-03 1.000e-03 1.000e-03 1.000e-03 1.000e-03 1.000e-03 1.000e-03 1.000e-03 1.000e-03 1.000e-03 1.000e-03 1.000e-03 1.000e-03 1.000e-03 1.000e-03 1.000e-03 1.000e-03 1.000e-03 1.000e-03 1.000e-03 1.000e-03 1.000e-03 1.000e-03 1.000e-03 1.000e-03 1.000e-03 1.000e-03 1.000e-03 1.000e-03 1.000e-03 1.000e-03 1.000e-03 1.000e-03 1.000e-03 1.000e-03 1.000e-03 1.000e-03 1.000e-03 1.000e-03 1.000e-03 1.000e-03 1.000e-03 1.000e-03 1.000e-03 1.000e-03 1.000e-03 1.000e-03 1.000e-03 1.000e-03 1.000e-03 1.000e-03 1.000e-03 1.000e-03 1.000e-03 1.000e-03 1.000e-03 1.000e-03 1.000e-03 1.000e-03 1.000e-03 1.000e-03 1.000e-03 1.000e-03 1.000e-03 1.000e-03 1.000e-03 1.000e-03 1.000e-03 1.000e-03 1.000e-03 1.000e-03 1.000e-03 1.000e-03 1.000e-03 1.000e-03 1.000e-03 1.000e-03 1.000e-03 1.000e-03 1.000e-03 1.000e-03 1.000e-03 1.000e-03 1.000e-03 1.000e-03 1.000e-03 1.000e-03 1.000e-03 1.000e-03 1.000e-03 1.000e-03 1.000e-03 1.000e-03 1.000e-03 1.000e-03 1.000e-03 1.000e-03 1.000e-03 1.000e-03 1.000e-03 1.000e-03 1.000e-03 1.000e-03 1.000e-03 1.000e-03 1.000e-03 1.000e-03 1.000e-03 1.000e-03 1.000e-03 1.000e-03 1.000e-03 1.000e-03 1.000e-03 1.000e-03 1.000e-03 1.000e-03 1.000e-03 1.000e-03 1.000e-03 1.000e-03 1.000e-03 1.000e-03 1.000e-03 1.000e-03 1.000e-03 1.000e-03 1.000e-03 1.000e-03 1.000e-03 1.000e-03
           </DataArray>
           <DataArray type="Float32" Name="nitrate/Imax" NumberOfComponents="1" format="ascii">
 1.900e+00 1.900e+00 1.900e+00 1.900e+00 1.900e+00 1.900e+00 1.900e+00 1.900e+00 1.900e+00 1.900e+00 1.900e+00 1.900e+00 1.900e+00 1.900e+00 1.900e+00 1.900e+00 1.900e+00 1.900e+00 1.900e+00 1.900e+00 1.900e+00 1.900e+00 1.900e+00 1.900e+00 1.900e+00 1.900e+00 1.900e+00 1.900e+00 1.900e+00 1.900e+00 1.900e+00 1.900e+00 1.900e+00 1.900e+00 1.900e+00 1.900e+00 1.900e+00 1.900e+00 1.900e+00 1.900e+00 1.900e+00 1.900e+00 1.900e+00 1.900e+00 1.900e+00 1.900e+00 1.900e+00 1.900e+00 1.900e+00 1.900e+00 1.900e+00 1.900e+00 1.900e+00 1.900e+00 1.900e+00 1.900e+00 1.900e+00 1.900e+00 1.900e+00 1.900e+00 1.900e+00 1.900e+00 1.900e+00 1.900e+00 1.900e+00 1.900e+00 1.900e+00 1.900e+00 1.900e+00 1.900e+00 1.900e+00 1.900e+00 1.900e+00 1.900e+00 1.900e+00 1.900e+00 1.900e+00 1.900e+00 1.900e+00 1.900e+00 1.900e+00 1.900e+00 1.900e+00 1.900e+00 1.900e+00 1.900e+00 1.900e+00 1.900e+00 1.900e+00 1.900e+00 1.900e+00 1.900e+00 1.900e+00 1.900e+00 1.900e+00 1.900e+00 1.900e+00 1.900e+00 1.900e+00 1.900e+00 1.900e+00 1.900e+00 1.900e+00 1.900e+00 1.900e+00 1.900e+00 1.900e+00 1.900e+00 1.900e+00 1.900e+00 1.900e+00 1.900e+00 1.900e+00 1.900e+00 1.900e+00 1.900e+00 1.900e+00 1.900e+00 1.900e+00 1.900e+00 1.900e+00 1.900e+00 1.900e+00 1.900e+00 1.900e+00 1.900e+00 1.900e+00 1.900e+00 1.900e+00 1.900e+00 1.900e+00 1.900e+00 1.900e+00 1.900e+00 1.900e+00 1.900e+00 1.900e+00 1.900e+00 1.900e+00 1.900e+00 1.900e+00 1.900e+00 1.900e+00 1.900e+00 1.900e+00 1.900e+00 1.900e+00 1.900e+00 1.900e+00 1.900e+00 1.900e+00 1.900e+00 1.900e+00 1.900e+00 1.900e+00 1.900e+00 1.900e+00 1.900e+00 1.900e+00 1.900e+00 1.900e+00 1.900e+00 1.900e+00 1.900e+00 1.900e+00 1.900e+00 1.900e+00 1.900e+00 1.900e+00 1.900e+00 1.900e+00 1.900e+00 1.900e+00 1.900e+00 1.900e+00 1.900e+00 1.900e+00 1.900e+00 1.900e+00 1.900e+00 1.900e+00 1.900e+00 1.900e+00 1.900e+00 1.900e+00 1.900e+00 1.900e+00 1.900e+00 1.900e+00 1.900e+00 1.900e+00 1.900e+00 1.900e+00 1.900e+00 1.900e+00 1.900e+00 1.900e+00 1.900e+00 1.900e+00 1.900e+00 1.900e+00 1.900e+00 1.900e+00 1.900e+00 1.900e+00 1.900e+00 1.900e+00 1.900e+00 1.900e+00 1.900e+00 1.900e+00 1.900e+00 1.900e+00 1.900e+00 1.900e+00 1.900e+00 1.900e+00 1.900e+00 1.900e+00 1.900e+00 1.900e+00 1.900e+00 1.900e+00 1.900e+00 1.900e+00 1.900e+00 1.900e+00 1.900e+00 1.900e+00 1.900e+00 1.900e+00 1.900e+00 1.900e+00 1.900e+00 1.900e+00 1.900e+00 1.900e+00 1.900e+00 1.900e+00 1.900e+00 1.900e+00 1.900e+00 1.900e+00 1.900e+00 1.900e+00 1.900e+00 1.900e+00 1.900e+00 1.900e+00 1.900e+00 1.900e+00 1.900e+00 1.900e+00 1.900e+00 1.900e+00 1.900e+00 1.900e+00 1.900e+00 1.900e+00 1.900e+00 1.900e+00 1.900e+00 1.900e+00 1.900e+00 1.900e+00 1.900e+00 1.900e+00 1.900e+00 1.900e+00 1.900e+00 1.900e+00 1.900e+00 1.900e+00 1.900e+00 1.900e+00 1.900e+00 1.900e+00 1.900e+00 1.900e+00 1.900e+00 1.900e+00 1.900e+00 1.900e+00 1.900e+00 1.900e+00 1.900e+00 1.900e+00 1.900e+00 1.900e+00 1.900e+00 1.900e+00 1.900e+00 1.900e+00 1.900e+00 1.900e+00 1.900e+00 1.900e+00 1.900e+00 1.900e+00 1.900e+00 1.900e+00 1.900e+00 1.900e+00 1.900e+00 1.900e+00 1.900e+00 1.900e+00 1.900e+00 1.900e+00 1.900e+00 1.900e+00 1.900e+00 1.900e+00 1.900e+00 1.900e+00 1.900e+00 1.900e+00 1.900e+00 1.900e+00 1.900e+00 1.900e+00 1.900e+00 1.900e+00 1.900e+00 1.900e+00 1.900e+00 1.900e+00 1.900e+00 1.900e+00 1.900e+00 1.900e+00 1.900e+00 1.900e+00 1.900e+00 1.900e+00 1.900e+00 1.900e+00 1.900e+00 1.900e+00 1.900e+00 1.900e+00 1.900e+00 1.900e+00 1.900e+00 1.900e+00 1.900e+00 1.900e+00 1.900e+00 1.900e+00 1.900e+00 1.900e+00 1.900e+00 1.900e+00 1.900e+00 1.900e+00 1.900e+00 1.900e+00 1.900e+00 1.900e+00 1.900e+00 1.900e+00 1.900e+00 1.900e+00 1.900e+00 1.900e+00 1.900e+00 1.900e+00 1.900e+00 1.900e+00 1.900e+00 1.900e+00 1.900e+00 1.900e+00 1.900e+00 1.900e+00 1.900e+00 1.900e+00 1.900e+00 1.900e+00 1.900e+00 1.900e+00 1.900e+00 1.900e+00 1.900e+00 1.900e+00 1.900e+00 1.900e+00 1.900e+00 1.900e+00 1.900e+00 1.900e+00 1.900e+00 1.900e+00 1.900e+00 1.900e+00 1.900e+00 1.900e+00 1.900e+00 1.900e+00 1.900e+00 1.900e+00 1.900e+00 1.900e+00 1.900e+00 1.900e+00 1.900e+00 1.900e+00 1.900e+00 1.900e+00 1.900e+00 1.900e+00 1.900e+00 1.900e+00 1.900e+00 1.900e+00 1.900e+00 1.900e+00 1.900e+00 1.900e+00 1.900e+00 1.900e+00 1.900e+00 1.900e+00 1.900e+00 1.900e+00 1.900e+00 1.900e+00 1.900e+00 1.900e+00 1.900e+00 1.900e+00 1.900e+00 1.900e+00 1.900e+00 1.900e+00 1.900e+00 1.900e+00 1.900e+00 1.900e+00 1.900e+00 1.900e+00 1.900e+00 1.900e+00 1.900e+00 1.900e+00 1.900e+00 1.900e+00 1.900e+00 1.900e+00 1.900e+00 1.900e+00 1.900e+00 1.900e+00 1.900e+00 1.900e+00 1.900e+00 1.900e+00 1.900e+00 1.900e+00 1.900e+00 1.900e+00 1.900e+00 1.900e+00 1.900e+00 1.900e+00 1.900e+00 1.900e+00 1.900e+00 1.900e+00 1.900e+00 1.900e+00 1.900e+00 1.900e+00 1.900e+00 1.900e+00 1.900e+00 1.900e+00 1.900e+00 1.900e+00 1.900e+00 1.900e+00 1.900e+00 1.900e+00 1.900e+00 1.900e+00 1.900e+00 1.900e+00 1.900e+00 1.900e+00 1.900e+00 1.900e+00 1.900e+00 1.900e+00 1.900e+00 1.900e+00 1.900e+00 1.900e+00 1.900e+00 1.900e+00 1.900e+00 1.900e+00 1.900e+00 1.900e+00 1.900e+00 1.900e+00 1.900e+00 1.900e+00 1.900e+00 1.900e+00 1.900e+00 1.900e+00 1.900e+00 1.900e+00 1.900e+00 1.900e+00 1.900e+00 1.900e+00 1.900e+00 1.900e+00 1.900e+00 1.900e+00 1.900e+00 1.900e+00 1.900e+00 1.900e+00 1.900e+00 1.900e+00 1.900e+00 1.900e+00 1.900e+00 1.900e+00 1.900e+00 1.900e+00 1.900e+00 1.900e+00 1.900e+00 1.900e+00 1.900e+00 1.900e+00 1.900e+00 1.900e+00 1.900e+00 1.900e+00 1.900e+00 1.900e+00 1.900e+00 1.900e+00 1.900e+00 1.900e+00 1.900e+00 1.900e+00 1.900e+00 1.900e+00 1.900e+00 1.900e+00 1.900e+00 1.900e+00 1.900e+00 1.900e+00 1.900e+00 1.900e+00 1.900e+00 1.900e+00 1.900e+00 1.900e+00 1.900e+00 1.900e+00 1.900e+00 1.900e+00 1.900e+00 1.900e+00 1.900e+00 1.900e+00 1.900e+00 1.900e+00 1.900e+00 1.900e+00 1.900e+00 1.900e+00 1.900e+00 1.900e+00 1.900e+00 1.900e+00 1.900e+00 1.900e+00
           </DataArray>
           <DataArray type="Float32" Name="nitrate/Km" NumberOfComponents="1" format="ascii">