<?xml version="1.0"?>
<VTKFile type="UnstructuredGrid" version="0.1" byte_order="LittleEndian">
   <UnstructuredGrid>
      <Piece NumberOfPoints="45300" NumberOfCells="3251">
         <Points>
            <DataArray type="Float32" Name="Position" NumberOfComponents="3" format="ascii">
-0.120	-5.040	0.097
-0.123	-5.031	0.098
-0.123	-5.023	0.094
-0.121	-5.018	0.087
-0.117	-5.018	0.079
-0.112	-5.024	0.073
-0.109	-5.032	0.072
-0.109	-5.041	0.075
-0.111	-5.046	0.083
-0.115	-5.045	0.091
-0.883	-5.259	-0.298
-0.887	-5.251	-0.295
-0.888	-5.243	-0.298
-0.887	-5.237	-0.305
-0.883	-5.236	-0.314
-0.879	-5.241	-0.321
-0.875	-5.249	-0.323
-0.874	-5.258	-0.320
-0.875	-5.263	-0.313
-0.879	-5.264	-0.304
-1.660	-5.523	-0.585
-1.663	-5.515	-0.583
-1.664	-5.506	-0.587
-1.661	-5.501	-0.594
-1.657	-5.501	-0.603
-1.653	-5.507	-0.609
-1.650	-5.515	-0.610
-1.649	-5.524	-0.607
-1.652	-5.529	-0.599
-1.656	-5.529	-0.591
-2.397	-5.652	-1.026
-2.398	-5.643	-1.025
-2.397	-5.635	-1.030
-2.393	-5.632	-1.038
-2.388	-5.634	-1.045
-2.384	-5.641	-1.050
-2.383	-5.650	-1.050
-2.384	-5.658	-1.045
-2.388	-5.661	-1.038
-2.393	-5.659	-1.030
-3.144	-5.730	-1.469
-3.146	-5.721	-1.469
-3.144	-5.713	-1.473
-3.140	-5.709	-1.481
-3.135	-5.711	-1.488
-3.132	-5.718	-1.493
-3.130	-5.727	-1.494
-3.132	-5.735	-1.489
-3.136	-5.739	-1.482
-3.141	-5.737	-1.474
-3.250	-5.744	-1.528
-3.252	-5.735	-1.527
-3.250	-5.726	-1.532
-3.247	-5.723	-1.539
-3.242	-5.724	-1.547
-3.238	-5.731	-1.552
-3.237	-5.740	-1.553
-3.238	-5.748	-1.548
-3.242	-5.752	-1.541
-3.247	-5.750	-1.533
-0.241	-5.091	0.171
-0.239	-5.082	0.169
-0.234	-5.077	0.163
-0.227	-5.078	0.157
-0.222	-5.083	0.152
-0.219	-5.092	0.151
-0.222	-5.101	0.154
-0.227	-5.106	0.159
-0.234	-5.105	0.166
-0.239	-5.100	0.170
-0.843	-5.151	-0.478
-0.840	-5.143	-0.481
-0.833	-5.139	-0.486
-0.825	-5.142	-0.491
-0.820	-5.149	-0.495
-0.819	-5.158	-0.495
-0.823	-5.166	-0.491
-0.830	-5.169	-0.486
-0.837	-5.167	-0.481
-0.842	-5.160	-0.478
-1.284	-5.188	-1.251
-1.282	-5.179	-1.252
-1.275	-5.174	-1.255
-1.266	-5.173	-1.259
-1.259	-5.179	-1.261
-1.256	-5.187	-1.261
-1.258	-5.196	-1.259
-1.265	-5.202	-1.256
-1.274	-5.202	-1.253
-1.281	-5.197	-1.251
-1.430	-5.326	-2.114
-1.430	-5.317	-2.116
-1.425	-5.309	-2.119
-1.416	-5.306	-2.121
-1.407	-5.309	-2.121
-1.402	-5.316	-2.120
-1.401	-5.325	-2.117
-1.406	-5.332	-2.115
-1.415	-5.335	-2.113
-1.424	-5.333	-2.113
-1.439	-5.596	-2.803
-1.439	-5.588	-2.798
-1.439	-5.579	-2.800
-1.439	-5.573	-2.806
-1.439	-5.571	-2.816
-1.439	-5.575	-2.824
-1.439	-5.584	-2.828
-1.439	-5.593	-2.827
-1.439	-5.599	-2.820
-1.439	-5.601	-2.811
-1.121	-5.885	0.748
-1.115	-5.883	0.755
-1.113	-5.885	0.764
-1.115	-5.890	0.771
-1.121	-5.896	0.774
-1.129	-5.901	0.772
-1.135	-5.903	0.765
-1.137	-5.901	0.756
-1.134	-5.896	0.749
-1.128	-5.890	0.746
-0.597	-6.526	0.484
-0.591	-6.524	0.491
-0.589	-6.525	0.500
-0.591	-6.531	0.507
-0.596	-6.538	0.510
-0.603	-6.544	0.508
-0.608	-6.546	0.501
-0.611	-6.544	0.492
-0.609	-6.539	0.485
-0.603	-6.532	0.482
0.074	-7.030	0.207
0.080	-7.027	0.214
0.082	-7.029	0.222
0.081	-7.034	0.229
0.076	-7.042	0.232
0.070	-7.049	0.229
0.065	-7.051	0.222
0.063	-7.050	0.214
0.064	-7.044	0.207
0.068	-7.036	0.204
0.729	-7.507	-0.099
0.735	-7.504	-0.092
0.737	-7.506	-0.083
0.736	-7.512	-0.076
0.732	-7.520	-0.073
0.726	-7.526	-0.076
0.721	-7.529	-0.083
0.718	-7.527	-0.092
0.719	-7.522	-0.099
0.724	-7.514	-0.101
0.902	-7.625	-0.170
0.907	-7.622	-0.163
0.909	-7.624	-0.154
0.908	-7.630	-0.147
0.904	-7.637	-0.144
0.898	-7.644	-0.147
0.893	-7.647	-0.154
0.890	-7.646	-0.163
0.892	-7.640	-0.170
0.896	-7.632	-0.173
-3.630	-18.783	2.752
-3.623	-18.781	2.757
-3.617	-18.785	2.763
-3.616	-18.792	2.769
-3.619	-18.800	2.772
-3.627	-18.806	2.771
-3.634	-18.807	2.766
-3.640	-18.804	2.760
-3.641	-18.797	2.754
-3.638	-18.789	2.751
-3.175	-19.205	2.146
-3.167	-19.204	2.150
-3.161	-19.208	2.156
-3.160	-19.215	2.162
-3.164	-19.222	2.165
-3.171	-19.228	2.165
-3.179	-19.229	2.161
-3.185	-19.225	2.154
-3.186	-19.218	2.148
-3.182	-19.210	2.145
-3.133	-19.280	2.053
-3.124	-19.280	2.057
-3.118	-19.284	2.063
-3.117	-19.291	2.069
-3.122	-19.298	2.073
-3.130	-19.303	2.073
-3.138	-19.303	2.069
-3.144	-19.299	2.063
-3.145	-19.292	2.057
-3.141	-19.285	2.053
-3.631	-18.946	2.765
-3.630	-18.937	2.768
-3.634	-18.931	2.774
-3.641	-18.929	2.779
-3.649	-18.933	2.783
-3.654	-18.940	2.783
-3.655	-18.949	2.780
-3.651	-18.956	2.774
-3.644	-18.957	2.769
-3.636	-18.954	2.765
-3.249	-19.197	3.343
-3.248	-19.188	3.346
-3.252	-19.182	3.352
-3.259	-19.180	3.357
-3.267	-19.184	3.361
-3.272	-19.191	3.361
-3.273	-19.200	3.358
-3.269	-19.206	3.352
-3.262	-19.208	3.347
-3.254	-19.204	3.343
-3.665	-19.095	2.798
-3.667	-19.086	2.796
-3.664	-19.080	2.790
-3.659	-19.078	2.782
-3.652	-19.082	2.777
-3.647	-19.089	2.775
-3.646	-19.098	2.777
-3.648	-19.105	2.783
-3.654	-19.106	2.791
-3.660	-19.103	2.796
-4.224	-19.329	2.318
-4.226	-19.320	2.315
-4.223	-19.314	2.309
-4.218	-19.312	2.302
-4.211	-19.316	2.296
-4.206	-19.323	2.294
-4.205	-19.332	2.297
-4.207	-19.339	2.303
-4.213	-19.340	2.310
-4.219	-19.337	2.316
-3.658	-19.240	2.787
-3.657	-19.232	2.792
-3.661	-19.228	2.799
-3.667	-19.228	2.806
-3.674	-19.234	2.809
-3.678	-19.242	2.809
-3.678	-19.250	2.804
-3.674	-19.255	2.797
-3.668	-19.254	2.790
-3.662	-19.249	2.786
-3.161	-19.525	3.234
-3.157	-19.517	3.234
-3.158	-19.508	3.234
-3.165	-19.501	3.234
-3.174	-19.500	3.234
-3.182	-19.504	3.234
-3.186	-19.512	3.234
-3.185	-19.521	3.234
-3.178	-19.528	3.234
-3.169	-19.529	3.234
-3.670	-19.402	2.812
-3.667	-19.395	2.817
-3.668	-19.386	2.818
-3.673	-19.378	2.816
-3.680	-19.376	2.811
-3.687	-19.379	2.806
-3.691	-19.386	2.801
-3.690	-19.395	2.800
-3.684	-19.402	2.802
-3.677	-19.405	2.807
-4.189	-19.569	3.505
-4.185	-19.561	3.509
-4.186	-19.552	3.510
-4.191	-19.545	3.508
-4.198	-19.542	3.503
-4.205	-19.545	3.497
-4.209	-19.552	3.493
-4.208	-19.561	3.492
-4.203	-19.569	3.494
-4.195	-19.571	3.499
-4.295	-19.578	3.623
-4.287	-19.578	3.627
-4.278	-19.578	3.626
-4.271	-19.578	3.619
-4.270	-19.578	3.610
-4.274	-19.578	3.602
-4.282	-19.578	3.598
-4.292	-19.578	3.599
-4.298	-19.578	3.606
-4.300	-19.578	3.615
-3.691	-19.528	2.810
-3.685	-19.526	2.816
-3.680	-19.529	2.824
-3.679	-19.536	2.830
-3.682	-19.544	2.832
-3.688	-19.551	2.829
-3.695	-19.553	2.823
-3.699	-19.550	2.816
-3.700	-19.544	2.809
-3.697	-19.535	2.807
-3.114	-19.869	2.350
-3.106	-19.865	2.350
-3.096	-19.866	2.350
-3.090	-19.873	2.350
-3.088	-19.882	2.350
-3.093	-19.890	2.350
-3.101	-19.895	2.350
-3.110	-19.893	2.350
-3.117	-19.887	2.350
-3.118	-19.877	2.350
-3.713	-19.680	2.830
-3.707	-19.675	2.826
-3.698	-19.675	2.823
-3.691	-19.680	2.821
-3.688	-19.689	2.821
-3.690	-19.698	2.824
-3.696	-19.703	2.828
-3.705	-19.703	2.831
-3.712	-19.698	2.833
-3.715	-19.689	2.832
-3.956	-19.801	2.227
-3.950	-19.795	2.223
-3.941	-19.795	2.220
-3.934	-19.801	2.218
-3.931	-19.809	2.219
-3.933	-19.818	2.221
-3.939	-19.823	2.225
-3.948	-19.823	2.228
-3.955	-19.818	2.230
-3.959	-19.809	2.230
-3.701	-19.842	2.826
-3.701	-19.833	2.827
-3.706	-19.826	2.831
-3.713	-19.824	2.837
-3.720	-19.827	2.841
-3.725	-19.835	2.842
-3.726	-19.844	2.841
-3.721	-19.851	2.837
-3.714	-19.853	2.831
-3.706	-19.850	2.827
-3.254	-19.977	3.520
-3.254	-19.968	3.522
-3.259	-19.961	3.527
-3.266	-19.959	3.533
-3.273	-19.963	3.537
-3.278	-19.971	3.538
-3.278	-19.980	3.536
-3.273	-19.987	3.531
-3.266	-19.989	3.526
-3.259	-19.985	3.522
-3.213	-19.991	3.573
-3.214	-19.983	3.576
-3.218	-19.976	3.581
-3.225	-19.975	3.587
-3.232	-19.979	3.591
-3.236	-19.987	3.592
-3.236	-19.996	3.589
-3.232	-20.003	3.584
-3.225	-20.004	3.578
-3.218	-20.000	3.574
-3.724	-19.999	2.849
-3.723	-19.992	2.854
-3.724	-19.982	2.854
-3.725	-19.975	2.848
-3.728	-19.973	2.840
-3.730	-19.976	2.831
-3.731	-19.983	2.826
-3.730	-19.993	2.826
-3.728	-20.000	2.832
-3.726	-20.003	2.840
-4.479	-20.020	3.033
-4.470	-20.015	3.033
-4.461	-20.017	3.033
-4.455	-20.023	3.033
-4.453	-20.033	3.033
-4.458	-20.041	3.033
-4.466	-20.045	3.033
-4.475	-20.044	3.033
-4.482	-20.037	3.033
-4.483	-20.028	3.033
-3.752	-20.126	2.843
-3.744	-20.122	2.841
-3.735	-20.124	2.840
-3.729	-20.131	2.841
-3.728	-20.140	2.843
-3.733	-20.148	2.846
-3.741	-20.151	2.848
-3.750	-20.149	2.849
-3.756	-20.142	2.848
-3.757	-20.133	2.846
-3.861	-20.325	2.201
-3.861	-20.317	2.205
-3.861	-20.308	2.204
-3.861	-20.301	2.197
-3.861	-20.300	2.188
-3.861	-20.304	2.180
-3.861	-20.312	2.176
-3.861	-20.321	2.177
-3.861	-20.328	2.184
-3.861	-20.329	2.193
-1.209	-6.013	0.820
-1.206	-6.006	0.825
-1.206	-5.997	0.825
-1.210	-5.989	0.821
-1.215	-5.986	0.814
-1.220	-5.989	0.806
-1.222	-5.996	0.802
-1.222	-6.005	0.801
-1.218	-6.013	0.805
-1.213	-6.016	0.812
-1.937	-6.076	1.317
-1.935	-6.069	1.322
-1.936	-6.060	1.323
-1.940	-6.052	1.319
-1.944	-6.049	1.312
-1.949	-6.052	1.304
-1.950	-6.059	1.299
-1.949	-6.068	1.298
-1.946	-6.076	1.302
-1.941	-6.079	1.309
-2.698	-6.275	1.678
-2.698	-6.268	1.685
-2.701	-6.260	1.687
-2.705	-6.252	1.683
-2.709	-6.248	1.676
-2.711	-6.250	1.667
-2.711	-6.257	1.660
-2.708	-6.265	1.658
-2.704	-6.273	1.662
-2.700	-6.276	1.669
-3.454	-6.669	1.826
-3.456	-6.663	1.833
-3.460	-6.655	1.836
-3.464	-6.648	1.832
-3.466	-6.643	1.824
-3.467	-6.644	1.815
-3.464	-6.650	1.808
-3.460	-6.658	1.806
-3.456	-6.666	1.809
-3.454	-6.670	1.817
-4.200	-7.018	1.796
-4.203	-7.013	1.803
-4.207	-7.004	1.804
-4.210	-6.997	1.800
-4.212	-6.993	1.792
-4.211	-6.994	1.783
-4.208	-7.000	1.776
-4.204	-7.008	1.774
-4.201	-7.016	1.779
-4.199	-7.020	1.787
-3.746	-20.295	2.847
-3.743	-20.286	2.847
-3.746	-20.278	2.848
-3.753	-20.272	2.849
-3.762	-20.271	2.851
-3.770	-20.277	2.851
-3.773	-20.285	2.851
-3.770	-20.294	2.850
-3.763	-20.300	2.849
-3.754	-20.300	2.847
-3.660	-20.346	3.477
-3.657	-20.338	3.477
-3.659	-20.329	3.478
-3.666	-20.323	3.479
-3.676	-20.323	3.481
-3.683	-20.328	3.481
-3.686	-20.336	3.481
-3.684	-20.345	3.480
-3.677	-20.351	3.478
-3.668	-20.351	3.477
-3.757	-20.438	2.845
-3.756	-20.429	2.848
-3.760	-20.423	2.854
-3.767	-20.421	2.859
-3.775	-20.425	2.863
-3.780	-20.433	2.863
-3.780	-20.442	2.860
-3.776	-20.448	2.855
[...]
         <CellData>
           <DataArray type="Float32" Name="combinedRootClassID" NumberOfComponents="1" format="ascii">
 -1.300e+01 -1.300e+01 -1.300e+01 -1.300e+01 -1.300e+01 -1.300e+01 -1.300e+01 -1.300e+01 -1.300e+01 -1.300e+01 -1.300e+01 -1.300e+01 -1.300e+01 -1.300e+01 -1.300e+01 -1.300e+01 -1.300e+01 -1.300e+01 -1.300e+01 -1.300e+01 -1.300e+01 -1.300e+01 -1.300e+01 -1.300e+01 -1.300e+01 -1.300e+01 -1.300e+01 -1.300e+01 -1.300e+01 -1.300e+01 -1.300e+01 -1.300e+01 -1.300e+01 -1.300e+01 -1.300e+01 -1.300e+01 -1.300e+01 -1.300e+01 -1.300e+01 -1.300e+01 -1.300e+01 -1.300e+01 -1.300e+01 -1.300e+01 -1.300e+01 -1.300e+01 -1.300e+01 -1.300e+01 -1.300e+01 -1.300e+01 -1.300e+01 -1.300e+01 -1.300e+01 -1.300e+01 -1.300e+01 -1.300e+01 -1.300e+01 -1.300e+01 -1.300e+01 -1.300e+01 -1.300e+01 -1.300e+01 -1.300e+01 -1.300e+01 -1.300e+01 -1.300e+01 -1.300e+01 -1.300e+01 -1.300e+01 -1.300e+01 -1.300e+01 -1.300e+01 -1.300e+01 -1.300e+01 -1.300e+01 -1.300e+01 -1.300e+01 -1.300e+01 -1.300e+01 -1.300e+01 -1.300e+01 -1.300e+01 -1.300e+01 -1.300e+01 -1.300e+01 -1.300e+01 -1.300e+01 -1.300e+01 -1.300e+01 -1.300e+01 -1.300e+01 -1.300e+01 -1.300e+01 -1.300e+01 -1.300e+01 -1.300e+01 -1.300e+01 -1.300e+01 -1.300e+01 -1.300e+01 -1.300e+01 -1.300e+01 -1.300e+01 -1.300e+01 -1.300e+01 -1.300e+01 -1.300e+01 -1.300e+01 -1.300e+01 -1.300e+01 -1.300e+01 -1.300e+01 -1.300e+01 -1.300e+01 -1.300e+01 -1.300e+01 -1.300e+01 -1.300e+01 -1.300e+01 -1.300e+01 -1.300e+01 -1.300e+01 -1.300e+01 -1.300e+01 -1.300e+01 -1.300e+01 -1.300e+01 -1.300e+01 -1.300e+01 -1.300e+01 -1.300e+01 -1.300e+01 -1.300e+01 -1.300e+01 -1.300e+01 -1.300e+01 -1.300e+01 -1.300e+01 -1.300e+01 -1.300e+01 -1.300e+01 -1.300e+01 -1.300e+01 -1.300e+01 -1.300e+01 -1.300e+01 -1.300e+01 -1.300e+01 -1.300e+01 -1.300e+01 -1.300e+01 -1.300e+01 -1.300e+01 -1.300e+01 -1.300e+01 -1.300e+01 -1.300e+01 -1.300e+01 -1.300e+01 -1.300e+01 -1.300e+01 -1.300e+01 -1.300e+01 -1.300e+01 -1.300e+01 -1.300e+01 -1.300e+01 -1.300e+01 -1.300e+01 -1.300e+01 -1.300e+01 -1.300e+01 -1.300e+01 -1.300e+01 -1.300e+01 -1.300e+01 -1.300e+01 -1.300e+01 -1.300e+01 -1.300e+01 -1.300e+01 -1.300e+01 -1.300e+01 -1.300e+01 -1.300e+01 -1.300e+01 -1.300e+01 -1.300e+01 -1.300e+01 -1.300e+01 -1.300e+01 -1.300e+01 -1.300e+01 -1.300e+01 -1.300e+01 -1.300e+01 -1.300e+01 -1.300e+01 -1.300e+01 -1.300e+01 -1.300e+01 -1.300e+01 -1.300e+01 -1.300e+01 -1.300e+01 -1.300e+01 -1.300e+01 -1.300e+01 -1.300e+01 -1.300e+01 -1.300e+01 -1.300e+01 -1.300e+01 -1.300e+01 -1.300e+01 -1.300e+01 -1.300e+01 -1.300e+01 -1.300e+01 -1.300e+01 -1.300e+01 -1.300e+01 -1.300e+01 -1.300e+01 -1.300e+01 -1.300e+01 -1.300e+01 -1.300e+01 -1.300e+01 -1.300e+01 -1.300e+01 -1.300e+01 -1.300e+01 -1.300e+01 -1.300e+01 -1.300e+01 -1.300e+01 -1.300e+01 -1.300e+01 -1.300e+01 -1.300e+01 -1.300e+01 -1.300e+01 -1.300e+01 -1.300e+01 -1.300e+01 -1.300e+01 -1.300e+01 -1.300e+01 -1.300e+01 -1.300e+01 -1.300e+01 -1.300e+01 -1.300e+01 -1.300e+01 -1.300e+01 -1.300e+01 -1.300e+01 -1.300e+01 -1.300e+01 -1.300e+01 -1.300e+01 -1.300e+01 -1.300e+01 -1.300e+01 -1.300e+01 -1.300e+01 -1.300e+01 -1.300e+01 -1.300e+01 -1.300e+01 -1.300e+01 -1.300e+01 -1.300e+01 -1.300e+01 -1.300e+01 -1.300e+01 -1.300e+01 -1.300e+01 -1.300e+01 -1.300e+01 -1.300e+01 -1.300e+01 -1.300e+01 -1.300e+01 -1.300e+01 -1.300e+01 -1.300e+01 -1.300e+01 -1.300e+01 -1.300e+01 -1.300e+01 -1.300e+01 -1.300e+01 -1.300e+01 -1.300e+01 -1.300e+01 -1.300e+01 -1.300e+01 -1.300e+01 -1.300e+01 -1.300e+01 -1.300e+01 -1.300e+01 -1.300e+01 -1.300e+01 -1.300e+01 -1.300e+01 -1.300e+01 -1.300e+01 -1.300e+01 -1.300e+01 -1.300e+01 -1.300e+01 -1.300e+01 -1.300e+01 -1.300e+01 -1.300e+01 -1.300e+01 -1.300e+01 -1.300e+01 -1.300e+01 -1.300e+01 -1.300e+01 -1.300e+01 -1.300e+01 -1.300e+01 -1.300e+01 -1.300e+01 -1.300e+01 -1.300e+01 -1.300e+01 -1.300e+01 -1.300e+01 -1.300e+01 -1.300e+01 -1.300e+01 -1.300e+01 -1.300e+01 -1.300e+01 -1.300e+01 -1.300e+01 -1.300e+01 -5.000e+00 -5.000e+00 -5.000e+00 -5.000e+00 -5.000e+00 -5.000e+00 -5.000e+00 -5.000e+00 -5.000e+00 -5.000e+00 -5.000e+00 -5.000e+00 -5.000e+00 -5.000e+00 -5.000e+00 -5.000e+00 -5.000e+00 -5.000e+00 -5.000e+00 -5.000e+00 -5.000e+00 -5.000e+00 -5.000e+00 -5.000e+00 -5.000e+00 -5.000e+00 -5.000e+00 -5.000e+00 -5.000e+00 -5.000e+00 -5.000e+00 -5.000e+00 -5.000e+00 -5.000e+00 -5.000e+00 -5.000e+00 -5.000e+00 -5.000e+00 -1.300e+01 -1.300e+01 -1.300e+01 -1.300e+01 -1.300e+01 -1.300e+01 -1.300e+01 -1.300e+01 -1.300e+01 -1.300e+01 -1.300e+01 -1.300e+01 -1.300e+01 -1.300e+01 -1.300e+01 -1.300e+01 -1.300e+01 -1.300e+01 -1.300e+01 -1.300e+01 -1.300e+01 -1.300e+01 -1.300e+01 -1.300e+01 -1.300e+01 -1.300e+01 -1.300e+01 -1.300e+01 -1.300e+01 -1.300e+01 -1.300e+01 -1.300e+01 -1.300e+01 -1.300e+01 -1.300e+01 -1.300e+01 -1.300e+01 -1.300e+01 -1.300e+01 -1.300e+01 -1.300e+01 -1.300e+01 -1.300e+01 -1.300e+01 -1.300e+01 -1.300e+01 -1.300e+01 -1.300e+01 -1.300e+01 -1.300e+01 -1.300e+01 -1.300e+01 -1.300e+01 -1.300e+01 -1.300e+01 -1.300e+01 -1.300e+01 -1.300e+01 -1.300e+01 -1.300e+01 -1.300e+01 -1.300e+01 -1.300e+01 -1.300e+01 -1.300e+01 -1.300e+01 -1.300e+01 -1.300e+01 -1.300e+01 -1.300e+01 -1.300e+01 -1.300e+01 -1.300e+01 -1.300e+01 -1.300e+01 -1.300e+01 -1.300e+01 -1.300e+01 -1.300e+01 -1.300e+01 -1.300e+01 -1.300e+01 -1.300e+01 -1.300e+01 -1.300e+01 -1.300e+01 -1.300e+01 -1.300e+01 -1.300e+01 -1.300e+01 -1.300e+01 -1.300e+01 -1.300e+01 -1.300e+01 -1.300e+01 -1.300e+01 -1.300e+01 -1.300e+01 -1.300e+01 -1.300e+01 -1.300e+01 -1.300e+01 -1.300e+01 -1.300e+01 -1.300e+01 -1.300e+01 -1.300e+01 -1.300e+01 -1.300e+01 -1.300e+01 -1.300e+01 -1.300e+01 -1.300e+01 -1.300e+01 -1.300e+01 -1.300e+01 -1.300e+01 -1.300e+01 -1.300e+01 -1.300e+01 -1.300e+01 -1.300e+01 -1.300e+01 -1.300e+01 -1.300e+01 -1.300e+01 -1.300e+01 -1.300e+01 -1.300e+01 -1.300e+01 -1.300e+01 -1.300e+01 -1.300e+01 -1.300e+01 -1.300e+01 -1.300e+01 -1.300e+01 -1.300e+01 -1.300e+01 -1.300e+01 -1.300e+01 -1.300e+01 -1.300e+01 -1.300e+01 -1.300e+01 -1.300e+01 -1.300e+01 -1.300e+01 -1.300e+01 -1.300e+01 -1.300e+01 -1.300e+01 -1.300e+01 -1.300e+01 -1.300e+01 -1.300e+01 -1.300e+01 -1.300e+01 -1.300e+01 -1.300e+01 -1.300e+01 -1.300e+01 -1.300e+01 -1.300e+01 -1.300e+01 -1.300e+01 -1.300e+01 -1.300e+01 -1.300e+01 -1.300e+01 -1.300e+01 -1.300e+01 -1.300e+01 -1.300e+01 -1.300e+01 -1.300e+01 -1.300e+01 -1.300e+01 -1.300e+01 -1.300e+01 -1.300e+01 -1.300e+01 -1.300e+01 -1.300e+01 -1.300e+01 -1.300e+01 -1.300e+01 -1.300e+01 -1.300e+01 -1.300e+01 -1.300e+01 -1.300e+01 -1.300e+01 -1.300e+01 -1.300e+01 -1.300e+01 -1.300e+01 -1.300e+01 -1.300e+01 -1.300e+01 -1.300e+01 -1.300e+01 -1.300e+01 -1.300e+01 -1.300e+01 -1.300e+01 -1.300e+01 -1.300e+01 -1.300e+01 -1.300e+01 -1.300e+01 -1.300e+01 -1.300e+01 -1.300e+01 -1.300e+01 -1.300e+01 -1.300e+01 -1.300e+01 -1.300e+01 -1.300e+01 -1.300e+01 -1.300e+01 -1.300e+01 -1.300e+01 -1.300e+01 -1.300e+01 -1.300e+01 -1.300e+01 -1.300e+01 -1.300e+01 -1.300e+01 -1.300e+01 -1.300e+01 -1.300e+01 -1.300e+01 -1.300e+01 -1.300e+01 -1.300e+01 -1.300e+01 -1.300e+01 -1.300e+01 -1.300e+01 -1.300e+01 -1.300e+01 -1.300e+01 -1.300e+01 -1.300e+01 -1.300e+01 -1.300e+01 -1.300e+01 -1.300e+01 -1.300e+01 -1.300e+01 -1.300e+01 -1.300e+01 -1.300e+01 -1.300e+01 -1.300e+01 -1.300e+01 -1.300e+01 -1.300e+01 -1.300e+01 -1.300e+01 -1.300e+01 -1.300e+01 -1.300e+01 -1.300e+01 -1.300e+01 -1.300e+01 -1.300e+01 -1.300e+01 -1.300e+01 -1.300e+01 -1.300e+01 -1.300e+01 -1.300e+01 -1.300e+01 -1.300e+01 -1.300e+01 -1.300e+01 -1.300e+01 -1.300e+01 -1.300e+01 -1.300e+01 -1.300e+01 -1.300e+01 -1.300e+01 -1.300e+01 -1.300e+01 -1.300e+01 -1.300e+01 -1.300e+01 -1.300e+01 -1.300e+01 -1.300e+01 -1.300e+01 -1.300e+01 -1.300e+01 -1.300e+01 -1.300e+01 -1.300e+01 -1.300e+01 -1.300e+01 -1.300e+01 -1.300e+01 -1.300e+01 -1.300e+01 -1.300e+01 -1.300e+01 -1.300e+01 -1.300e+01 -1.300e+01 -1.300e+01 -1.300e+01 -1.300e+01 -1.300e+01 -1.300e+01 -1.300e+01 -1.300e+01 -1.300e+01 -1.300e+01 -1.300e+01 -1.300e+01 -1.300e+01 -1.300e+01 -1.300e+01 -1.300e+01 -1.300e+01 -1.300e+01 -1.300e+01 -1.300e+01 -1.300e+01 -1.300e+01 -1.300e+01 -1.300e+01 -1.300e+01 -5.000e+00 -5.000e+00 -5.000e+00 -5.000e+00 -5.000e+00 -5.000e+00 -5.000e+00 -5.000e+00 -5.000e+00 -5.000e+00 -5.000e+00 -5.000e+00 -5.000e+00 -5.000e+00 -5.000e+00 -5.000e+00 -5.000e+00 -5.000e+00 -5.000e+00 -5.000e+00 -5.000e+00 -5.000e+00 -5.000e+00 -5.000e+00 -5.000e+00 -5.000e+00 -5.000e+00 -5.000e+00 -5.000e+00 -5.000e+00 -5.000e+00 -5.000e+00 -5.000e+00 -5.000e+00 -5.000e+00 -5.000e+00 -5.000e+00 -5.000e+00 -1.300e+01 -1.300e+01 -1.300e+01 -1.300e+01 -1.300e+01 -1.300e+01 -1.300e+01 -1.300e+01 -1.300e+01 -1.300e+01 -1.300e+01 -1.300e+01 -1.300e+01 -1.300e+01 -1.300e+01 -1.300e+01 -1.300e+01 -1.300e+01 -1.300e+01 -1.300e+01 -1.300e+01 -1.300e+01 -1.300e+01 -1.300e+01 -1.300e+01 -1.300e+01 -1.300e+01 -1.300e+01 -1.300e+01 -1.300e+01 -1.300e+01 -1.300e+01 -1.300e+01 -1.300e+01 -1.300e+01 -1.300e+01 -1.300e+01 -1.300e+01 -1.300e+01 -1.300e+01 -1.300e+01 -1.300e+01 -1.300e+01 -1.300e+01 -1.300e+01 -1.300e+01 -1.300e+01 -1.300e+01 -1.300e+01 -1.300e+01 -1.300e+01 -1.300e+01 -1.300e+01 -1.300e+01 -1.300e+01 -1.300e+01 -1.300e+01 -1.300e+01 -1.300e+01 -1.300e+01 -1.300e+01 -1.300e+01 -1.300e+01 -1.300e+01 -1.300e+01 -1.300e+01 -1.300e+01 -1.300e+01 -1.300e+01 -1.300e+01 -1.300e+01 -1.300e+01 -1.300e+01 -1.300e+01 -1.300e+01 -1.300e+01 -1.300e+01 -1.300e+01 -1.300e+01 -1.300e+01 -1.300e+01 -1.300e+01 -1.300e+01 -1.300e+01 -1.300e+01 -1.300e+01 -1.300e+01 -1.300e+01 -1.300e+01 -1.300e+01 -1.300e+01 -1.300e+01 -1.300e+01 -1.300e+01 -1.300e+01 -1.300e+01 -1.300e+01 -1.300e+01 -1.300e+01 -1.300e+01 -1.300e+01 -1.300e+01 -1.300e+01 -1.300e+01 -1.300e+01 -1.300e+01 -1.300e+01 -1.300e+01 -1.300e+01 -1.300e+01 -1.300e+01 -1.300e+01 -1.300e+01 -1.300e+01 -1.300e+01 -1.300e+01 -1.300e+01 -1.300e+01 -1.300e+01 -1.300e+01 -1.300e+01 -1.300e+01 -1.300e+01 -1.300e+01 -1.300e+01 -1.300e+01 -1.300e+01 -1.300e+01 -1.300e+01 -1.300e+01 -1.300e+01 -1.300e+01 -1.300e+01 -1.300e+01 -1.300e+01 -1.300e+01 -1.300e+01 -1.300e+01 -1.300e+01 -1.300e+01 -1.300e+01 -1.300e+01 -1.300e+01 -1.300e+01 -1.300e+01 -1.300e+01 -1.300e+01 -1.300e+01 -1.300e+01 -1.300e+01 -1.300e+01 -1.300e+01 -1.300e+01 -1.300e+01 -1.300e+01 -1.300e+01 -1.300e+01 -1.300e+01 -1.300e+01 -1.300e+01 -1.300e+01 -1.300e+01 -1.300e+01 -1.300e+01 -1.300e+01 -1.300e+01 -1.300e+01 -1.300e+01 -1.300e+01 -1.300e+01 -1.300e+01 -1.300e+01 -1.300e+01 -1.300e+01 -1.300e+01 -1.300e+01 -1.300e+01 -1.300e+01 -1.300e+01 -1.300e+01 -1.300e+01 -1.300e+01 -1.300e+01 -1.300e+01 -1.300e+01 -1.300e+01 -1.300e+01 -1.300e+01 -1.300e+01 -1.300e+01 -1.300e+01 -1.300e+01 -1.300e+01 -1.300e+01 -1.300e+01 -1.300e+01 -1.300e+01 -1.300e+01 -1.300e+01 -1.300e+01 -1.300e+01 -1.300e+01 -1.300e+01 -1.300e+01 -1.300e+01 -1.300e+01 -1.300e+01 -1.300e+01 -1.300e+01 -1.300e+01 -1.300e+01 -1.300e+01 -1.300e+01 -1.300e+01 -1.300e+01 -1.300e+01 -1.300e+01 -1.300e+01 -1.300e+01 -1.300e+01 -1.300e+01 -1.300e+01 -1.300e+01 -1.300e+01 -1.300e+01 -1.300e+01 -1.300e+01 -1.300e+01 -1.300e+01 -1.300e+01 -1.300e+01 -1.300e+01 -1.300e+01 -1.300e+01 -1.300e+01 -1.300e+01 -1.300e+01 -1.300e+01 -1.300e+01 -1.300e+01 -1.300e+01 -1.300e+01 -1.300e+01 -1.300e+01 -1.300e+01 -1.300e+01 -1.300e+01 -1.300e+01 -1.300e+01 -1.300e+01 -1.300e+01 -1.300e+01 -1.300e+01 -1.300e+01 -1.300e+01 -1.300e+01 -1.300e+01 -1.300e+01 -1.300e+01 -1.300e+01 -1.300e+01 -1.300e+01 -1.300e+01 -1.300e+01 -1.300e+01 -1.300e+01 -1.300e+01 -1.300e+01 -1.300e+01 -1.300e+01 -1.300e+01 -1.300e+01 -1.300e+01 -1.300e+01 -1.300e+01 -1.300e+01 -1.300e+01 -1.300e+01 -1.300e+01 -1.300e+01 -1.300e+01 -1.300e+01 -1.300e+01 -1.300e+01 -1.300e+01 -1.300e+01 -1.300e+01 -1.300e+01 -1.300e+01 -1.300e+01 -1.300e+01 -1.300e+01 -1.300e+01 -1.300e+01 -1.300e+01 -1.300e+01 -1.300e+01 -1.300e+01 -1.300e+01 -1.300e+01 -1.300e+01 -1.300e+01 -1.300e+01 -1.300e+01 -1.300e+01 -1.300e+01 -1.300e+01 -1.300e+01 -1.300e+01 -1.300e+01 -1.300e+01 -1.300e+01 -1.300e+01 -1.300e+01 -1.300e+01 -1.300e+01 -1.300e+01 -1.300e+01 -1.300e+01 -1.300e+01 -1.300e+01 -1.300e+01 -1.300e+01 -1.300e+01 -1.300e+01 -1.300e+01 -1.300e+01 -1.300e+01 -1.300e+01 -1.300e+01 -1.300e+01 -1.300e+01 -1.300e+01 -1.300e+01 -1.300e+01 -1.300e+01 -1.300e+01 -1.300e+01 -1.300e+01 -1.300e+01 -1.300e+01 -1.300e+01 -5.000e+00 -5.000e+00 -5.000e+00 -5.000e+00 -5.000e+00 -5.000e+00 -5.000e+00 -5.000e+00 -5.000e+00 -5.000e+00 -5.000e+00 -5.000e+00 -5.000e+00 -5.000e+00 -5.000e+00 -5.000e+00 -5.000e+00 -5.000e+00 -5.000e+00 -5.000e+00 -5.000e+00 -5.000e+00 -5.000e+00 -5.000e+00 -5.000e+00 -5.000e+00 -5.000e+00 -5.000e+00 -5.000e+00 -5.000e+00 -5.000e+00 -5.000e+00 -5.000e+00 -5.000e+00 -5.000e+00 -5.000e+00 -5.000e+00 -5.000e+00 -1.300e+01 -1.300e+01 -1.300e+01 -1.300e+01 -1.300e+01 -1.300e+01 -1.300e+01 -1.300e+01 -1.300e+01 -1.300e+01 -1.300e+01 -1.300e+01 -1.300e+01 -1.300e+01 -1.300e+01 -1.300e+01 -1.300e+01 -1.300e+01 -1.300e+01 -1.300e+01 -1.300e+01 -1.300e+01 -1.300e+01 -1.300e+01 -1.300e+01 -1.300e+01 -1.300e+01 -1.300e+01 -1.300e+01 -1.300e+01 -1.300e+01 -1.300e+01 -1.300e+01 -1.300e+01 -1.300e+01 -1.300e+01 -1.300e+01 -1.300e+01 -1.300e+01 -1.300e+01 -1.300e+01 -1.300e+01 -1.300e+01 -1.300e+01 -1.300e+01 -1.300e+01 -1.300e+01 -1.300e+01 -1.300e+01 -1.300e+01 -1.300e+01 -1.300e+01 -1.300e+01 -1.300e+01 -1.300e+01 -1.300e+01 -1.300e+01 -1.300e+01 -1.300e+01 -1.300e+01 -1.300e+01 -1.300e+01 -1.300e+01 -1.300e+01 -1.300e+01 -1.300e+01 -1.300e+01 -1.300e+01 -1.300e+01 -1.300e+01 -1.300e+01 -1.300e+01 -1.300e+01 -1.300e+01 -1.300e+01 -1.300e+01 -1.300e+01 -1.300e+01 -1.300e+01 -1.300e+01 -1.300e+01 -1.300e+01 -1.300e+01 -1.300e+01 -1.300e+01 -1.300e+01 -1.300e+01 -1.300e+01 -1.300e+01 -1.300e+01 -1.300e+01 -1.300e+01 -1.300e+01 -1.300e+01 -1.300e+01 -1.300e+01 -1.300e+01 -1.300e+01 -1.300e+01 -1.300e+01 -1.300e+01 -1.300e+01 -1.300e+01 -1.300e+01 -1.300e+01 -1.300e+01 -1.300e+01 -1.300e+01 -1.300e+01 -1.300e+01 -1.300e+01 -1.300e+01 -1.300e+01 -1.300e+01 -1.300e+01 -1.300e+01 -1.300e+01 -1.300e+01 -1.300e+01 -1.300e+01 -1.300e+01 -1.300e+01 -1.300e+01 -1.300e+01 -1.300e+01 -1.300e+01 -1.300e+01 -1.300e+01 -1.300e+01 -1.300e+01 -1.300e+01 -1.300e+01 -1.300e+01 -1.300e+01 -1.300e+01 -1.300e+01 -1.300e+01 -1.300e+01 -1.300e+01 -1.300e+01 -1.300e+01 -1.300e+01 -1.300e+01 -1.300e+01 -1.300e+01 -1.300e+01 -1.300e+01 -1.300e+01 -1.300e+01 -1.300e+01 -1.300e+01 -1.300e+01 -1.300e+01 -1.300e+01 -1.300e+01 -1.300e+01 -1.300e+01 -1.300e+01 -1.300e+01 -1.300e+01 -1.300e+01 -1.300e+01 -1.300e+01 -1.300e+01 -1.300e+01 -1.300e+01 -1.300e+01 -1.300e+01 -1.300e+01 -1.300e+01 -1.300e+01 -1.300e+01 -1.300e+01 -1.300e+01 -1.300e+01 -1.300e+01 -1.300e+01 -1.300e+01 -1.300e+01 -1.300e+01 -1.300e+01 -1.300e+01 -1.300e+01 -1.300e+01 -1.300e+01 -1.300e+01 -1.300e+01 -1.300e+01 -1.300e+01 -1.300e+01 -1.300e+01 -1.300e+01 -1.300e+01 -1.300e+01 -1.300e+01 -1.300e+01 -1.300e+01 -1.300e+01 -1.300e+01 -1.300e+01 -1.300e+01 -1.300e+01 -1.300e+01 -1.300e+01 -1.300e+01 -1.300e+01 -1.300e+01 -1.300e+01 -1.300e+01 -1.300e+01 -1.300e+01 -1.300e+01 -1.300e+01 -1.300e+01 -1.300e+01 -1.300e+01 -1.300e+01 -1.300e+01 -1.300e+01 -1.300e+01 -1.300e+01 -1.300e+01 -1.300e+01 -1.300e+01 -1.300e+01 -1.300e+01 -1.300e+01 -1.300e+01 -1.300e+01 -1.300e+01 -1.300e+01 -1.300e+01 -1.300e+01 -1.300e+01 -1.300e+01 -1.300e+01 -1.300e+01 -1.300e+01 -1.300e+01 -1.300e+01 -1.300e+01 -1.300e+01 -1.300e+01 -1.300e+01 -1.300e+01 -1.300e+01 -1.300e+01 -1.300e+01 -1.300e+01 -1.300e+01 -1.300e+01 -1.300e+01 -1.300e+01 -1.300e+01 -1.300e+01 -1.300e+01 -1.300e+01 -1.300e+01 -1.300e+01 -1.300e+01 -1.300e+01 -1.300e+01 -1.300e+01 -1.300e+01 -1.300e+01 -1.300e+01 -1.300e+01 -1.300e+01 -1.300e+01 -1.300e+01 -1.300e+01 -1.300e+01 -1.300e+01 -1.300e+01 -1.300e+01 -1.300e+01 -1.300e+01 -1.300e+01 -1.300e+01 -1.300e+01 -1.300e+01 -1.300e+01 -1.300e+01 -1.300e+01 -1.300e+01 -1.300e+01 -1.300e+01 -1.300e+01 -1.300e+01 -1.300e+01 -1.300e+01 -1.300e+01 -1.300e+01 -1.300e+01 -1.300e+01 -1.300e+01 -1.300e+01 -1.300e+01 -1.300e+01 -1.300e+01 -1.300e+01 -1.300e+01 -1.300e+01 -1.300e+01 -1.300e+01 -1.300e+01 -1.300e+01 -1.300e+01 -1.300e+01 -1.300e+01 -1.300e+01 -1.300e+01 -1.300e+01 -1.300e+01 -1.300e+01 -1.300e+01 -1.300e+01 -1.300e+01 -1.300e+01 -1.300e+01 -1.300e+01 -1.300e+01 -1.300e+01 -1.300e+01 -1.300e+01 -1.300e+01 -1.300e+01 -1.300e+01 -1.300e+01 -1.300e+01 -1.300e+01 -1.300e+01 -1.300e+01 -1.300e+01 -1.300e+01 -1.300e+01 -1.300e+01 -1.300e+01 -1.300e+01 -1.300e+01 -1.300e+01 -1.300e+01 -1.300e+01 -5.000e+00 -5.000e+00 -5.000e+00 -5.000e+00 -5.000e+00 -5.000e+00 -5.000e+00 -5.000e+00 -5.000e+00 -5.000e+00 -5.000e+00 -5.000e+00 -5.000e+00 -5.000e+00 -5.000e+00 -5.000e+00 -5.000e+00 -5.000e+00 -5.000e+00 -5.000e+00 -5.000e+00 -5.000e+00 -5.000e+00 -5.000e+00 -5.000e+00 -5.000e+00 -5.000e+00 -5.000e+00 -5.000e+00 -5.000e+00 -5.000e+00 -5.000e+00 -5.000e+00 -5.000e+00 -5.000e+00 -5.000e+00 -5.000e+00 -5.000e+00 -1.900e+01 -1.900e+01 -1.900e+01 -1.900e+01 -1.900e+01 -1.900e+01 -1.900e+01 -1.900e+01 -1.900e+01 -1.900e+01 -1.900e+01 -1.900e+01 -1.900e+01 -1.900e+01 -1.900e+01 -1.900e+01 -1.900e+01 -1.900e+01 -1.900e+01 -1.900e+01 -1.900e+01 -1.900e+01 -1.900e+01 -1.900e+01 -1.900e+01 -1.900e+01 -1.900e+01 -1.900e+01 -1.900e+01 -1.900e+01 -1.900e+01 -1.900e+01 -1.900e+01 -1.900e+01 -1.900e+01 -1.900e+01 -1.900e+01 -1.900e+01 -1.900e+01 -1.900e+01 -1.900e+01 -1.900e+01 -1.900e+01 -1.900e+01 -1.900e+01 -1.900e+01 -1.900e+01 -1.900e+01 -1.900e+01 -1.900e+01 -1.900e+01 -1.900e+01 -1.900e+01 -1.900e+01 -1.900e+01 -1.900e+01 -1.900e+01 -1.900e+01 -1.900e+01 -1.900e+01 -1.900e+01 -1.900e+01 -1.900e+01 -1.900e+01 -1.900e+01 -1.900e+01 -1.900e+01 -1.900e+01 -1.900e+01 -1.900e+01 -1.900e+01 -1.900e+01 -1.900e+01 -1.900e+01 -1.900e+01 -1.900e+01 -1.900e+01 -1.900e+01 -1.900e+01 -1.900e+01 -1.900e+01 -1.900e+01 -1.900e+01 -1.900e+01 -1.900e+01 -1.900e+01 -1.900e+01 -1.900e+01 -1.900e+01 -1.900e+01 -1.900e+01 -1.900e+01 -1.900e+01 -1.900e+01 -1.900e+01 -1.900e+01 -1.900e+01 -1.900e+01 -1.900e+01 -1.900e+01 -1.900e+01 -1.900e+01 -1.900e+01 -1.900e+01 -1.900e+01 -1.900e+01 -1.900e+01 -1.900e+01 -1.900e+01 -1.900e+01 -1.900e+01 -1.100e+01 -1.100e+01 -1.100e+01 -1.100e+01 -1.100e+01 -1.100e+01 -1.100e+01 -1.100e+01 -1.100e+01 -1.100e+01 -1.100e+01 -1.100e+01 -1.100e+01 -1.100e+01 -1.100e+01 -1.100e+01 -1.100e+01 -1.100e+01 -1.100e+01 -1.100e+01 -1.100e+01 -1.100e+01 -1.100e+01 -1.100e+01 -1.100e+01 -1.100e+01 -1.100e+01 -1.900e+01 -1.900e+01 -1.900e+01 -1.900e+01 -1.900e+01 -1.900e+01 -1.900e+01 -1.900e+01 -1.900e+01 -1.900e+01 -1.900e+01 -1.900e+01 -1.900e+01 -1.900e+01 -1.900e+01 -1.900e+01 -1.900e+01 -1.900e+01 -1.900e+01 -1.900e+01 -1.900e+01 -1.900e+01 -1.900e+01 -1.900e+01 -1.900e+01 -1.900e+01 -1.900e+01 -1.900e+01 -1.900e+01 -1.900e+01 -1.900e+01 -1.900e+01 -1.900e+01 -1.900e+01 -1.900e+01 -1.900e+01 -1.900e+01 -1.900e+01 -1.900e+01 -1.900e+01 -1.900e+01 -1.900e+01 -1.900e+01 -1.900e+01 -1.900e+01 -1.900e+01 -1.900e+01 -1.900e+01 -1.900e+01 -1.900e+01 -1.900e+01 -1.900e+01 -1.900e+01 -1.900e+01 -1.900e+01 -1.900e+01 -1.900e+01 -1.900e+01 -1.900e+01 -1.900e+01 -1.900e+01 -1.900e+01 -1.900e+01 -1.900e+01 -1.900e+01 -1.900e+01 -1.900e+01 -1.900e+01 -1.900e+01 -1.900e+01 -1.900e+01 -1.900e+01 -1.900e+01 -1.900e+01 -1.900e+01 -1.900e+01 -1.900e+01 -1.900e+01 -1.900e+01 -1.900e+01 -1.900e+01 -1.900e+01 -1.900e+01 -1.900e+01 -1.900e+01 -1.900e+01 -1.900e+01 -1.900e+01 -1.900e+01 -1.900e+01 -1.900e+01 -1.900e+01 -1.900e+01 -1.900e+01 -1.900e+01 -1.900e+01 -1.900e+01 -1.900e+01 -1.900e+01 -1.900e+01 -1.900e+01 -1.900e+01 -1.900e+01 -1.900e+01 -1.900e+01 -1.900e+01 -1.900e+01 -1.900e+01 -1.900e+01 -1.100e+01 -1.100e+01 -1.100e+01 -1.100e+01 -1.100e+01 -1.100e+01 -1.100e+01 -1.100e+01 -1.100e+01 -1.100e+01 -1.100e+01 -1.100e+01 -1.100e+01 -1.100e+01 -1.100e+01 -1.100e+01 -1.100e+01 -1.100e+01 -1.100e+01 -1.100e+01 -1.100e+01 -1.100e+01 -1.100e+01 -1.100e+01 -1.100e+01 -1.100e+01 -1.100e+01 -1.900e+01 -1.900e+01 -1.900e+01 -1.900e+01 -1.900e+01 -1.900e+01 -1.900e+01 -1.900e+01 -1.900e+01 -1.900e+01 -1.900e+01 -1.900e+01 -1.900e+01 -1.900e+01 -1.900e+01 -1.900e+01 -1.900e+01