<?xml version="1.0"?>
<VTKFile type="UnstructuredGrid" version="0.1" byte_order="LittleEndian">
   <UnstructuredGrid>
      <Piece NumberOfPoints="76000" NumberOfCells="5659">
         <Points>
            <DataArray type="Float32" Name="Position" NumberOfComponents="3" format="ascii">
0.125	-4.999	0.063
0.132	-4.996	0.069
0.138	-4.999	0.075
0.142	-5.006	0.079
0.142	-5.016	0.079
0.138	-5.023	0.075
0.131	-5.026	0.070
0.124	-5.023	0.064
0.121	-5.015	0.060
0.121	-5.006	0.060
0.668	-5.022	-0.532
0.675	-5.019	-0.526
0.681	-5.022	-0.520
0.684	-5.030	-0.515
0.683	-5.039	-0.515
0.679	-5.046	-0.518
0.672	-5.049	-0.524
0.666	-5.046	-0.530
0.663	-5.039	-0.535
0.664	-5.029	-0.535
1.285	-5.172	-1.102
1.292	-5.169	-1.096
1.297	-5.172	-1.089
1.299	-5.179	-1.084
1.298	-5.188	-1.082
1.293	-5.196	-1.086
1.287	-5.198	-1.092
1.282	-5.196	-1.099
1.279	-5.188	-1.104
1.281	-5.179	-1.105
1.948	-5.352	-1.609
1.953	-5.349	-1.602
1.958	-5.352	-1.595
1.960	-5.359	-1.589
1.959	-5.369	-1.589
1.955	-5.376	-1.592
1.950	-5.379	-1.600
1.945	-5.376	-1.607
1.943	-5.369	-1.612
1.944	-5.360	-1.613
2.704	-5.424	-2.057
2.708	-5.421	-2.050
2.711	-5.423	-2.041
2.713	-5.430	-2.036
2.712	-5.439	-2.035
2.709	-5.447	-2.039
2.706	-5.450	-2.047
2.702	-5.448	-2.056
2.701	-5.441	-2.061
2.701	-5.431	-2.062
3.230	-5.481	-2.208
3.233	-5.477	-2.200
3.235	-5.479	-2.191
3.236	-5.486	-2.185
3.235	-5.495	-2.184
3.233	-5.503	-2.188
3.230	-5.507	-2.197
3.228	-5.505	-2.205
3.227	-5.498	-2.211
3.228	-5.489	-2.212
0.257	-5.026	0.130
0.263	-5.023	0.137
0.269	-5.026	0.143
0.272	-5.034	0.148
0.272	-5.043	0.148
0.268	-5.051	0.144
0.262	-5.053	0.137
0.256	-5.050	0.131
0.253	-5.043	0.126
0.253	-5.034	0.126
0.883	-5.045	-0.438
0.889	-5.042	-0.431
0.895	-5.045	-0.425
0.898	-5.052	-0.421
0.898	-5.062	-0.421
0.894	-5.069	-0.424
0.888	-5.072	-0.431
0.882	-5.069	-0.437
0.878	-5.061	-0.441
0.879	-5.052	-0.441
1.489	-5.069	-1.030
1.495	-5.066	-1.024
1.502	-5.069	-1.018
1.506	-5.077	-1.014
1.506	-5.086	-1.014
1.501	-5.094	-1.018
1.495	-5.096	-1.023
1.488	-5.093	-1.029
1.484	-5.086	-1.033
1.484	-5.077	-1.033
2.012	-5.085	-1.711
2.018	-5.082	-1.705
2.025	-5.085	-1.699
2.028	-5.093	-1.695
2.028	-5.102	-1.695
2.024	-5.110	-1.698
2.017	-5.112	-1.704
2.011	-5.109	-1.710
2.007	-5.102	-1.714
2.007	-5.093	-1.714
2.298	-5.096	-1.973
2.304	-5.093	-1.966
2.310	-5.096	-1.960
2.313	-5.103	-1.956
2.313	-5.113	-1.956
2.309	-5.120	-1.959
2.303	-5.123	-1.966
2.297	-5.120	-1.972
2.294	-5.112	-1.977
2.294	-5.103	-1.977
1.374	-5.559	0.688
1.378	-5.559	0.696
1.377	-5.560	0.705
1.371	-5.560	0.712
1.362	-5.561	0.714
1.353	-5.560	0.710
1.349	-5.560	0.702
1.350	-5.559	0.692
1.356	-5.559	0.686
1.365	-5.558	0.684
1.375	-6.377	0.627
1.380	-6.378	0.634
1.379	-6.380	0.643
1.374	-6.381	0.650
1.365	-6.381	0.653
1.356	-6.381	0.649
1.351	-6.379	0.642
1.352	-6.378	0.633
1.357	-6.377	0.625
1.366	-6.376	0.623
1.353	-7.180	0.404
1.358	-7.183	0.410
1.358	-7.187	0.419
1.353	-7.189	0.426
1.344	-7.188	0.429
1.336	-7.186	0.427
1.330	-7.182	0.421
1.330	-7.179	0.412
1.336	-7.177	0.405
1.344	-7.177	0.402
1.094	-7.925	0.007
1.100	-7.930	0.013
1.099	-7.934	0.021
1.094	-7.936	0.028
1.086	-7.935	0.032
1.077	-7.932	0.030
1.072	-7.927	0.024
1.072	-7.923	0.016
1.078	-7.921	0.009
1.086	-7.922	0.005
1.089	-7.942	-0.001
1.094	-7.947	0.005
1.094	-7.951	0.013
1.089	-7.953	0.020
1.080	-7.952	0.024
1.072	-7.948	0.022
1.067	-7.944	0.016
1.067	-7.940	0.008
1.072	-7.938	0.000
1.081	-7.939	-0.003
8.480	-16.475	3.093
8.483	-16.467	3.097
8.481	-16.459	3.099
8.475	-16.452	3.099
8.466	-16.450	3.097
8.458	-16.454	3.093
8.455	-16.461	3.089
8.457	-16.470	3.087
8.463	-16.477	3.087
8.472	-16.479	3.089
8.222	-16.734	3.838
8.226	-16.726	3.840
8.224	-16.717	3.842
8.217	-16.711	3.842
8.208	-16.709	3.841
8.200	-16.713	3.838
8.196	-16.721	3.836
8.198	-16.730	3.834
8.205	-16.737	3.834
8.214	-16.738	3.836
8.169	-16.810	4.673
8.173	-16.802	4.674
8.171	-16.793	4.674
8.165	-16.786	4.675
8.155	-16.785	4.675
8.147	-16.790	4.675
8.143	-16.798	4.674
8.145	-16.807	4.674
8.152	-16.813	4.673
8.161	-16.814	4.673
8.215	-16.819	5.154
8.219	-16.810	5.154
8.217	-16.801	5.154
8.210	-16.795	5.155
8.201	-16.794	5.156
8.193	-16.799	5.156
8.189	-16.807	5.156
8.191	-16.816	5.156
8.198	-16.823	5.155
8.207	-16.823	5.154
8.516	-16.619	3.120
8.512	-16.614	3.126
8.507	-16.606	3.128
8.503	-16.599	3.123
8.503	-16.594	3.115
8.506	-16.595	3.106
8.511	-16.600	3.100
8.516	-16.607	3.099
8.519	-16.615	3.103
8.519	-16.619	3.111
7.773	-17.062	2.904
7.768	-17.056	2.910
7.764	-17.048	2.911
7.761	-17.041	2.906
7.761	-17.037	2.898
7.764	-17.038	2.889
7.768	-17.044	2.883
7.772	-17.052	2.882
7.775	-17.060	2.887
7.775	-17.063	2.895
7.045	-17.368	2.783
7.042	-17.361	2.789
7.039	-17.352	2.789
7.037	-17.345	2.783
7.037	-17.342	2.774
7.039	-17.344	2.766
7.042	-17.351	2.760
7.045	-17.360	2.760
7.047	-17.367	2.766
7.047	-17.370	2.774
6.401	-17.529	2.758
6.399	-17.521	2.763
6.397	-17.512	2.763
6.395	-17.505	2.757
6.395	-17.503	2.748
6.396	-17.505	2.740
6.398	-17.513	2.734
6.400	-17.522	2.735
6.402	-17.529	2.740
6.402	-17.532	2.749
8.564	-16.760	3.134
8.568	-16.752	3.136
8.566	-16.743	3.138
8.560	-16.737	3.138
8.551	-16.735	3.136
8.543	-16.739	3.133
8.539	-16.747	3.130
8.540	-16.756	3.129
8.547	-16.762	3.129
8.556	-16.764	3.131
8.352	-16.949	3.956
8.355	-16.941	3.960
8.353	-16.933	3.962
8.346	-16.926	3.963
8.337	-16.925	3.961
8.330	-16.929	3.958
8.326	-16.937	3.955
8.328	-16.946	3.952
8.335	-16.952	3.952
8.344	-16.953	3.953
8.211	-17.279	4.690
8.214	-17.271	4.693
8.212	-17.262	4.696
8.204	-17.257	4.698
8.195	-17.256	4.697
8.187	-17.260	4.695
8.184	-17.268	4.692
8.186	-17.277	4.689
8.194	-17.283	4.687
8.203	-17.284	4.688
8.210	-17.297	4.781
8.214	-17.297	4.789
8.213	-17.297	4.798
8.206	-17.297	4.805
8.197	-17.297	4.806
8.189	-17.297	4.802
8.184	-17.297	4.794
8.186	-17.297	4.785
8.192	-17.297	4.778
8.202	-17.297	4.777
8.605	-16.903	3.155
8.608	-16.896	3.159
8.607	-16.887	3.162
8.601	-16.880	3.161
8.592	-16.878	3.158
8.585	-16.881	3.153
8.582	-16.888	3.148
8.583	-16.897	3.146
8.589	-16.904	3.147
8.598	-16.906	3.150
8.227	-17.167	3.897
8.230	-17.160	3.902
8.228	-17.152	3.906
8.221	-17.145	3.906
8.213	-17.143	3.903
8.206	-17.146	3.897
8.203	-17.153	3.892
8.205	-17.161	3.888
8.212	-17.168	3.888
8.220	-17.170	3.892
7.858	-17.664	4.543
7.861	-17.657	4.549
7.858	-17.650	4.554
7.851	-17.644	4.555
7.842	-17.642	4.553
7.835	-17.645	4.547
7.832	-17.651	4.541
7.835	-17.659	4.537
7.842	-17.665	4.536
7.851	-17.667	4.538
7.759	-17.918	4.896
7.762	-17.912	4.902
7.759	-17.904	4.907
7.752	-17.899	4.909
7.743	-17.897	4.907
7.736	-17.901	4.902
7.733	-17.908	4.897
7.735	-17.915	4.892
7.743	-17.921	4.890
7.752	-17.922	4.892
8.632	-17.023	3.167
8.640	-17.020	3.171
8.647	-17.024	3.177
8.650	-17.031	3.182
8.647	-17.040	3.184
8.641	-17.047	3.182
8.633	-17.049	3.178
8.627	-17.046	3.172
8.624	-17.038	3.167
8.626	-17.029	3.165
9.081	-17.291	2.481
9.089	-17.289	2.485
9.096	-17.292	2.490
9.099	-17.300	2.495
9.097	-17.309	2.497
9.091	-17.316	2.496
9.083	-17.318	2.491
9.076	-17.314	2.486
9.073	-17.307	2.482
9.075	-17.298	2.480
9.516	-17.533	1.725
9.525	-17.531	1.728
9.532	-17.534	1.733
9.535	-17.542	1.737
9.534	-17.550	1.739
9.527	-17.557	1.738
9.519	-17.560	1.734
9.512	-17.556	1.730
9.509	-17.549	1.725
9.510	-17.540	1.724
9.694	-17.666	1.346
9.702	-17.666	1.350
9.712	-17.666	1.349
9.718	-17.666	1.342
9.720	-17.666	1.333
9.715	-17.666	1.325
9.707	-17.666	1.320
9.698	-17.666	1.322
9.691	-17.666	1.328
9.690	-17.666	1.338
8.687	-17.189	3.198
8.692	-17.181	3.201
8.691	-17.172	3.202
8.685	-17.165	3.200
8.677	-17.162	3.197
8.670	-17.165	3.192
8.666	-17.173	3.189
8.666	-17.182	3.188
8.672	-17.190	3.190
8.680	-17.192	3.194
8.326	-17.290	3.893
8.330	-17.282	3.896
8.329	-17.273	3.897
8.324	-17.266	3.895
8.316	-17.263	3.892
8.308	-17.266	3.887
8.304	-17.274	3.883
8.305	-17.283	3.882
8.311	-17.290	3.884
8.319	-17.293	3.888
7.942	-17.435	4.564
7.945	-17.428	4.569
7.943	-17.419	4.572
7.937	-17.412	4.570
7.930	-17.410	4.566
7.923	-17.412	4.560
7.920	-17.419	4.555
7.922	-17.428	4.553
7.928	-17.435	4.554
7.935	-17.438	4.558
7.719	-17.566	4.788
7.727	-17.562	4.788
7.736	-17.563	4.788
7.743	-17.570	4.788
7.744	-17.579	4.788
7.740	-17.587	4.788
7.732	-17.591	4.788
7.723	-17.590	4.788
7.716	-17.583	4.788
7.715	-17.574	4.788
8.715	-17.308	3.209
8.723	-17.305	3.214
8.729	-17.308	3.219
8.733	-17.316	3.223
8.731	-17.325	3.225
8.726	-17.332	3.223
8.718	-17.335	3.218
8.712	-17.331	3.212
8.708	-17.324	3.208
8.710	-17.315	3.207
9.185	-17.468	2.555
9.192	-17.465	2.560
9.199	-17.469	2.565
9.202	-17.476	2.569
9.201	-17.485	2.570
9.195	-17.492	2.568
9.188	-17.495	2.564
9.181	-17.492	2.558
9.178	-17.484	2.554
9.179	-17.475	2.553
9.661	-17.625	1.863
9.668	-17.623	1.868
9.675	-17.626	1.874
9.679	-17.633	1.878
9.678	-17.642	1.879
9.673	-17.650	1.876
9.665	-17.652	1.871
9.659	-17.649	1.866
9.655	-17.642	1.862
9.656	-17.633	1.861
10.106	-17.691	1.311
10.113	-17.689	1.317
10.120	-17.692	1.322
10.123	-17.699	1.326
10.123	-17.708	1.327
10.118	-17.716	1.324
10.111	-17.718	1.318
10.104	-17.715	1.313
10.100	-17.708	1.309
10.101	-17.699	1.308
8.761	-17.472	3.248
8.755	-17.465	3.249
8.753	-17.456	3.246
8.754	-17.450	3.239
8.758	-17.449	3.231
8.764	-17.453	3.225
8.769	-17.460	3.223
8.772	-17.468	3.226
8.771	-17.474	3.233
8.766	-17.476	3.241
8.145	-17.807	2.872
8.141	-17.799	2.872
8.141	-17.791	2.867
8.144	-17.786	2.859
8.149	-17.787	2.852
8.155	-17.793	2.847
8.159	-17.801	2.848
8.159	-17.809	2.852
8.156	-17.814	2.860
8.151	-17.813	2.867
7.491	-18.041	2.386
7.489	-18.032	2.386
7.489	-18.024	2.381
7.493	-18.020	2.374
7.498	-18.021	2.366
7.503	-18.028	2.362
7.506	-18.037	2.362
7.505	-18.045	2.367
7.501	-18.049	2.374
7.496	-18.047	2.382
7.185	-18.129	2.215
7.182	-18.120	2.216
7.182	-18.112	2.211
7.185	-18.107	2.204
7.189	-18.108	2.196
7.194	-18.114	2.191
7.197	-18.122	2.190
7.197	-18.131	2.194
7.194	-18.135	2.201
7.189	-18.134	2.209
8.810	-17.599	3.242
8.808	-17.593	3.248
8.804	-17.591	3.256
8.800	-17.594	3.264
8.798	-17.602	3.268
8.797	-17.611	3.266
8.799	-17.618	3.261
8.803	-17.620	3.252
[...]
         <CellData>
           <DataArray type="Float32" Name="combinedRootClassID" NumberOfComponents="1" format="ascii">
 -1.300e+01 -1.300e+01 -1.300e+01 -1.300e+01 -1.300e+01 -1.300e+01 -1.300e+01 -1.300e+01 -1.300e+01 -1.300e+01 -1.300e+01 -1.300e+01 -1.300e+01 -1.300e+01 -1.300e+01 -1.300e+01 -1.300e+01 -1.300e+01 -1.300e+01 -1.300e+01 -1.300e+01 -1.300e+01 -1.300e+01 -1.300e+01 -1.300e+01 -1.300e+01 -1.300e+01 -1.300e+01 -1.300e+01 -1.300e+01 -1.300e+01 -1.300e+01 -1.300e+01 -1.300e+01 -1.300e+01 -1.300e+01 -1.300e+01 -1.300e+01 -1.300e+01 -1.300e+01 -1.300e+01 -1.300e+01 -1.300e+01 -1.300e+01 -1.300e+01 -1.300e+01 -1.300e+01 -1.300e+01 -1.300e+01 -1.300e+01 -1.300e+01 -1.300e+01 -1.300e+01 -1.300e+01 -1.300e+01 -1.300e+01 -1.300e+01 -1.300e+01 -1.300e+01 -1.300e+01 -1.300e+01 -1.300e+01 -1.300e+01 -1.300e+01 -1.300e+01 -1.300e+01 -1.300e+01 -1.300e+01 -1.300e+01 -1.300e+01 -1.300e+01 -1.300e+01 -1.300e+01 -1.300e+01 -1.300e+01 -1.300e+01 -1.300e+01 -1.300e+01 -1.300e+01 -1.300e+01 -1.300e+01 -1.300e+01 -1.300e+01 -1.300e+01 -1.300e+01 -1.300e+01 -1.300e+01 -1.300e+01 -1.300e+01 -1.300e+01 -1.300e+01 -1.300e+01 -1.300e+01 -1.300e+01 -1.300e+01 -1.300e+01 -1.300e+01 -1.300e+01 -1.300e+01 -1.300e+01 -1.300e+01 -1.300e+01 -1.300e+01 -1.300e+01 -1.300e+01 -1.300e+01 -1.300e+01 -1.300e+01 -1.300e+01 -1.300e+01 -1.300e+01 -1.300e+01 -1.300e+01 -1.300e+01 -1.300e+01 -1.300e+01 -1.300e+01 -1.300e+01 -1.300e+01 -1.300e+01 -1.300e+01 -1.300e+01 -1.300e+01 -1.300e+01 -1.300e+01 -1.300e+01 -1.300e+01 -1.300e+01 -1.300e+01 -1.300e+01 -1.300e+01 -1.300e+01 -1.300e+01 -1.300e+01 -1.300e+01 -1.300e+01 -1.300e+01 -1.300e+01 -1.300e+01 -1.300e+01 -1.300e+01 -1.300e+01 -1.300e+01 -1.300e+01 -1.300e+01 -1.300e+01 -1.300e+01 -1.300e+01 -1.300e+01 -1.300e+01 -1.300e+01 -1.300e+01 -1.300e+01 -1.300e+01 -1.300e+01 -1.300e+01 -1.300e+01 -1.300e+01 -1.300e+01 -1.300e+01 -1.300e+01 -1.300e+01 -1.300e+01 -1.300e+01 -1.300e+01 -1.300e+01 -1.300e+01 -1.300e+01 -1.300e+01 -1.300e+01 -1.300e+01 -1.300e+01 -1.300e+01 -1.300e+01 -1.300e+01 -1.300e+01 -1.300e+01 -1.300e+01 -1.300e+01 -1.300e+01 -1.300e+01 -1.300e+01 -1.300e+01 -1.300e+01 -1.300e+01 -1.300e+01 -1.300e+01 -1.300e+01 -1.300e+01 -1.300e+01 -1.300e+01 -1.300e+01 -1.300e+01 -1.300e+01 -1.300e+01 -1.300e+01 -1.300e+01 -1.300e+01 -1.300e+01 -1.300e+01 -1.300e+01 -1.300e+01 -1.300e+01 -1.300e+01 -1.300e+01 -1.300e+01 -1.300e+01 -1.300e+01 -1.300e+01 -1.300e+01 -1.300e+01 -1.300e+01 -1.300e+01 -1.300e+01 -1.300e+01 -1.300e+01 -1.300e+01 -1.300e+01 -1.300e+01 -1.300e+01 -1.300e+01 -1.300e+01 -1.300e+01 -1.300e+01 -1.300e+01 -1.300e+01 -1.300e+01 -1.300e+01 -1.300e+01 -1.300e+01 -1.300e+01 -1.300e+01 -1.300e+01 -1.300e+01 -1.300e+01 -1.300e+01 -1.300e+01 -1.300e+01 -1.300e+01 -1.300e+01 -1.300e+01 -1.300e+01 -1.300e+01 -1.300e+01 -1.300e+01 -1.300e+01 -1.300e+01 -1.300e+01 -1.300e+01 -1.300e+01 -1.300e+01 -1.300e+01 -1.300e+01 -1.300e+01 -1.300e+01 -1.300e+01 -1.300e+01 -1.300e+01 -1.300e+01 -1.300e+01 -1.300e+01 -1.300e+01 -1.300e+01 -1.300e+01 -1.300e+01 -1.300e+01 -1.300e+01 -1.300e+01 -1.300e+01 -1.300e+01 -1.300e+01 -1.300e+01 -1.300e+01 -1.300e+01 -1.300e+01 -1.300e+01 -1.300e+01 -1.300e+01 -1.300e+01 -1.300e+01 -1.300e+01 -1.300e+01 -1.300e+01 -1.300e+01 -1.300e+01 -1.300e+01 -1.300e+01 -1.300e+01 -1.300e+01 -1.300e+01 -1.300e+01 -1.300e+01 -1.300e+01 -1.300e+01 -1.300e+01 -1.300e+01 -1.300e+01 -1.300e+01 -1.300e+01 -1.300e+01 -1.300e+01 -1.300e+01 -1.300e+01 -1.300e+01 -1.300e+01 -1.300e+01 -1.300e+01 -1.300e+01 -1.300e+01 -1.300e+01 -1.300e+01 -1.300e+01 -1.300e+01 -1.300e+01 -1.300e+01 -1.300e+01 -1.300e+01 -1.300e+01 -1.300e+01 -1.300e+01 -1.300e+01 -1.300e+01 -1.300e+01 -1.300e+01 -1.300e+01 -1.300e+01 -1.300e+01 -1.300e+01 -1.300e+01 -1.300e+01 -1.300e+01 -1.300e+01 -1.300e+01 -1.300e+01 -1.300e+01 -1.300e+01 -1.300e+01 -1.300e+01 -1.300e+01 -1.300e+01 -1.300e+01 -1.300e+01 -1.300e+01 -1.300e+01 -1.300e+01 -1.300e+01 -1.300e+01 -1.300e+01 -1.300e+01 -1.300e+01 -1.300e+01 -1.300e+01 -1.300e+01 -1.300e+01 -1.300e+01 -1.300e+01 -1.300e+01 -1.300e+01 -1.300e+01 -1.300e+01 -1.300e+01 -1.300e+01 -1.300e+01 -1.300e+01 -1.300e+01 -1.300e+01 -1.300e+01 -1.300e+01 -1.300e+01 -1.300e+01 -1.300e+01 -1.300e+01 -1.300e+01 -1.300e+01 -1.300e+01 -1.300e+01 -1.300e+01 -1.300e+01 -1.300e+01 -1.300e+01 -1.300e+01 -1.300e+01 -1.300e+01 -1.300e+01 -1.300e+01 -1.300e+01 -1.300e+01 -1.300e+01 -1.300e+01 -1.300e+01 -1.300e+01 -1.300e+01 -1.300e+01 -1.300e+01 -1.300e+01 -1.300e+01 -1.300e+01 -1.300e+01 -1.300e+01 -1.300e+01 -1.300e+01 -1.300e+01 -1.300e+01 -1.300e+01 -1.300e+01 -1.300e+01 -1.300e+01 -1.300e+01 -1.300e+01 -1.300e+01 -1.300e+01 -1.300e+01 -1.300e+01 -1.300e+01 -1.300e+01 -1.300e+01 -1.300e+01 -1.300e+01 -1.300e+01 -1.300e+01 -1.300e+01 -1.300e+01 -1.300e+01 -1.300e+01 -1.300e+01 -1.300e+01 -1.300e+01 -1.300e+01 -1.300e+01 -1.300e+01 -1.300e+01 -1.300e+01 -1.300e+01 -1.300e+01 -1.300e+01 -1.300e+01 -1.300e+01 -1.300e+01 -1.300e+01 -1.300e+01 -1.300e+01 -1.300e+01 -1.300e+01 -1.300e+01 -1.300e+01 -1.300e+01 -1.300e+01 -1.300e+01 -1.300e+01 -1.300e+01 -1.300e+01 -1.300e+01 -1.300e+01 -1.300e+01 -1.300e+01 -1.300e+01 -1.300e+01 -1.300e+01 -1.300e+01 -1.300e+01 -1.300e+01 -1.300e+01 -1.300e+01 -1.300e+01 -1.300e+01 -1.300e+01 -1.300e+01 -1.300e+01 -1.300e+01 -1.300e+01 -1.300e+01 -1.300e+01 -1.300e+01 -1.300e+01 -1.300e+01 -1.300e+01 -1.300e+01 -1.300e+01 -1.300e+01 -1.300e+01 -1.300e+01 -1.300e+01 -1.300e+01 -1.300e+01 -1.300e+01 -1.300e+01 -1.300e+01 -1.300e+01 -1.300e+01 -1.300e+01 -1.300e+01 -1.300e+01 -1.300e+01 -1.300e+01 -1.300e+01 -1.300e+01 -1.300e+01 -1.300e+01 -1.300e+01 -1.300e+01 -1.300e+01 -1.300e+01 -1.300e+01 -1.300e+01 -1.300e+01 -1.300e+01 -1.300e+01 -1.300e+01 -1.300e+01 -1.300e+01 -1.300e+01 -1.300e+01 -1.300e+01 -1.300e+01 -1.300e+01 -1.300e+01 -1.300e+01 -1.300e+01 -1.300e+01 -1.300e+01 -1.300e+01 -1.300e+01 -1.300e+01 -1.300e+01 -1.300e+01 -1.300e+01 -1.300e+01 -1.300e+01 -1.300e+01 -1.300e+01 -1.300e+01 -1.300e+01 -1.300e+01 -1.300e+01 -1.300e+01 -1.300e+01 -1.300e+01 -1.300e+01 -1.300e+01 -1.300e+01 -1.300e+01 -1.300e+01 -1.300e+01 -1.300e+01 -1.300e+01 -1.300e+01 -1.300e+01 -1.300e+01 -1.300e+01 -1.300e+01 -1.300e+01 -1.300e+01 -1.300e+01 -1.300e+01 -1.300e+01 -1.300e+01 -1.300e+01 -1.300e+01 -1.300e+01 -1.300e+01 -1.300e+01 -1.300e+01 -1.300e+01 -1.300e+01 -1.300e+01 -1.300e+01 -1.300e+01 -1.300e+01 -1.300e+01 -1.300e+01 -1.300e+01 -1.300e+01 -1.300e+01 -1.300e+01 -1.300e+01 -1.300e+01 -1.300e+01 -1.300e+01 -5.000e+00 -5.000e+00 -5.000e+00 -5.000e+00 -5.000e+00 -5.000e+00 -5.000e+00 -5.000e+00 -5.000e+00 -5.000e+00 -5.000e+00 -5.000e+00 -5.000e+00 -5.000e+00 -5.000e+00 -5.000e+00 -5.000e+00 -5.000e+00 -5.000e+00 -5.000e+00 -5.000e+00 -5.000e+00 -5.000e+00 -5.000e+00 -5.000e+00 -5.000e+00 -5.000e+00 -5.000e+00 -5.000e+00 -5.000e+00 -5.000e+00 -5.000e+00 -5.000e+00 -5.000e+00 -5.000e+00 -5.000e+00 -5.000e+00 -5.000e+00 -5.000e+00 -5.000e+00 -5.000e+00 -5.000e+00 -5.000e+00 -5.000e+00 -5.000e+00 -5.000e+00 -5.000e+00 -5.000e+00 -1.300e+01 -1.300e+01 -1.300e+01 -1.300e+01 -1.300e+01 -1.300e+01 -1.300e+01 -1.300e+01 -1.300e+01 -1.300e+01 -1.300e+01 -1.300e+01 -1.300e+01 -1.300e+01 -1.300e+01 -1.300e+01 -1.300e+01 -1.300e+01 -1.300e+01 -1.300e+01 -1.300e+01 -1.300e+01 -1.300e+01 -1.300e+01 -1.300e+01 -1.300e+01 -1.300e+01 -1.300e+01 -1.300e+01 -1.300e+01 -1.300e+01 -1.300e+01 -1.300e+01 -1.300e+01 -1.300e+01 -1.300e+01 -1.300e+01 -1.300e+01 -1.300e+01 -1.300e+01 -1.300e+01 -1.300e+01 -1.300e+01 -1.300e+01 -1.300e+01 -1.300e+01 -1.300e+01 -1.300e+01 -1.300e+01 -1.300e+01 -1.300e+01 -1.300e+01 -1.300e+01 -1.300e+01 -1.300e+01 -1.300e+01 -1.300e+01 -1.300e+01 -1.300e+01 -1.300e+01 -1.300e+01 -1.300e+01 -1.300e+01 -1.300e+01 -1.300e+01 -1.300e+01 -1.300e+01 -1.300e+01 -1.300e+01 -1.300e+01 -1.300e+01 -1.300e+01 -1.300e+01 -1.300e+01 -1.300e+01 -1.300e+01 -1.300e+01 -1.300e+01 -1.300e+01 -1.300e+01 -1.300e+01 -1.300e+01 -1.300e+01 -1.300e+01 -1.300e+01 -1.300e+01 -1.300e+01 -1.300e+01 -1.300e+01 -1.300e+01 -1.300e+01 -1.300e+01 -1.300e+01 -1.300e+01 -1.300e+01 -1.300e+01 -1.300e+01 -1.300e+01 -1.300e+01 -1.300e+01 -1.300e+01 -1.300e+01 -1.300e+01 -1.300e+01 -1.300e+01 -1.300e+01 -1.300e+01 -1.300e+01 -1.300e+01 -1.300e+01 -1.300e+01 -1.300e+01 -1.300e+01 -1.300e+01 -1.300e+01 -1.300e+01 -1.300e+01 -1.300e+01 -1.300e+01 -1.300e+01 -1.300e+01 -1.300e+01 -1.300e+01 -1.300e+01 -1.300e+01 -1.300e+01 -1.300e+01 -1.300e+01 -1.300e+01 -1.300e+01 -1.300e+01 -1.300e+01 -1.300e+01 -1.300e+01 -1.300e+01 -1.300e+01 -1.300e+01 -1.300e+01 -1.300e+01 -1.300e+01 -1.300e+01 -1.300e+01 -1.300e+01 -1.300e+01 -1.300e+01 -1.300e+01 -1.300e+01 -1.300e+01 -1.300e+01 -1.300e+01 -1.300e+01 -1.300e+01 -1.300e+01 -1.300e+01 -1.300e+01 -1.300e+01 -1.300e+01 -1.300e+01 -1.300e+01 -1.300e+01 -1.300e+01 -1.300e+01 -1.300e+01 -1.300e+01 -1.300e+01 -1.300e+01 -1.300e+01 -1.300e+01 -1.300e+01 -1.300e+01 -1.300e+01 -1.300e+01 -1.300e+01 -1.300e+01 -1.300e+01 -1.300e+01 -1.300e+01 -1.300e+01 -1.300e+01 -1.300e+01 -1.300e+01 -1.300e+01 -1.300e+01 -1.300e+01 -1.300e+01 -1.300e+01 -1.300e+01 -1.300e+01 -1.300e+01 -1.300e+01 -1.300e+01 -1.300e+01 -1.300e+01 -1.300e+01 -1.300e+01 -1.300e+01 -1.300e+01 -1.300e+01 -1.300e+01 -1.300e+01 -1.300e+01 -1.300e+01 -1.300e+01 -1.300e+01 -1.300e+01 -1.300e+01 -1.300e+01 -1.300e+01 -1.300e+01 -1.300e+01 -1.300e+01 -1.300e+01 -1.300e+01 -1.300e+01 -1.300e+01 -1.300e+01 -1.300e+01 -1.300e+01 -1.300e+01 -1.300e+01 -1.300e+01 -1.300e+01 -1.300e+01 -1.300e+01 -1.300e+01 -1.300e+01 -1.300e+01 -1.300e+01 -1.300e+01 -1.300e+01 -1.300e+01 -1.300e+01 -1.300e+01 -1.300e+01 -1.300e+01 -1.300e+01 -1.300e+01 -1.300e+01 -1.300e+01 -1.300e+01 -1.300e+01 -1.300e+01 -1.300e+01 -1.300e+01 -1.300e+01 -1.300e+01 -1.300e+01 -1.300e+01 -1.300e+01 -1.300e+01 -1.300e+01 -1.300e+01 -1.300e+01 -1.300e+01 -1.300e+01 -1.300e+01 -1.300e+01 -1.300e+01 -1.300e+01 -1.300e+01 -1.300e+01 -1.300e+01 -1.300e+01 -1.300e+01 -1.300e+01 -1.300e+01 -1.300e+01 -1.300e+01 -1.300e+01 -1.300e+01 -1.300e+01 -1.300e+01 -1.300e+01 -1.300e+01 -1.300e+01 -1.300e+01 -1.300e+01 -1.300e+01 -1.300e+01 -1.300e+01 -1.300e+01 -1.300e+01 -1.300e+01 -1.300e+01 -1.300e+01 -1.300e+01 -1.300e+01 -1.300e+01 -1.300e+01 -1.300e+01 -1.300e+01 -1.300e+01 -1.300e+01 -1.300e+01 -1.300e+01 -1.300e+01 -1.300e+01 -1.300e+01 -1.300e+01 -1.300e+01 -1.300e+01 -1.300e+01 -1.300e+01 -1.300e+01 -1.300e+01 -1.300e+01 -1.300e+01 -1.300e+01 -1.300e+01 -1.300e+01 -1.300e+01 -1.300e+01 -1.300e+01 -1.300e+01 -1.300e+01 -1.300e+01 -1.300e+01 -1.300e+01 -1.300e+01 -1.300e+01 -1.300e+01 -1.300e+01 -1.300e+01 -1.300e+01 -1.300e+01 -1.300e+01 -1.300e+01 -1.300e+01 -1.300e+01 -1.300e+01 -1.300e+01 -1.300e+01 -1.300e+01 -1.300e+01 -1.300e+01 -1.300e+01 -1.300e+01 -1.300e+01 -1.300e+01 -1.300e+01 -1.300e+01 -1.300e+01 -1.300e+01 -1.300e+01 -1.300e+01 -1.300e+01 -1.300e+01 -1.300e+01 -1.300e+01 -1.300e+01 -1.300e+01 -1.300e+01 -1.300e+01 -1.300e+01 -1.300e+01 -1.300e+01 -1.300e+01 -1.300e+01 -1.300e+01 -1.300e+01 -1.300e+01 -1.300e+01 -1.300e+01 -1.300e+01 -1.300e+01 -1.300e+01 -1.300e+01 -1.300e+01 -1.300e+01 -1.300e+01 -1.300e+01 -1.300e+01 -1.300e+01 -1.300e+01 -1.300e+01 -1.300e+01 -1.300e+01 -1.300e+01 -1.300e+01 -1.300e+01 -1.300e+01 -1.300e+01 -1.300e+01 -1.300e+01 -1.300e+01 -1.300e+01 -1.300e+01 -1.300e+01 -1.300e+01 -1.300e+01 -1.300e+01 -1.300e+01 -1.300e+01 -1.300e+01 -1.300e+01 -1.300e+01 -1.300e+01 -1.300e+01 -1.300e+01 -1.300e+01 -1.300e+01 -1.300e+01 -1.300e+01 -1.300e+01 -1.300e+01 -1.300e+01 -1.300e+01 -1.300e+01 -1.300e+01 -1.300e+01 -1.300e+01 -1.300e+01 -1.300e+01 -1.300e+01 -1.300e+01 -1.300e+01 -1.300e+01 -1.300e+01 -1.300e+01 -1.300e+01 -1.300e+01 -1.300e+01 -1.300e+01 -1.300e+01 -1.300e+01 -1.300e+01 -1.300e+01 -1.300e+01 -1.300e+01 -1.300e+01 -1.300e+01 -1.300e+01 -1.300e+01 -1.300e+01 -1.300e+01 -1.300e+01 -1.300e+01 -1.300e+01 -1.300e+01 -1.300e+01 -1.300e+01 -1.300e+01 -1.300e+01 -1.300e+01 -1.300e+01 -1.300e+01 -1.300e+01 -1.300e+01 -1.300e+01 -1.300e+01 -1.300e+01 -1.300e+01 -1.300e+01 -1.300e+01 -1.300e+01 -1.300e+01 -1.300e+01 -1.300e+01 -1.300e+01 -1.300e+01 -1.300e+01 -1.300e+01 -1.300e+01 -1.300e+01 -1.300e+01 -1.300e+01 -1.300e+01 -1.300e+01 -1.300e+01 -1.300e+01 -1.300e+01 -1.300e+01 -1.300e+01 -1.300e+01 -1.300e+01 -1.300e+01 -1.300e+01 -1.300e+01 -1.300e+01 -1.300e+01 -1.300e+01 -1.300e+01 -1.300e+01 -1.300e+01 -1.300e+01 -1.300e+01 -1.300e+01 -1.300e+01 -1.300e+01 -1.300e+01 -1.300e+01 -1.300e+01 -1.300e+01 -1.300e+01 -1.300e+01 -1.300e+01 -1.300e+01 -1.300e+01 -1.300e+01 -1.300e+01 -1.300e+01 -1.300e+01 -1.300e+01 -1.300e+01 -1.300e+01 -1.300e+01 -1.300e+01 -1.300e+01 -1.300e+01 -1.300e+01 -1.300e+01 -1.300e+01 -1.300e+01 -1.300e+01 -1.300e+01 -1.300e+01 -1.300e+01 -1.300e+01 -1.300e+01 -1.300e+01 -1.300e+01 -1.300e+01 -1.300e+01 -1.300e+01 -1.300e+01 -1.300e+01 -1.300e+01 -1.300e+01 -1.300e+01 -1.300e+01 -1.300e+01 -1.300e+01 -1.300e+01 -1.300e+01 -1.300e+01 -1.300e+01 -1.300e+01 -1.300e+01 -1.300e+01 -1.300e+01 -1.300e+01 -1.300e+01 -1.300e+01 -1.300e+01 -1.300e+01 -1.300e+01 -1.300e+01 -1.300e+01 -1.300e+01 -1.300e+01 -1.300e+01 -1.300e+01 -1.300e+01 -1.300e+01 -1.300e+01 -1.300e+01 -1.300e+01 -1.300e+01 -1.300e+01 -1.300e+01 -1.300e+01 -1.300e+01 -1.300e+01 -1.300e+01 -1.300e+01 -1.300e+01 -1.300e+01 -5.000e+00 -5.000e+00 -5.000e+00 -5.000e+00 -5.000e+00 -5.000e+00 -5.000e+00 -5.000e+00 -5.000e+00 -5.000e+00 -5.000e+00 -5.000e+00 -5.000e+00 -5.000e+00 -5.000e+00 -5.000e+00 -5.000e+00 -5.000e+00 -5.000e+00 -5.000e+00 -5.000e+00 -5.000e+00 -5.000e+00 -5.000e+00 -5.000e+00 -5.000e+00 -5.000e+00 -5.000e+00 -5.000e+00 -5.000e+00 -5.000e+00 -5.000e+00 -5.000e+00 -5.000e+00 -5.000e+00 -5.000e+00 -5.000e+00 -5.000e+00 -5.000e+00 -5.000e+00 -5.000e+00 -5.000e+00 -5.000e+00 -5.000e+00 -5.000e+00 -5.000e+00 -5.000e+00 -5.000e+00 -1.300e+01 -1.300e+01 -1.300e+01 -1.300e+01 -1.300e+01 -1.300e+01 -1.300e+01 -1.300e+01 -1.300e+01 -1.300e+01 -1.300e+01 -1.300e+01 -1.300e+01 -1.300e+01 -1.300e+01 -1.300e+01 -1.300e+01 -1.300e+01 -1.300e+01 -1.300e+01 -1.300e+01 -1.300e+01 -1.300e+01 -1.300e+01 -1.300e+01 -1.300e+01 -1.300e+01 -1.300e+01 -1.300e+01 -1.300e+01 -1.300e+01 -1.300e+01 -1.300e+01 -1.300e+01 -1.300e+01 -1.300e+01 -1.300e+01 -1.300e+01 -1.300e+01 -1.300e+01 -1.300e+01 -1.300e+01 -1.300e+01 -1.300e+01 -1.300e+01 -1.300e+01 -1.300e+01 -1.300e+01 -1.300e+01 -1.300e+01 -1.300e+01 -1.300e+01 -1.300e+01 -1.300e+01 -1.300e+01 -1.300e+01 -1.300e+01 -1.300e+01 -1.300e+01 -1.300e+01 -1.300e+01 -1.300e+01 -1.300e+01 -1.300e+01 -1.300e+01 -1.300e+01 -1.300e+01 -1.300e+01 -1.300e+01 -1.300e+01 -1.300e+01 -1.300e+01 -1.300e+01 -1.300e+01 -1.300e+01 -1.300e+01 -1.300e+01 -1.300e+01 -1.300e+01 -1.300e+01 -1.300e+01 -1.300e+01 -1.300e+01 -1.300e+01 -1.300e+01 -1.300e+01 -1.300e+01 -1.300e+01 -1.300e+01 -1.300e+01 -1.300e+01 -1.300e+01 -1.300e+01 -1.300e+01 -1.300e+01 -1.300e+01 -1.300e+01 -1.300e+01 -1.300e+01 -1.300e+01 -1.300e+01 -1.300e+01 -1.300e+01 -1.300e+01 -1.300e+01 -1.300e+01 -1.300e+01 -1.300e+01 -1.300e+01 -1.300e+01 -1.300e+01 -1.300e+01 -1.300e+01 -1.300e+01 -1.300e+01 -1.300e+01 -1.300e+01 -1.300e+01 -1.300e+01 -1.300e+01 -1.300e+01 -1.300e+01 -1.300e+01 -1.300e+01 -1.300e+01 -1.300e+01 -1.300e+01 -1.300e+01 -1.300e+01 -1.300e+01 -1.300e+01 -1.300e+01 -1.300e+01 -1.300e+01 -1.300e+01 -1.300e+01 -1.300e+01 -1.300e+01 -1.300e+01 -1.300e+01 -1.300e+01 -1.300e+01 -1.300e+01 -1.300e+01 -1.300e+01 -1.300e+01 -1.300e+01 -1.300e+01 -1.300e+01 -1.300e+01 -1.300e+01 -1.300e+01 -1.300e+01 -1.300e+01 -1.300e+01 -1.300e+01 -1.300e+01 -1.300e+01 -1.300e+01 -1.300e+01 -1.300e+01 -1.300e+01 -1.300e+01 -1.300e+01 -1.300e+01 -1.300e+01 -1.300e+01 -1.300e+01 -1.300e+01 -1.300e+01 -1.300e+01 -1.300e+01 -1.300e+01 -1.300e+01 -1.300e+01 -1.300e+01 -1.300e+01 -1.300e+01 -1.300e+01 -1.300e+01 -1.300e+01 -1.300e+01 -1.300e+01 -1.300e+01 -1.300e+01 -1.300e+01 -1.300e+01 -1.300e+01 -1.300e+01 -1.300e+01 -1.300e+01 -1.300e+01 -1.300e+01 -1.300e+01 -1.300e+01 -1.300e+01 -1.300e+01 -1.300e+01 -1.300e+01 -1.300e+01 -1.300e+01 -1.300e+01 -1.300e+01 -1.300e+01 -1.300e+01 -1.300e+01 -1.300e+01 -1.300e+01 -1.300e+01 -1.300e+01 -1.300e+01 -1.300e+01 -1.300e+01 -1.300e+01 -1.300e+01 -1.300e+01 -1.300e+01 -1.300e+01 -1.300e+01 -1.300e+01 -1.300e+01 -1.300e+01 -1.300e+01 -1.300e+01 -1.300e+01 -1.300e+01 -1.300e+01 -1.300e+01 -1.300e+01 -1.300e+01 -1.300e+01 -1.300e+01 -1.300e+01 -1.300e+01 -1.300e+01 -1.300e+01 -1.300e+01 -1.300e+01 -1.300e+01 -1.300e+01 -1.300e+01 -1.300e+01 -1.300e+01 -1.300e+01 -1.300e+01 -1.300e+01 -1.300e+01 -1.300e+01 -1.300e+01 -1.300e+01 -1.300e+01 -1.300e+01 -1.300e+01 -1.300e+01 -1.300e+01 -1.300e+01 -1.300e+01 -1.300e+01 -1.300e+01 -1.300e+01 -1.300e+01 -1.300e+01 -1.300e+01 -1.300e+01 -1.300e+01 -1.300e+01 -1.300e+01 -1.300e+01 -1.300e+01 -1.300e+01 -1.300e+01 -1.300e+01 -1.300e+01 -1.300e+01 -1.300e+01 -1.300e+01 -1.300e+01 -1.300e+01 -1.300e+01 -1.300e+01 -1.300e+01 -1.300e+01 -1.300e+01 -1.300e+01 -1.300e+01 -1.300e+01 -1.300e+01 -1.300e+01 -1.300e+01 -1.300e+01 -1.300e+01 -1.300e+01 -1.300e+01 -1.300e+01 -1.300e+01 -1.300e+01 -1.300e+01 -1.300e+01 -1.300e+01 -1.300e+01 -1.300e+01 -1.300e+01 -1.300e+01 -1.300e+01 -1.300e+01 -1.300e+01 -1.300e+01 -1.300e+01 -1.300e+01 -1.300e+01 -1.300e+01 -1.300e+01 -1.300e+01 -1.300e+01 -1.300e+01 -1.300e+01 -1.300e+01 -1.300e+01 -1.300e+01 -1.300e+01 -1.300e+01 -1.300e+01 -1.300e+01 -1.300e+01 -1.300e+01 -1.300e+01 -1.300e+01 -1.300e+01 -1.300e+01 -1.300e+01 -1.300e+01 -1.300e+01 -1.300e+01 -1.300e+01 -1.300e+01 -1.300e+01 -1.300e+01 -1.300e+01 -1.300e+01 -1.300e+01 -1.300e+01 -1.300e+01 -1.300e+01 -1.300e+01 -1.300e+01 -1.300e+01 -1.300e+01 -1.300e+01 -1.300e+01 -1.300e+01 -1.300e+01 -1.300e+01 -1.300e+01 -1.300e+01 -1.300e+01 -1.300e+01 -1.300e+01 -1.300e+01 -1.300e+01 -1.300e+01 -1.300e+01 -1.300e+01 -1.300e+01 -1.300e+01 -1.300e+01 -1.300e+01 -1.300e+01 -1.300e+01 -1.300e+01 -1.300e+01 -1.300e+01 -1.300e+01 -1.300e+01 -1.300e+01 -1.300e+01 -1.300e+01 -1.300e+01 -1.300e+01 -1.300e+01 -1.300e+01 -1.300e+01 -1.300e+01 -1.300e+01 -1.300e+01 -1.300e+01 -1.300e+01 -1.300e+01 -1.300e+01 -1.300e+01 -1.300e+01 -1.300e+01 -1.300e+01 -1.300e+01 -1.300e+01 -1.300e+01 -1.300e+01 -1.300e+01 -1.300e+01 -1.300e+01 -1.300e+01 -1.300e+01 -1.300e+01 -1.300e+01 -1.300e+01 -1.300e+01 -1.300e+01 -1.300e+01 -1.300e+01 -1.300e+01 -1.300e+01 -1.300e+01 -1.300e+01 -1.300e+01 -1.300e+01 -1.300e+01 -1.300e+01 -1.300e+01 -1.300e+01 -1.300e+01 -1.300e+01 -1.300e+01 -1.300e+01 -1.300e+01 -1.300e+01 -1.300e+01 -1.300e+01 -1.300e+01 -1.300e+01 -1.300e+01 -1.300e+01 -1.300e+01 -1.300e+01 -1.300e+01 -1.300e+01 -1.300e+01 -1.300e+01 -1.300e+01 -1.300e+01 -1.300e+01 -1.300e+01 -1.300e+01 -1.300e+01 -1.300e+01 -1.300e+01 -1.300e+01 -1.300e+01 -1.300e+01 -1.300e+01 -1.300e+01 -1.300e+01 -1.300e+01 -1.300e+01 -1.300e+01 -1.300e+01 -1.300e+01 -1.300e+01 -1.300e+01 -1.300e+01 -1.300e+01 -1.300e+01 -1.300e+01 -1.300e+01 -1.300e+01 -1.300e+01 -1.300e+01 -1.300e+01 -1.300e+01 -1.300e+01 -1.300e+01 -1.300e+01 -1.300e+01 -1.300e+01 -1.300e+01 -1.300e+01 -1.300e+01 -1.300e+01 -1.300e+01 -1.300e+01 -1.300e+01 -1.300e+01 -1.300e+01 -1.300e+01 -1.300e+01 -1.300e+01 -1.300e+01 -1.300e+01 -1.300e+01 -1.300e+01 -1.300e+01 -1.300e+01 -1.300e+01 -1.300e+01 -1.300e+01 -1.300e+01 -1.300e+01 -1.300e+01 -1.300e+01 -1.300e+01 -1.300e+01 -1.300e+01 -1.300e+01 -1.300e+01 -1.300e+01 -1.300e+01 -1.300e+01 -1.300e+01 -1.300e+01 -1.300e+01 -1.300e+01 -1.300e+01 -1.300e+01 -1.300e+01 -1.300e+01 -1.300e+01 -1.300e+01 -1.300e+01 -1.300e+01 -1.300e+01 -1.300e+01 -1.300e+01 -1.300e+01 -1.300e+01 -1.300e+01 -1.300e+01 -1.300e+01 -1.300e+01 -1.300e+01 -1.300e+01 -1.300e+01 -1.300e+01 -1.300e+01 -1.300e+01 -1.300e+01 -1.300e+01 -1.300e+01 -1.300e+01 -1.300e+01 -1.300e+01 -1.300e+01 -1.300e+01 -1.300e+01 -1.300e+01 -1.300e+01 -1.300e+01 -1.300e+01 -1.300e+01 -1.300e+01 -1.300e+01 -1.300e+01 -1.300e+01 -1.300e+01 -1.300e+01 -1.300e+01 -1.300e+01 -1.300e+01 -1.300e+01 -1.300e+01 -1.300e+01 -1.300e+01 -1.300e+01 -1.300e+01 -1.300e+01 -1.300e+01 -1.300e+01 -1.300e+01 -1.300e+01