<?xml version="1.0"?>
<VTKFile type="UnstructuredGrid" version="0.1" byte_order="LittleEndian">
   <UnstructuredGrid>
      <Piece NumberOfPoints="1570" NumberOfCells="109">
         <Points>
            <DataArray type="Float32" Name="Position" NumberOfComponents="3" format="ascii">
0.017	-4.979	-0.027
0.015	-4.963	-0.014
0.008	-4.957	0.004
-0.003	-4.964	0.021
-0.012	-4.980	0.030
-0.017	-5.001	0.028
-0.015	-5.017	0.014
-0.007	-5.023	-0.004
0.003	-5.016	-0.021
0.012	-5.000	-0.030
0.834	-5.220	0.384
0.834	-5.204	0.397
0.827	-5.197	0.416
0.816	-5.203	0.433
0.805	-5.219	0.442
0.798	-5.238	0.438
0.798	-5.254	0.425
0.804	-5.261	0.406
0.816	-5.255	0.389
0.827	-5.239	0.381
1.406	-5.568	0.684
1.409	-5.553	0.699
1.403	-5.546	0.718
1.391	-5.551	0.735
1.378	-5.565	0.742
1.368	-5.583	0.738
1.365	-5.598	0.724
1.370	-5.604	0.705
1.382	-5.600	0.688
1.396	-5.586	0.680
1.914	-5.964	0.946
1.923	-5.964	0.965
1.920	-5.964	0.985
1.905	-5.964	1.000
1.884	-5.964	1.003
1.866	-5.964	0.994
1.856	-5.964	0.975
1.859	-5.964	0.954
1.874	-5.964	0.940
1.895	-5.964	0.936
-0.012	-4.962	-0.015
0.006	-4.957	-0.007
0.023	-4.965	0.004
0.031	-4.982	0.013
0.027	-5.002	0.017
0.013	-5.018	0.015
-0.006	-5.023	0.007
-0.023	-5.015	-0.004
-0.030	-4.998	-0.013
-0.026	-4.978	-0.017
0.402	-5.217	-0.826
0.421	-5.213	-0.817
0.437	-5.221	-0.805
0.442	-5.238	-0.794
0.436	-5.257	-0.788
0.421	-5.272	-0.790
0.402	-5.275	-0.798
0.387	-5.267	-0.810
0.381	-5.251	-0.821
0.387	-5.231	-0.827
0.727	-5.580	-1.381
0.746	-5.578	-1.371
0.760	-5.587	-1.357
0.762	-5.603	-1.344
0.753	-5.620	-1.336
0.736	-5.632	-1.337
0.717	-5.634	-1.346
0.704	-5.626	-1.360
0.701	-5.610	-1.374
0.710	-5.592	-1.381
1.001	-5.983	-1.866
1.020	-5.981	-1.857
1.033	-5.990	-1.843
1.035	-6.006	-1.829
1.025	-6.022	-1.821
1.007	-6.033	-1.821
0.988	-6.035	-1.831
0.976	-6.026	-1.845
0.974	-6.011	-1.859
0.984	-5.994	-1.867
-0.010	-5.007	0.028
-0.018	-4.987	0.029
-0.018	-4.969	0.019
-0.012	-4.958	0.002
-0.001	-4.960	-0.016
0.011	-4.973	-0.027
0.018	-4.993	-0.029
0.019	-5.011	-0.019
0.012	-5.022	-0.002
0.001	-5.020	0.016
-0.782	-5.277	-0.437
-0.793	-5.260	-0.433
-0.797	-5.241	-0.441
-0.793	-5.228	-0.457
-0.783	-5.226	-0.476
-0.771	-5.236	-0.489
-0.760	-5.254	-0.493
-0.756	-5.273	-0.485
-0.760	-5.286	-0.469
-0.769	-5.287	-0.450
-1.346	-5.614	-0.754
-1.357	-5.597	-0.755
-1.362	-5.580	-0.767
-1.358	-5.571	-0.786
-1.347	-5.573	-0.804
-1.333	-5.585	-0.814
-1.322	-5.602	-0.813
-1.317	-5.619	-0.801
-1.321	-5.628	-0.783
-1.332	-5.626	-0.765
-1.836	-6.002	-1.035
-1.850	-5.993	-1.022
-1.863	-5.977	-1.020
-1.871	-5.960	-1.030
-1.870	-5.948	-1.047
-1.861	-5.947	-1.066
-1.847	-5.956	-1.079
-1.834	-5.972	-1.082
-1.827	-5.989	-1.072
-1.827	-6.001	-1.054
0.022	-5.016	0.003
0.030	-4.999	0.013
0.027	-4.979	0.018
0.013	-4.963	0.016
-0.006	-4.957	0.008
-0.022	-4.964	-0.003
-0.030	-4.981	-0.013
-0.026	-5.001	-0.018
-0.013	-5.017	-0.016
0.006	-5.023	-0.008
-0.407	-5.281	0.798
-0.400	-5.264	0.809
-0.404	-5.245	0.816
-0.418	-5.229	0.815
-0.437	-5.224	0.807
-0.453	-5.231	0.795
-0.460	-5.247	0.784
-0.456	-5.267	0.778
-0.442	-5.282	0.779
-0.423	-5.288	0.786
-0.719	-5.603	1.372
-0.713	-5.588	1.385
-0.718	-5.570	1.394
-0.734	-5.555	1.395
-0.753	-5.550	1.388
-0.769	-5.557	1.375
-0.775	-5.572	1.362
-0.769	-5.591	1.354
-0.754	-5.605	1.353
-0.735	-5.610	1.360
-0.987	-5.963	1.890
-0.981	-5.948	1.904
-0.987	-5.930	1.913
-1.002	-5.916	1.915
-1.022	-5.911	1.908
-1.037	-5.917	1.895
-1.043	-5.932	1.882
-1.037	-5.950	1.873
-1.022	-5.964	1.871
-1.003	-5.969	1.878
-0.149	-5.000	0.148
-0.033	-5.000	0.207
0.095	-5.000	0.187
0.187	-5.000	0.095
0.207	-5.000	-0.033
0.149	-5.000	-0.148
0.033	-5.000	-0.207
-0.095	-5.000	-0.187
-0.187	-5.000	-0.095
-0.207	-5.000	0.033
-0.146	-4.040	0.147
-0.032	-4.040	0.205
0.095	-4.040	0.185
0.186	-4.040	0.094
0.206	-4.040	-0.033
0.147	-4.040	-0.147
0.033	-4.040	-0.205
-0.094	-4.040	-0.185
-0.185	-4.040	-0.094
-0.205	-4.040	0.033
-0.148	-3.560	0.145
-0.034	-3.560	0.203
0.092	-3.559	0.183
0.183	-3.559	0.093
0.202	-3.560	-0.033
0.144	-3.560	-0.147
0.031	-3.560	-0.205
-0.096	-3.561	-0.185
-0.186	-3.561	-0.095
-0.206	-3.560	0.032
-0.148	-3.000	0.143
-0.035	-2.999	0.201
0.091	-2.999	0.182
0.181	-3.000	0.092
0.202	-3.000	-0.034
0.144	-3.001	-0.148
0.031	-3.001	-0.206
-0.095	-3.001	-0.186
-0.186	-3.000	-0.096
-0.206	-3.000	0.030
-0.148	-2.399	0.139
-0.035	-2.399	0.197
0.090	-2.399	0.178
0.180	-2.400	0.088
0.201	-2.400	-0.037
0.143	-2.401	-0.150
0.030	-2.401	-0.208
-0.095	-2.401	-0.189
-0.185	-2.400	-0.099
-0.205	-2.400	0.026
-0.147	-1.799	0.136
-0.034	-1.799	0.194
0.091	-1.800	0.174
0.181	-1.800	0.085
0.201	-1.801	-0.040
0.144	-1.801	-0.153
0.031	-1.801	-0.211
-0.094	-1.800	-0.191
-0.184	-1.800	-0.102
-0.204	-1.799	0.023
-0.144	-1.199	0.135
-0.032	-1.200	0.192
0.093	-1.200	0.173
0.183	-1.201	0.084
0.203	-1.201	-0.041
0.145	-1.201	-0.154
0.033	-1.200	-0.211
-0.092	-1.200	-0.192
-0.181	-1.199	-0.103
-0.201	-1.199	0.022
-0.142	-0.600	0.135
-0.030	-0.600	0.192
0.095	-0.601	0.172
0.184	-0.601	0.083
0.204	-0.600	-0.041
0.147	-0.600	-0.153
0.034	-0.600	-0.211
-0.090	-0.600	-0.191
-0.179	-0.600	-0.102
-0.199	-0.600	0.022
-0.141	-0.000	0.136
-0.028	-0.001	0.193
0.096	-0.001	0.174
0.185	-0.001	0.085
0.204	-0.001	-0.040
0.147	-0.000	-0.152
0.035	0.000	-0.209
-0.089	0.001	-0.189
-0.178	0.001	-0.100
-0.198	0.000	0.024
-0.138	0.560	0.138
-0.026	0.560	0.195
0.098	0.560	0.175
0.187	0.560	0.087
0.207	0.560	-0.037
0.150	0.560	-0.149
0.038	0.560	-0.207
-0.086	0.560	-0.187
-0.175	0.560	-0.098
-0.195	0.560	0.026
-0.138	1.041	0.135
-0.027	1.041	0.192
0.097	1.041	0.173
0.186	1.040	0.084
0.206	1.040	-0.039
0.149	1.039	-0.151
0.038	1.039	-0.209
-0.086	1.039	-0.189
-0.175	1.040	-0.101
-0.195	1.040	0.023
-0.137	1.761	0.131
-0.025	1.761	0.188
0.098	1.760	0.169
0.187	1.760	0.080
0.206	1.760	-0.043
0.150	1.759	-0.154
0.039	1.759	-0.211
-0.085	1.759	-0.192
-0.173	1.760	-0.104
-0.193	1.760	0.019
-0.134	2.576	0.128
-0.024	2.576	0.185
0.098	2.576	0.165
0.186	2.576	0.078
0.205	2.576	-0.044
0.149	2.576	-0.154
0.039	2.576	-0.210
-0.083	2.576	-0.191
-0.170	2.576	-0.104
-0.190	2.576	0.018
-0.012	-5.087	0.009
-0.003	-5.086	0.008
0.005	-5.090	0.009
0.009	-5.097	0.012
0.008	-5.105	0.016
0.002	-5.111	0.019
-0.007	-5.112	0.021
-0.016	-5.108	0.020
-0.020	-5.101	0.017
-0.019	-5.092	0.012
-0.095	-5.464	-0.761
-0.087	-5.462	-0.763
-0.078	-5.465	-0.763
-0.073	-5.473	-0.760
-0.073	-5.481	-0.757
-0.079	-5.488	-0.753
-0.088	-5.489	-0.751
-0.097	-5.486	-0.752
-0.102	-5.479	-0.754
-0.101	-5.470	-0.758
-0.163	-5.607	-1.195
-0.155	-5.605	-1.197
-0.146	-5.608	-1.197
-0.140	-5.615	-1.196
-0.140	-5.624	-1.193
-0.145	-5.631	-1.190
-0.153	-5.633	-1.188
-0.162	-5.630	-1.187
-0.168	-5.623	-1.189
-0.168	-5.614	-1.192
-0.012	-5.206	0.048
-0.017	-5.199	0.049
-0.020	-5.190	0.046
-0.019	-5.184	0.039
-0.015	-5.183	0.031
-0.009	-5.186	0.025
-0.004	-5.194	0.023
-0.001	-5.202	0.026
-0.002	-5.208	0.033
-0.006	-5.210	0.041
-0.659	-5.580	-0.363
-0.665	-5.573	-0.362
-0.668	-5.565	-0.366
-0.666	-5.559	-0.373
-0.662	-5.557	-0.381
-0.655	-5.561	-0.386
-0.650	-5.568	-0.387
-0.647	-5.576	-0.384
-0.648	-5.582	-0.377
-0.653	-5.584	-0.369
-1.073	-5.889	-0.699
-1.079	-5.882	-0.699
-1.081	-5.874	-0.703
-1.080	-5.869	-0.710
-1.074	-5.868	-0.718
-1.067	-5.872	-0.723
-1.062	-5.879	-0.723
-1.059	-5.887	-0.719
-1.061	-5.892	-0.711
-1.066	-5.893	-0.704
-0.015	-6.070	0.190
-0.015	-6.066	0.198
-0.015	-6.068	0.207
-0.015	-6.075	0.213
-0.014	-6.084	0.214
-0.013	-6.092	0.210
-0.012	-6.096	0.201
-0.012	-6.094	0.192
-0.013	-6.087	0.186
-0.014	-6.078	0.185
0.758	-5.984	0.193
0.757	-5.981	0.202
0.757	-5.984	0.211
0.759	-5.991	0.217
0.761	-6.000	0.217
0.763	-6.007	0.211
0.764	-6.010	0.203
0.764	-6.008	0.194
0.762	-6.000	0.188
0.760	-5.991	0.188
0.975	-5.890	0.213
0.974	-5.888	0.222
0.974	-5.892	0.231
0.977	-5.899	0.235
0.981	-5.908	0.234
0.984	-5.914	0.228
0.985	-5.916	0.219
0.985	-5.912	0.211
0.982	-5.904	0.206
0.978	-5.896	0.207
-0.000	-6.189	0.213
0.003	-6.180	0.213
0.001	-6.171	0.215
-0.006	-6.166	0.216
-0.016	-6.165	0.217
-0.023	-6.171	0.218
-0.027	-6.179	0.217
-0.024	-6.188	0.216
-0.017	-6.194	0.214
-0.008	-6.194	0.213
0.093	-6.285	0.980
0.096	-6.277	0.981
0.094	-6.268	0.983
0.087	-6.262	0.984
0.078	-6.261	0.984
0.070	-6.266	0.984
0.066	-6.275	0.982
0.069	-6.284	0.981
0.076	-6.289	0.980
0.085	-6.290	0.979
0.075	-6.337	1.221
0.079	-6.329	1.223
0.077	-6.320	1.225
0.070	-6.314	1.226
0.061	-6.313	1.225
0.053	-6.317	1.224
0.049	-6.326	1.222
0.051	-6.334	1.220
0.058	-6.341	1.219
0.067	-6.342	1.220
-0.009	-6.268	0.220
-0.012	-6.264	0.228
-0.014	-6.265	0.237
-0.014	-6.271	0.243
-0.013	-6.280	0.245
-0.010	-6.289	0.242
-0.008	-6.293	0.234
-0.006	-6.292	0.225
-0.005	-6.285	0.218
-0.006	-6.276	0.216
0.746	-6.120	0.405
0.744	-6.116	0.413
0.743	-6.117	0.422
0.743	-6.124	0.429
0.744	-6.133	0.430
0.746	-6.141	0.426
0.748	-6.145	0.418
0.749	-6.144	0.409
0.749	-6.137	0.403
0.748	-6.128	0.401
0.819	-6.113	0.410
0.818	-6.109	0.418
0.818	-6.111	0.427
0.818	-6.118	0.434
0.819	-6.127	0.435
0.820	-6.135	0.431
0.820	-6.139	0.422
0.821	-6.137	0.413
0.821	-6.131	0.407
0.820	-6.122	0.405
-0.004	-6.389	0.255
-0.006	-6.382	0.260
-0.008	-6.373	0.261
-0.011	-6.366	0.255
-0.011	-6.363	0.247
-0.011	-6.365	0.238
-0.009	-6.372	0.232
-0.006	-6.381	0.232
-0.004	-6.389	0.237
-0.003	-6.392	0.246
-0.778	-6.587	0.264
-0.770	-6.586	0.268
-0.760	-6.587	0.267
-0.754	-6.587	0.260
-0.752	-6.587	0.251
-0.756	-6.587	0.243
-0.764	-6.587	0.239
-0.774	-6.587	0.240
-0.780	-6.587	0.246
-0.782	-6.587	0.256
-0.001	-6.465	0.255
-0.000	-6.460	0.263
-0.000	-6.461	0.273
-0.001	-6.468	0.279
-0.002	-6.477	0.281
-0.003	-6.485	0.277
-0.004	-6.489	0.269
-0.004	-6.488	0.260
-0.003	-6.482	0.253
-0.002	-6.473	0.251
0.758	-6.562	0.240
0.758	-6.557	0.248
0.758	-6.557	0.257
0.756	-6.563	0.264
0.755	-6.572	0.267
0.754	-6.581	0.263
0.754	-6.586	0.255
0.754	-6.585	0.246
0.755	-6.579	0.239
0.757	-6.570	0.237
0.923	-6.588	0.261
0.922	-6.582	0.268
0.921	-6.583	0.278
0.919	-6.588	0.285
0.918	-6.597	0.287
0.917	-6.605	0.284
0.917	-6.611	0.277
0.918	-6.611	0.268
0.920	-6.605	0.260
0.922	-6.596	0.258
[...]
         <CellData>
           <DataArray type="Float32" Name="combinedRootClassID" NumberOfComponents="1" format="ascii">
 -5.000e+00 -5.000e+00 -5.000e+00 -5.000e+00 -5.000e+00 -5.000e+00 -5.000e+00 -5.000e+00 -5.000e+00 -5.000e+00 -5.000e+00 -5.000e+00 -2.000e+00 -2.000e+00 -2.000e+00 -2.000e+00 -2.000e+00 -2.000e+00 -2.000e+00 -2.000e+00 -2.000e+00 -2.000e+00 -2.000e+00 -2.000e+00 -7.000e+00 -7.000e+00 -7.000e+00 -7.000e+00 -7.000e+00 -7.000e+00 -7.000e+00 -7.000e+00 -7.000e+00 -7.000e+00 -7.000e+00 -7.000e+00 -7.000e+00 -7.000e+00 -7.000e+00 -7.000e+00 -7.000e+00 -7.000e+00 -7.000e+00 -7.000e+00 -7.000e+00 -7.000e+00 -7.000e+00 -7.000e+00 -7.000e+00 -7.000e+00 -7.000e+00 -7.000e+00 -7.000e+00 -7.000e+00 -7.000e+00 -7.000e+00 -7.000e+00 -7.000e+00 -7.000e+00 -7.000e+00 -7.000e+00 -7.000e+00 -7.000e+00 -7.000e+00 -7.000e+00 -7.000e+00 -7.000e+00 -7.000e+00 -7.000e+00 -7.000e+00 -7.000e+00 -7.000e+00 -7.000e+00 -7.000e+00 -7.000e+00 -7.000e+00 -7.000e+00 -7.000e+00 -7.000e+00 -9.000e+00 -4.000e+00 -4.000e+00 -4.000e+00 -4.000e+00 -4.000e+00 -4.000e+00 -4.000e+00 -4.000e+00 -4.000e+00 -4.000e+00 -4.000e+00 -4.000e+00 -4.000e+00 -4.000e+00 -4.000e+00 -4.000e+00 -4.000e+00 -4.000e+00 -4.000e+00 -4.000e+00 -4.000e+00 -4.000e+00 -4.000e+00 -4.000e+00 -4.000e+00 -4.000e+00 -4.000e+00 -4.000e+00 -4.000e+00
           </DataArray>
           <DataArray type="Float32" Name="nitrate/minimalNutrientConcentration" NumberOfComponents="1" format="ascii">
 6.000e+02 6.000e+02 6.000e+02 6.000e+02 6.000e+02 6.000e+02 6.000e+02 6.000e+02 6.000e+02 6.000e+02 6.000e+02 6.000e+02 6.000e+02 6.000e+02 6.000e+02 6.000e+02 6.000e+02 6.000e+02 6.000e+02 6.000e+02 6.000e+02 6.000e+02 6.000e+02 6.000e+02 6.000e+02 6.000e+02 6.000e+02 6.000e+02 6.000e+02 6.000e+02 6.000e+02 6.000e+02 6.000e+02 6.000e+02 6.000e+02 6.000e+02 6.000e+02 6.000e+02 6.000e+02 6.000e+02 6.000e+02 6.000e+02 6.000e+02 6.000e+02 6.000e+02 6.000e+02 6.000e+02 6.000e+02 6.000e+02 6.000e+02 6.000e+02 6.000e+02 6.000e+02 6.000e+02 6.000e+02 6.000e+02 6.000e+02 6.000e+02 6.000e+02 6.000e+02 6.000e+02 6.000e+02 6.000e+02 6.000e+02 6.000e+02 6.000e+02 6.000e+02 6.000e+02 6.000e+02 6.000e+02 6.000e+02 6.000e+02 6.000e+02 6.000e+02 6.000e+02 6.000e+02 6.000e+02 6.000e+02 6.000e+02 6.000e+02 6.000e+02 6.000e+02 6.000e+02 6.000e+02 6.000e+02 6.000e+02 6.000e+02 6.000e+02 6.000e+02 6.000e+02 6.000e+02 6.000e+02 6.000e+02 6.000e+02 6.000e+02 6.000e+02 6.000e+02 6.000e+02 6.000e+02 6.000e+02 6.000e+02 6.000e+02 6.000e+02 6.000e+02 6.000e+02 6.000e+02 6.000e+02 6.000e+02 6.000e+02
           </DataArray>
           <DataArray type="Float32" Name="nitrate/optimalNutrientConcentration" NumberOfComponents="1" format="ascii">
 1.200e+03 1.200e+03 1.200e+03 1.200e+03 1.200e+03 1.200e+03 1.200e+03 1.200e+03 1.200e+03 1.200e+03 1.200e+03 1.200e+03 1.200e+03 1.200e+03 1.200e+03 1.200e+03 1.200e+03 1.200e+03 1.200e+03 1.200e+03 1.200e+03 1.200e+03 1.200e+03 1.200e+03 1.200e+03 1.200e+03 1.200e+03 1.200e+03 1.200e+03 1.200e+03 1.200e+03 1.200e+03 1.200e+03 1.200e+03 1.200e+03 1.200e+03 1.200e+03 1.200e+03 1.200e+03 1.200e+03 1.200e+03 1.200e+03 1.200e+03 1.200e+03 1.200e+03 1.200e+03 1.200e+03 1.200e+03 1.200e+03 1.200e+03 1.200e+03 1.200e+03 1.200e+03 1.200e+03 1.200e+03 1.200e+03 1.200e+03 1.200e+03 1.200e+03 1.200e+03 1.200e+03 1.200e+03 1.200e+03 1.200e+03 1.200e+03 1.200e+03 1.200e+03 1.200e+03 1.200e+03 1.200e+03 1.200e+03 1.200e+03 1.200e+03 1.200e+03 1.200e+03 1.200e+03 1.200e+03 1.200e+03 1.200e+03 1.200e+03 1.200e+03 1.200e+03 1.200e+03 1.200e+03 1.200e+03 1.200e+03 1.200e+03 1.200e+03 1.200e+03 1.200e+03 1.200e+03 1.200e+03 1.200e+03 1.200e+03 1.200e+03 1.200e+03 1.200e+03 1.200e+03 1.200e+03 1.200e+03 1.200e+03 1.200e+03 1.200e+03 1.200e+03 1.200e+03 1.200e+03 1.200e+03 1.200e+03 1.200e+03
           </DataArray>
           <DataArray type="Float32" Name="nitrate/radiusDepletionZone" NumberOfComponents="1" format="ascii">
 3.400e-02 3.400e-02 4.433e-01 3.400e-02 3.400e-02 4.433e-01 3.400e-02 3.400e-02 3.824e-01 3.400e-02 3.400e-02 3.991e-01 2.532e+00 2.684e+00 1.703e+01 1.362e+01 1.135e+01 9.724e+00 8.023e+00 7.130e+00 6.416e+00 2.025e-01 2.022e-01 2.017e-01 1.501e-02 1.500e-02 1.501e-02 1.500e-02 1.500e-02 1.500e-02 1.500e-02 1.500e-02 1.500e-02 1.500e-02 1.500e-02 1.500e-02 1.500e-02 1.500e-02 1.500e-02 1.500e-02 1.500e-02 1.500e-02 1.500e-02 1.500e-02 1.500e-02 1.500e-02 1.500e-02 1.500e-02 1.500e-02 1.500e-02 1.500e-02 1.500e-02 1.500e-02 1.500e-02 1.500e-02 1.500e-02 1.500e-02 1.500e-02 1.500e-02 1.500e-02 1.500e-02 1.500e-02 1.500e-02 1.500e-02 1.500e-02 1.500e-02 1.500e-02 1.500e-02 1.500e-02 1.500e-02 1.500e-02 1.500e-02 1.500e-02 1.500e-02 1.500e-02 1.500e-02 1.500e-02 1.500e-02 1.500e-02 1.500e-02 1.986e+00 3.198e+01 1.855e+01 1.391e+01 1.035e+01 8.626e+00 6.839e+00 5.983e+00 5.318e+00 4.398e+00 3.998e+00 3.342e+00 3.084e+00 2.864e+00 2.415e+00 2.263e+00 1.902e+00 1.796e+00 1.498e+00 1.423e+00 1.355e+00 1.117e+00 1.069e+00 8.629e-01 8.283e-01 6.475e-01 6.235e-01 4.630e-01 3.135e-01
           </DataArray>
           <DataArray type="Float32" Name="nitrate/rootSegmentMinimalNutrientContent" NumberOfComponents="1" format="ascii">
 1.941e-01 1.502e-01 1.406e-01 1.941e-01 1.502e-01 1.406e-01 1.941e-01 1.502e-01 1.406e-01 1.941e-01 1.502e-01 1.406e-01 7.418e+00 3.665e+00 4.245e+00 4.517e+00 4.488e+00 4.462e+00 4.439e+00 4.419e+00 4.109e+00 3.510e+00 5.249e+00 5.850e+00 3.467e-02 1.864e-02 3.442e-02 2.475e-02 3.173e-02 9.602e-03 3.140e-02 9.930e-03 3.253e-02 2.940e-03 3.165e-02 3.069e-02 6.661e-03 3.192e-02 3.098e-02 3.311e-02 2.856e-02 3.138e-02 3.316e-02 7.472e-03 2.223e-02 2.614e-02 2.487e-02 2.113e-02 2.232e-02 1.952e-02 1.871e-02 1.495e-02 1.665e-02 1.540e-02 3.329e-02 2.021e-02 1.234e-02 1.343e-02 9.897e-03 9.773e-03 8.627e-03 7.775e-03 6.071e-03 4.242e-03 3.234e-03 1.791e-03 3.186e-02 1.112e-02 5.826e-04 3.531e-02 5.416e-03 3.102e-02 1.614e-02 2.951e-02 1.606e-02 3.266e-02 5.552e-03 3.121e-02 1.337e-02 1.538e-02 4.302e-01 2.071e-01 2.033e-01 1.998e-01 1.965e-01 1.934e-01 1.907e-01 1.883e-01 1.862e-01 1.845e-01 1.830e-01 1.815e-01 1.802e-01 1.789e-01 1.777e-01 1.766e-01 1.756e-01 1.746e-01 1.737e-01 1.729e-01 1.722e-01 1.716e-01 1.710e-01 1.705e-01 1.701e-01 1.697e-01 1.695e-01 1.693e-01 1.692e-01
           </DataArray>
           <DataArray type="Float32" Name="nitrate/rootSegmentNutrientUptake" NumberOfComponents="1" format="ascii">
 0.000e+00 0.000e+00 3.551e-02 0.000e+00 0.000e+00 3.551e-02 0.000e+00 0.000e+00 3.620e-02 0.000e+00 0.000e+00 3.611e-02 4.028e+00 4.197e+00 2.364e+00 2.499e+00 2.467e+00 2.421e+00 2.383e+00 2.334e+00 2.131e+00 0.000e+00 0.000e+00 0.000e+00 0.000e+00 0.000e+00 0.000e+00 0.000e+00 0.000e+00 0.000e+00 0.000e+00 0.000e+00 0.000e+00 0.000e+00 0.000e+00 0.000e+00 0.000e+00 0.000e+00 0.000e+00 0.000e+00 0.000e+00 0.000e+00 0.000e+00 0.000e+00 0.000e+00 0.000e+00 0.000e+00 0.000e+00 0.000e+00 0.000e+00 0.000e+00 0.000e+00 0.000e+00 0.000e+00 0.000e+00 0.000e+00 0.000e+00 0.000e+00 0.000e+00 0.000e+00 0.000e+00 0.000e+00 0.000e+00 0.000e+00 0.000e+00 0.000e+00 0.000e+00 0.000e+00 0.000e+00 0.000e+00 0.000e+00 0.000e+00 0.000e+00 0.000e+00 0.000e+00 0.000e+00 0.000e+00 0.000e+00 0.000e+00 0.000e+00 2.492e+00 1.060e+00 1.224e+00 1.198e+00 1.167e+00 1.132e+00 1.093e+00 1.050e+00 1.006e+00 9.600e-01 9.130e-01 8.653e-01 8.169e-01 7.682e-01 7.192e-01 6.699e-01 6.205e-01 5.709e-01 5.211e-01 4.713e-01 4.213e-01 3.712e-01 3.210e-01 2.708e-01 2.206e-01 1.703e-01 1.201e-01 6.989e-02 1.995e-02
           </DataArray>
           <DataArray type="Float32" Name="nitrate/rootSegmentOptimalNutrientContent" NumberOfComponents="1" format="ascii">
 3.882e-01 3.003e-01 2.812e-01 3.882e-01 3.003e-01 2.812e-01 3.882e-01 3.003e-01 2.812e-01 3.882e-01 3.003e-01 2.812e-01 1.484e+01 7.331e+00 8.490e+00 9.034e+00 8.976e+00 8.924e+00 8.878e+00 8.839e+00 8.218e+00 7.021e+00 1.050e+01 1.170e+01 6.935e-02 3.728e-02 6.885e-02 4.951e-02 6.345e-02 1.920e-02 6.281e-02 1.986e-02 6.507e-02 5.881e-03 6.331e-02 6.137e-02 1.332e-02 6.384e-02 6.196e-02 6.622e-02 5.713e-02 6.276e-02 6.632e-02 1.494e-02 4.446e-02 5.228e-02 4.973e-02 4.226e-02 4.464e-02 3.903e-02 3.741e-02 2.990e-02 3.331e-02 3.081e-02 6.658e-02 4.041e-02 2.467e-02 2.685e-02 1.979e-02 1.955e-02 1.725e-02 1.555e-02 1.214e-02 8.483e-03 6.467e-03 3.582e-03 6.372e-02 2.224e-02 1.165e-03 7.062e-02 1.083e-02 6.204e-02 3.228e-02 5.901e-02 3.212e-02 6.531e-02 1.110e-02 6.243e-02 2.675e-02 3.075e-02 8.605e-01 4.141e-01 4.067e-01 3.996e-01 3.929e-01 3.868e-01 3.814e-01 3.766e-01 3.725e-01 3.690e-01 3.660e-01 3.631e-01 3.604e-01 3.578e-01 3.554e-01 3.532e-01 3.511e-01 3.492e-01 3.474e-01 3.458e-01 3.444e-01 3.431e-01 3.420e-01 3.410e-01 3.402e-01 3.395e-01 3.390e-01 3.386e-01 3.384e-01
           </DataArray>
           <DataArray type="Float32" Name="parentRootClassID" NumberOfComponents="1" format="ascii">
 -2.000e+00 -2.000e+00 -2.000e+00 -2.000e+00 -2.000e+00 -2.000e+00 -2.000e+00 -2.000e+00 -2.000e+00 -2.000e+00 -2.000e+00 -2.000e+00 -3.000e+00 -3.000e+00 -3.000e+00 -3.000e+00 -3.000e+00 -3.000e+00 -3.000e+00 -3.000e+00 -3.000e+00 -3.000e+00 -3.000e+00 -3.000e+00 -4.000e+00 -4.000e+00 -4.000e+00 -4.000e+00 -4.000e+00 -4.000e+00 -4.000e+00 -4.000e+00 -4.000e+00 -4.000e+00 -4.000e+00 -4.000e+00 -4.000e+00 -4.000e+00 -4.000e+00 -4.000e+00 -4.000e+00 -4.000e+00 -4.000e+00 -4.000e+00 -4.000e+00 -4.000e+00 -4.000e+00 -4.000e+00 -4.000e+00 -4.000e+00 -4.000e+00 -4.000e+00 -4.000e+00 -4.000e+00 -4.000e+00 -4.000e+00 -4.000e+00 -4.000e+00 -4.000e+00 -4.000e+00 -4.000e+00 -4.000e+00 -4.000e+00 -4.000e+00 -4.000e+00 -4.000e+00 -4.000e+00 -4.000e+00 -4.000e+00 -4.000e+00 -4.000e+00 -4.000e+00 -4.000e+00 -4.000e+00 -4.000e+00 -4.000e+00 -4.000e+00 -4.000e+00 -4.000e+00 -4.000e+00 -3.000e+00 -3.000e+00 -3.000e+00 -3.000e+00 -3.000e+00 -3.000e+00 -3.000e+00 -3.000e+00 -3.000e+00 -3.000e+00 -3.000e+00 -3.000e+00 -3.000e+00 -3.000e+00 -3.000e+00 -3.000e+00 -3.000e+00 -3.000e+00 -3.000e+00 -3.000e+00 -3.000e+00 -3.000e+00 -3.000e+00 -3.000e+00 -3.000e+00 -3.000e+00 -3.000e+00 -3.000e+00 -3.000e+00
           </DataArray>
           <DataArray type="Float32" Name="plantID" NumberOfComponents="1" format="ascii">
 7.000e+00 7.000e+00 7.000e+00 7.000e+00 7.000e+00 7.000e+00 7.000e+00 7.000e+00 7.000e+00 7.000e+00 7.000e+00 7.000e+00 7.000e+00 7.000e+00 7.000e+00 7.000e+00 7.000e+00 7.000e+00 7.000e+00 7.000e+00 7.000e+00 7.000e+00 7.000e+00 7.000e+00 7.000e+00 7.000e+00 7.000e+00 7.000e+00 7.000e+00 7.000e+00 7.000e+00 7.000e+00 7.000e+00 7.000e+00 7.000e+00 7.000e+00 7.000e+00 7.000e+00 7.000e+00 7.000e+00 7.000e+00 7.000e+00 7.000e+00 7.000e+00 7.000e+00 7.000e+00 7.000e+00 7.000e+00 7.000e+00 7.000e+00 7.000e+00 7.000e+00 7.000e+00 7.000e+00 7.000e+00 7.000e+00 7.000e+00 7.000e+00 7.000e+00 7.000e+00 7.000e+00 7.000e+00 7.000e+00 7.000e+00 7.000e+00 7.000e+00 7.000e+00 7.000e+00 7.000e+00 7.000e+00 7.000e+00 7.000e+00 7.000e+00 7.000e+00 7.000e+00 7.000e+00 7.000e+00 7.000e+00 7.000e+00 7.000e+00 7.000e+00 7.000e+00 7.000e+00 7.000e+00 7.000e+00 7.000e+00 7.000e+00 7.000e+00 7.000e+00 7.000e+00 7.000e+00 7.000e+00 7.000e+00 7.000e+00 7.000e+00 7.000e+00 7.000e+00 7.000e+00 7.000e+00 7.000e+00 7.000e+00 7.000e+00 7.000e+00 7.000e+00 7.000e+00 7.000e+00 7.000e+00 7.000e+00 7.000e+00
           </DataArray>
           <DataArray type="Float32" Name="plantTypeID" NumberOfComponents="1" format="ascii">
 0.000e+00 0.000e+00 0.000e+00 0.000e+00 0.000e+00 0.000e+00 0.000e+00 0.000e+00 0.000e+00 0.000e+00 0.000e+00 0.000e+00 0.000e+00 0.000e+00 0.000e+00 0.000e+00 0.000e+00 0.000e+00 0.000e+00 0.000e+00 0.000e+00 0.000e+00 0.000e+00 0.000e+00 0.000e+00 0.000e+00 0.000e+00 0.000e+00 0.000e+00 0.000e+00 0.000e+00 0.000e+00 0.000e+00 0.000e+00 0.000e+00 0.000e+00 0.000e+00 0.000e+00 0.000e+00 0.000e+00 0.000e+00 0.000e+00 0.000e+00 0.000e+00 0.000e+00 0.000e+00 0.000e+00 0.000e+00 0.000e+00 0.000e+00 0.000e+00 0.000e+00 0.000e+00 0.000e+00 0.000e+00 0.000e+00 0.000e+00 0.000e+00 0.000e+00 0.000e+00 0.000e+00 0.000e+00 0.000e+00 0.000e+00 0.000e+00 0.000e+00 0.000e+00 0.000e+00 0.000e+00 0.000e+00 0.000e+00 0.000e+00 0.000e+00 0.000e+00 0.000e+00 0.000e+00 0.000e+00 0.000e+00 0.000e+00 0.000e+00 0.000e+00 0.000e+00 0.000e+00 0.000e+00 0.000e+00 0.000e+00 0.000e+00 0.000e+00 0.000e+00 0.000e+00 0.000e+00 0.000e+00 0.000e+00 0.000e+00 0.000e+00 0.000e+00 0.000e+00 0.000e+00 0.000e+00 0.000e+00 0.000e+00 0.000e+00 0.000e+00 0.000e+00 0.000e+00 0.000e+00 0.000e+00 0.000e+00 0.000e+00
           </DataArray>
           <DataArray type="Float32" Name="rootCircumference" NumberOfComponents="1" format="ascii">
 2.136e-01 2.136e-01 2.136e-01 2.136e-01 2.136e-01 2.136e-01 2.136e-01 2.136e-01 2.136e-01 2.136e-01 2.136e-01 2.136e-01 1.320e+00 1.304e+00 1.300e+00 1.295e+00 1.291e+00 1.287e+00 1.284e+00 1.281e+00 1.279e+00 1.276e+00 1.274e+00 1.271e+00 9.431e-02 9.425e-02 9.430e-02 9.426e-02 9.428e-02 9.425e-02 9.428e-02 9.425e-02 9.428e-02 9.425e-02 9.427e-02 9.427e-02 9.425e-02 9.427e-02 9.427e-02 9.427e-02 9.427e-02 9.426e-02 9.430e-02 9.425e-02 9.426e-02 9.426e-02 9.426e-02 9.426e-02 9.426e-02 9.426e-02 9.426e-02 9.425e-02 9.425e-02 9.425e-02 9.430e-02 9.425e-02 9.425e-02 9.425e-02 9.425e-02 9.425e-02 9.425e-02 9.425e-02 9.425e-02 9.425e-02 9.425e-02 9.425e-02 9.429e-02 9.425e-02 9.425e-02 9.429e-02 9.425e-02 9.429e-02 9.425e-02 9.429e-02 9.425e-02 9.428e-02 9.425e-02 9.428e-02 9.425e-02 9.425e-02 3.189e-01 3.128e-01 3.100e-01 3.073e-01 3.047e-01 3.023e-01 3.002e-01 2.983e-01 2.967e-01 2.953e-01 2.941e-01 2.929e-01 2.918e-01 2.908e-01 2.898e-01 2.889e-01 2.881e-01 2.873e-01 2.865e-01 2.859e-01 2.853e-01 2.848e-01 2.843e-01 2.839e-01 2.835e-01 2.832e-01 2.830e-01 2.829e-01 2.828e-01
           </DataArray>
           <DataArray type="Float32" Name="rootClassID" NumberOfComponents="1" format="ascii">
 9.900e+01 9.900e+01 9.900e+01 9.900e+01 9.900e+01 9.900e+01 9.900e+01 9.900e+01 9.900e+01 9.900e+01 9.900e+01 9.900e+01 -2.000e+00 -2.000e+00 -2.000e+00 -2.000e+00 -2.000e+00 -2.000e+00 -2.000e+00 -2.000e+00 -2.000e+00 -2.000e+00 -2.000e+00 -2.000e+00 9.700e+01 9.700e+01 9.700e+01 9.700e+01 9.700e+01 9.700e+01 9.700e+01 9.700e+01 9.700e+01 9.700e+01 9.700e+01 9.700e+01 9.700e+01 9.700e+01 9.700e+01 9.700e+01 9.700e+01 9.700e+01 9.700e+01 9.700e+01 9.700e+01 9.700e+01 9.700e+01 9.700e+01 9.700e+01 9.700e+01 9.700e+01 9.700e+01 9.700e+01 9.700e+01 9.700e+01 9.700e+01 9.700e+01 9.700e+01 9.700e+01 9.700e+01 9.700e+01 9.700e+01 9.700e+01 9.700e+01 9.700e+01 9.700e+01 9.700e+01 9.700e+01 9.700e+01 9.700e+01 9.700e+01 9.700e+01 9.700e+01 9.700e+01 9.700e+01 9.700e+01 9.700e+01 9.700e+01 9.700e+01 9.700e+01 -4.000e+00 -4.000e+00 -4.000e+00 -4.000e+00 -4.000e+00 -4.000e+00 -4.000e+00 -4.000e+00 -4.000e+00 -4.000e+00 -4.000e+00 -4.000e+00 -4.000e+00 -4.000e+00 -4.000e+00 -4.000e+00 -4.000e+00 -4.000e+00 -4.000e+00 -4.000e+00 -4.000e+00 -4.000e+00 -4.000e+00 -4.000e+00 -4.000e+00 -4.000e+00 -4.000e+00 -4.000e+00 -4.000e+00
           </DataArray>
           <DataArray type="Float32" Name="rootDiameter" NumberOfComponents="1" format="ascii">
 6.800e-02 6.800e-02 6.800e-02 6.800e-02 6.800e-02 6.800e-02 6.800e-02 6.800e-02 6.800e-02 6.800e-02 6.800e-02 6.800e-02 4.201e-01 4.152e-01 4.137e-01 4.123e-01 4.109e-01 4.097e-01 4.087e-01 4.078e-01 4.070e-01 4.063e-01 4.057e-01 4.045e-01 3.002e-02 3.000e-02 3.002e-02 3.000e-02 3.001e-02 3.000e-02 3.001e-02 3.000e-02 3.001e-02 3.000e-02 3.001e-02 3.001e-02 3.000e-02 3.001e-02 3.001e-02 3.001e-02 3.001e-02 3.001e-02 3.002e-02 3.000e-02 3.000e-02 3.000e-02 3.000e-02 3.000e-02 3.000e-02 3.000e-02 3.000e-02 3.000e-02 3.000e-02 3.000e-02 3.002e-02 3.000e-02 3.000e-02 3.000e-02 3.000e-02 3.000e-02 3.000e-02 3.000e-02 3.000e-02 3.000e-02 3.000e-02 3.000e-02 3.001e-02 3.000e-02 3.000e-02 3.001e-02 3.000e-02 3.001e-02 3.000e-02 3.001e-02 3.000e-02 3.001e-02 3.000e-02 3.001e-02 3.000e-02 3.000e-02 1.015e-01 9.958e-02 9.868e-02 9.782e-02 9.700e-02 9.624e-02 9.556e-02 9.496e-02 9.444e-02 9.400e-02 9.361e-02 9.324e-02 9.289e-02 9.256e-02 9.225e-02 9.196e-02 9.169e-02 9.144e-02 9.121e-02 9.100e-02 9.081e-02 9.064e-02 9.049e-02 9.036e-02 9.025e-02 9.016e-02 9.009e-02 9.004e-02 9.001e-02
           </DataArray>
           <DataArray type="Float32" Name="rootLength2Base" NumberOfComponents="1" format="ascii">
 0.000e+00 9.477e-01 1.681e+00 0.000e+00 9.477e-01 1.681e+00 0.000e+00 9.477e-01 1.681e+00 0.000e+00 9.477e-01 1.681e+00 0.000e+00 9.600e-01 1.440e+00 2.000e+00 2.600e+00 3.200e+00 3.800e+00 4.400e+00 5.000e+00 5.560e+00 6.040e+00 6.760e+00 0.000e+00 8.687e-01 0.000e+00 8.624e-01 0.000e+00 7.953e-01 0.000e+00 7.872e-01 0.000e+00 8.156e-01 0.000e+00 0.000e+00 7.693e-01 0.000e+00 0.000e+00 0.000e+00 0.000e+00 0.000e+00 0.000e+00 8.309e-01 0.000e+00 0.000e+00 0.000e+00 0.000e+00 0.000e+00 0.000e+00 0.000e+00 0.000e+00 0.000e+00 0.000e+00 0.000e+00 8.341e-01 0.000e+00 0.000e+00 0.000e+00 0.000e+00 0.000e+00 0.000e+00 0.000e+00 0.000e+00 0.000e+00 0.000e+00 0.000e+00 7.983e-01 0.000e+00 0.000e+00 8.848e-01 0.000e+00 7.774e-01 0.000e+00 7.395e-01 0.000e+00 8.185e-01 0.000e+00 7.824e-01 0.000e+00 0.000e+00 9.428e-01 1.414e+00 1.886e+00 2.357e+00 2.828e+00 3.300e+00 3.771e+00 4.243e+00 4.714e+00 5.185e+00 5.657e+00 6.128e+00 6.600e+00 7.071e+00 7.542e+00 8.014e+00 8.485e+00 8.957e+00 9.428e+00 9.899e+00 1.037e+01 1.084e+01 1.131e+01 1.179e+01 1.226e+01 1.273e+01 1.320e+01 1.367e+01
           </DataArray>
           <DataArray type="Float32" Name="rootPotentialSecondaryGrowth" NumberOfComponents="1" format="ascii">
 6.800e-02 6.800e-02 6.800e-02 6.800e-02 6.800e-02 6.800e-02 6.800e-02 6.800e-02 6.800e-02 6.800e-02 6.800e-02 6.800e-02 4.201e-01 4.152e-01 4.137e-01 4.123e-01 4.109e-01 4.097e-01 4.087e-01 4.078e-01 4.070e-01 4.063e-01 4.057e-01 4.045e-01 3.002e-02 3.000e-02 3.002e-02 3.000e-02 3.001e-02 3.000e-02 3.001e-02 3.000e-02 3.001e-02 3.000e-02 3.001e-02 3.001e-02 3.000e-02 3.001e-02 3.001e-02 3.001e-02 3.001e-02 3.001e-02 3.002e-02 3.000e-02 3.000e-02 3.000e-02 3.000e-02 3.000e-02 3.000e-02 3.000e-02 3.000e-02 3.000e-02 3.000e-02 3.000e-02 3.002e-02 3.000e-02 3.000e-02 3.000e-02 3.000e-02 3.000e-02 3.000e-02 3.000e-02 3.000e-02 3.000e-02 3.000e-02 3.000e-02 3.001e-02 3.000e-02 3.000e-02 3.001e-02 3.000e-02 3.001e-02 3.000e-02 3.001e-02 3.000e-02 3.001e-02 3.000e-02 3.001e-02 3.000e-02 3.000e-02 1.015e-01 9.958e-02 9.868e-02 9.782e-02 9.700e-02 9.624e-02 9.556e-02 9.496e-02 9.444e-02 9.400e-02 9.361e-02 9.324e-02 9.289e-02 9.256e-02 9.225e-02 9.196e-02 9.169e-02 9.144e-02 9.121e-02 9.100e-02 9.081e-02 9.064e-02 9.049e-02 9.036e-02 9.025e-02 9.016e-02 9.009e-02 9.004e-02 9.001e-02
           </DataArray>
           <DataArray type="Float32" Name="rootSegmentAge" NumberOfComponents="1" format="ascii">
 1.833e+00 7.000e-01 3.000e-01 1.833e+00 7.000e-01 3.000e-01 1.833e+00 7.000e-01 3.000e-01 1.833e+00 7.000e-01 3.000e-01 6.000e+00 5.400e+00 5.200e+00 5.000e+00 4.800e+00 4.600e+00 4.400e+00 4.200e+00 4.000e+00 3.800e+00 3.600e+00 3.200e+00 1.715e+00 6.000e-01 1.672e+00 7.000e-01 1.291e+00 3.000e-01 1.248e+00 3.000e-01 1.206e+00 1.000e-01 1.163e+00 1.121e+00 2.000e-01 1.078e+00 1.036e+00 9.936e-01 9.512e-01 9.088e-01 1.630e+00 3.000e-01 8.664e-01 8.239e-01 7.815e-01 7.391e-01 6.966e-01 6.542e-01 6.118e-01 5.694e-01 5.269e-01 4.845e-01 1.588e+00 6.000e-01 4.421e-01 3.997e-01 3.572e-01 3.148e-01 2.724e-01 2.300e-01 1.875e-01 1.451e-01 1.027e-01 6.025e-02 1.545e+00 4.000e-01 1.782e-02 1.503e+00 2.000e-01 1.460e+00 5.000e-01 1.418e+00 5.000e-01 1.375e+00 2.000e-01 1.333e+00 4.000e-01 3.293e-01 6.000e+00 5.600e+00 5.400e+00 5.200e+00 5.000e+00 4.800e+00 4.600e+00 4.400e+00 4.200e+00 4.000e+00 3.800e+00 3.600e+00 3.400e+00 3.200e+00 3.000e+00 2.800e+00 2.600e+00 2.400e+00 2.200e+00 2.000e+00 1.800e+00 1.600e+00 1.400e+00 1.200e+00 1.000e+00 8.000e-01 6.000e-01 4.000e-01 2.000e-01
           </DataArray>
           <DataArray type="Float32" Name="rootSegmentDryWeight" NumberOfComponents="1" format="ascii">