<?xml version="1.0"?>
<VTKFile type="UnstructuredGrid" version="0.1" byte_order="LittleEndian">
   <UnstructuredGrid>
      <Piece NumberOfPoints="46260" NumberOfCells="3354">
         <Points>
            <DataArray type="Float32" Name="Position" NumberOfComponents="3" format="ascii">
0.125	-4.999	0.063
0.132	-4.996	0.069
0.138	-4.999	0.075
0.142	-5.006	0.079
0.142	-5.016	0.079
0.138	-5.023	0.075
0.131	-5.026	0.070
0.124	-5.023	0.064
0.121	-5.015	0.060
0.121	-5.006	0.060
0.668	-5.022	-0.532
0.675	-5.019	-0.526
0.681	-5.022	-0.520
0.684	-5.030	-0.515
0.683	-5.039	-0.515
0.679	-5.046	-0.518
0.672	-5.049	-0.524
0.666	-5.046	-0.530
0.663	-5.039	-0.535
0.664	-5.029	-0.535
1.285	-5.172	-1.102
1.292	-5.169	-1.096
1.297	-5.172	-1.089
1.299	-5.179	-1.084
1.298	-5.188	-1.082
1.293	-5.196	-1.086
1.287	-5.198	-1.092
1.282	-5.196	-1.099
1.279	-5.188	-1.104
1.281	-5.179	-1.105
1.948	-5.352	-1.609
1.953	-5.349	-1.602
1.958	-5.352	-1.595
1.960	-5.359	-1.589
1.959	-5.369	-1.589
1.955	-5.376	-1.592
1.950	-5.379	-1.600
1.945	-5.376	-1.607
1.943	-5.369	-1.612
1.944	-5.360	-1.613
2.704	-5.424	-2.057
2.708	-5.421	-2.050
2.712	-5.423	-2.042
2.714	-5.430	-2.036
2.713	-5.440	-2.035
2.710	-5.447	-2.040
2.706	-5.450	-2.047
2.702	-5.448	-2.055
2.700	-5.440	-2.061
2.701	-5.431	-2.061
2.854	-5.447	-2.126
2.858	-5.444	-2.118
2.861	-5.446	-2.110
2.863	-5.453	-2.104
2.862	-5.463	-2.103
2.858	-5.470	-2.107
2.854	-5.473	-2.115
2.851	-5.471	-2.123
2.850	-5.464	-2.129
2.851	-5.455	-2.130
0.257	-5.026	0.130
0.263	-5.023	0.137
0.269	-5.026	0.143
0.272	-5.034	0.148
0.272	-5.043	0.148
0.268	-5.051	0.144
0.262	-5.053	0.137
0.256	-5.050	0.131
0.253	-5.043	0.126
0.253	-5.034	0.126
0.883	-5.045	-0.438
0.889	-5.042	-0.431
0.895	-5.045	-0.425
0.898	-5.052	-0.421
0.898	-5.062	-0.421
0.894	-5.069	-0.424
0.888	-5.072	-0.431
0.882	-5.069	-0.437
0.878	-5.061	-0.441
0.879	-5.052	-0.441
1.489	-5.069	-1.030
1.495	-5.066	-1.024
1.502	-5.069	-1.018
1.506	-5.077	-1.014
1.506	-5.086	-1.014
1.501	-5.094	-1.018
1.495	-5.096	-1.023
1.488	-5.093	-1.029
1.484	-5.086	-1.033
1.484	-5.077	-1.033
2.012	-5.085	-1.711
2.018	-5.082	-1.705
2.025	-5.085	-1.699
2.029	-5.093	-1.695
2.028	-5.102	-1.695
2.024	-5.110	-1.699
2.017	-5.112	-1.704
2.011	-5.109	-1.710
2.007	-5.102	-1.714
2.007	-5.093	-1.714
2.078	-5.088	-1.775
2.084	-5.085	-1.769
2.090	-5.088	-1.762
2.094	-5.096	-1.758
2.094	-5.105	-1.758
2.090	-5.112	-1.762
2.083	-5.115	-1.768
2.077	-5.112	-1.775
2.074	-5.105	-1.779
2.074	-5.095	-1.779
1.374	-5.559	0.688
1.378	-5.559	0.696
1.377	-5.560	0.705
1.371	-5.560	0.712
1.362	-5.561	0.714
1.353	-5.560	0.710
1.349	-5.560	0.702
1.350	-5.559	0.692
1.356	-5.559	0.686
1.365	-5.558	0.684
1.375	-6.377	0.627
1.380	-6.378	0.634
1.379	-6.380	0.643
1.374	-6.381	0.650
1.365	-6.381	0.653
1.356	-6.381	0.649
1.351	-6.379	0.642
1.352	-6.378	0.633
1.357	-6.377	0.625
1.366	-6.376	0.623
1.353	-7.179	0.404
1.358	-7.183	0.410
1.359	-7.187	0.419
1.353	-7.189	0.426
1.345	-7.189	0.429
1.336	-7.187	0.427
1.330	-7.183	0.421
1.330	-7.179	0.412
1.335	-7.177	0.405
1.344	-7.177	0.402
1.197	-7.661	0.124
1.203	-7.666	0.129
1.203	-7.670	0.137
1.199	-7.673	0.145
1.190	-7.673	0.149
1.182	-7.670	0.148
1.176	-7.665	0.143
1.175	-7.660	0.135
1.180	-7.657	0.128
1.188	-7.658	0.124
8.480	-16.475	3.093
8.483	-16.467	3.097
8.481	-16.459	3.099
8.475	-16.452	3.099
8.466	-16.450	3.097
8.458	-16.454	3.093
8.455	-16.461	3.089
8.457	-16.470	3.087
8.463	-16.477	3.087
8.472	-16.479	3.089
8.222	-16.734	3.838
8.225	-16.726	3.841
8.224	-16.718	3.843
8.217	-16.711	3.844
8.208	-16.710	3.842
8.200	-16.713	3.839
8.197	-16.721	3.835
8.198	-16.730	3.833
8.205	-16.736	3.832
8.214	-16.738	3.834
8.200	-16.768	3.951
8.204	-16.760	3.954
8.202	-16.752	3.956
8.195	-16.745	3.957
8.186	-16.744	3.956
8.178	-16.748	3.953
8.174	-16.756	3.950
8.176	-16.765	3.947
8.183	-16.771	3.947
8.192	-16.772	3.948
8.516	-16.619	3.120
8.512	-16.614	3.126
8.507	-16.606	3.128
8.503	-16.599	3.123
8.503	-16.594	3.115
8.506	-16.595	3.106
8.511	-16.600	3.100
8.516	-16.607	3.099
8.519	-16.615	3.103
8.519	-16.619	3.111
7.773	-17.062	2.904
7.769	-17.057	2.910
7.765	-17.049	2.911
7.761	-17.041	2.907
7.761	-17.037	2.898
7.763	-17.038	2.890
7.767	-17.043	2.883
7.772	-17.051	2.882
7.775	-17.059	2.886
7.776	-17.063	2.895
7.654	-17.121	2.888
7.651	-17.115	2.895
7.647	-17.107	2.896
7.643	-17.099	2.891
7.643	-17.095	2.883
7.644	-17.096	2.874
7.648	-17.102	2.868
7.652	-17.110	2.866
7.655	-17.118	2.871
7.656	-17.122	2.879
8.564	-16.760	3.134
8.568	-16.752	3.137
8.566	-16.743	3.138
8.560	-16.737	3.138
8.551	-16.735	3.136
8.543	-16.739	3.133
8.539	-16.747	3.130
8.540	-16.756	3.129
8.547	-16.762	3.129
8.556	-16.764	3.131
8.369	-16.914	3.863
8.373	-16.906	3.866
8.372	-16.897	3.868
8.366	-16.890	3.867
8.357	-16.889	3.865
8.349	-16.892	3.862
8.345	-16.900	3.860
8.346	-16.909	3.858
8.353	-16.916	3.858
8.361	-16.918	3.860
8.605	-16.903	3.155
8.608	-16.896	3.159
8.607	-16.887	3.162
8.601	-16.880	3.161
8.592	-16.878	3.158
8.585	-16.881	3.153
8.582	-16.888	3.148
8.583	-16.897	3.146
8.589	-16.904	3.147
8.598	-16.906	3.150
8.227	-17.167	3.897
8.230	-17.160	3.902
8.228	-17.151	3.905
8.222	-17.145	3.905
8.213	-17.143	3.902
8.206	-17.146	3.897
8.203	-17.153	3.892
8.205	-17.162	3.889
8.211	-17.168	3.889
8.220	-17.170	3.892
8.206	-17.195	3.949
8.209	-17.188	3.954
8.207	-17.180	3.958
8.200	-17.174	3.959
8.191	-17.172	3.956
8.184	-17.175	3.951
8.181	-17.182	3.946
8.183	-17.191	3.943
8.190	-17.197	3.942
8.199	-17.199	3.945
8.632	-17.023	3.167
8.640	-17.020	3.171
8.647	-17.024	3.177
8.650	-17.031	3.182
8.647	-17.040	3.184
8.641	-17.047	3.182
8.633	-17.049	3.178
8.627	-17.046	3.172
8.624	-17.038	3.167
8.626	-17.029	3.165
9.081	-17.291	2.481
9.089	-17.289	2.485
9.095	-17.292	2.491
9.098	-17.300	2.496
9.096	-17.309	2.497
9.090	-17.316	2.496
9.083	-17.318	2.491
9.076	-17.315	2.485
9.073	-17.307	2.481
9.075	-17.298	2.479
9.118	-17.307	2.430
9.126	-17.304	2.435
9.132	-17.307	2.441
9.135	-17.315	2.445
9.134	-17.324	2.447
9.128	-17.331	2.445
9.121	-17.333	2.440
9.114	-17.330	2.434
9.111	-17.323	2.430
9.113	-17.314	2.428
8.687	-17.189	3.198
8.692	-17.181	3.201
8.691	-17.172	3.202
8.685	-17.165	3.200
8.677	-17.162	3.197
8.670	-17.165	3.192
8.666	-17.173	3.189
8.666	-17.182	3.188
8.672	-17.190	3.190
8.680	-17.192	3.194
8.326	-17.290	3.893
8.330	-17.282	3.896
8.330	-17.273	3.897
8.324	-17.266	3.895
8.316	-17.263	3.891
8.309	-17.266	3.887
8.304	-17.274	3.884
8.305	-17.283	3.883
8.311	-17.290	3.884
8.319	-17.293	3.888
8.715	-17.308	3.209
8.723	-17.305	3.214
8.729	-17.308	3.219
8.733	-17.316	3.223
8.731	-17.325	3.225
8.726	-17.332	3.223
8.718	-17.335	3.218
8.712	-17.331	3.212
8.708	-17.324	3.208
8.710	-17.315	3.207
9.185	-17.468	2.554
9.193	-17.466	2.559
9.199	-17.469	2.565
9.202	-17.476	2.569
9.201	-17.485	2.571
9.195	-17.492	2.569
9.187	-17.495	2.564
9.181	-17.492	2.558
9.178	-17.484	2.554
9.179	-17.475	2.552
9.267	-17.513	2.445
9.275	-17.511	2.450
9.281	-17.514	2.456
9.284	-17.521	2.460
9.281	-17.530	2.462
9.275	-17.537	2.461
9.268	-17.539	2.456
9.261	-17.536	2.450
9.259	-17.528	2.445
9.261	-17.520	2.443
8.761	-17.472	3.248
8.755	-17.465	3.249
8.753	-17.456	3.246
8.754	-17.450	3.239
8.758	-17.449	3.231
8.764	-17.453	3.225
8.769	-17.460	3.223
8.772	-17.468	3.226
8.771	-17.474	3.233
8.766	-17.476	3.241
8.148	-17.810	2.871
8.143	-17.802	2.873
8.140	-17.794	2.870
8.141	-17.788	2.863
8.146	-17.787	2.854
8.151	-17.790	2.848
8.157	-17.798	2.846
8.159	-17.806	2.850
8.158	-17.812	2.857
8.154	-17.814	2.865
8.810	-17.599	3.242
8.808	-17.593	3.248
8.804	-17.591	3.256
8.800	-17.594	3.264
8.798	-17.602	3.268
8.797	-17.612	3.266
8.799	-17.618	3.261
8.803	-17.620	3.252
8.807	-17.617	3.245
8.809	-17.609	3.241
9.547	-17.682	3.572
9.545	-17.675	3.578
9.541	-17.673	3.586
9.538	-17.677	3.594
9.535	-17.685	3.597
9.535	-17.694	3.596
9.536	-17.701	3.590
9.540	-17.703	3.582
9.544	-17.699	3.574
9.546	-17.691	3.570
8.854	-17.760	3.271
8.859	-17.752	3.273
8.857	-17.743	3.273
8.851	-17.736	3.273
8.842	-17.734	3.271
8.834	-17.738	3.268
8.830	-17.746	3.266
8.831	-17.755	3.265
8.837	-17.762	3.266
8.846	-17.764	3.268
8.661	-17.852	4.049
8.665	-17.844	4.051
8.664	-17.835	4.052
8.658	-17.828	4.051
8.649	-17.826	4.049
8.641	-17.830	4.047
8.637	-17.838	4.045
8.638	-17.847	4.044
8.644	-17.854	4.045
8.653	-17.856	4.047
1.468	-5.630	0.751
1.475	-5.627	0.757
1.481	-5.630	0.763
1.485	-5.637	0.767
1.485	-5.647	0.767
1.480	-5.654	0.764
1.474	-5.657	0.758
1.467	-5.654	0.752
1.464	-5.646	0.748
1.464	-5.637	0.748
2.063	-5.656	0.107
2.069	-5.654	0.112
2.076	-5.657	0.118
2.080	-5.664	0.122
2.080	-5.673	0.122
2.075	-5.681	0.119
2.068	-5.684	0.113
2.062	-5.681	0.107
2.058	-5.673	0.104
2.058	-5.664	0.103
2.541	-5.699	-0.529
2.549	-5.697	-0.524
2.556	-5.700	-0.519
2.560	-5.707	-0.516
2.560	-5.716	-0.515
2.555	-5.724	-0.518
2.548	-5.727	-0.523
2.540	-5.724	-0.528
2.536	-5.716	-0.531
2.537	-5.707	-0.532
2.940	-5.757	-1.216
2.948	-5.754	-1.212
2.955	-5.757	-1.207
2.960	-5.764	-1.204
2.959	-5.774	-1.204
2.954	-5.781	-1.206
2.946	-5.784	-1.210
2.939	-5.781	-1.214
2.934	-5.773	-1.218
2.935	-5.764	-1.218
3.250	-5.819	-1.816
3.258	-5.819	-1.811
3.267	-5.819	-1.813
3.274	-5.819	-1.819
3.275	-5.819	-1.828
3.271	-5.819	-1.837
3.263	-5.819	-1.841
3.253	-5.819	-1.839
3.247	-5.819	-1.833
3.245	-5.819	-1.824
8.889	-17.884	3.273
8.887	-17.879	3.280
8.884	-17.878	3.288
8.882	-17.883	3.296
8.881	-17.892	3.299
8.881	-17.901	3.296
8.883	-17.907	3.289
8.886	-17.907	3.281
8.888	-17.902	3.273
8.889	-17.893	3.270
9.418	-17.901	3.425
9.416	-17.895	3.432
9.413	-17.895	3.440
9.411	-17.900	3.448
9.410	-17.908	3.451
9.410	-17.917	3.448
9.412	-17.923	3.441
9.415	-17.924	3.433
9.417	-17.919	3.425
9.418	-17.910	3.422
8.930	-18.029	3.287
8.929	-18.022	3.294
8.926	-18.022	3.303
8.923	-18.026	3.310
8.921	-18.035	3.314
8.921	-18.044	3.312
8.923	-18.050	3.305
8.926	-18.051	3.296
8.929	-18.046	3.289
8.930	-18.038	3.285
9.772	-18.096	3.569
9.770	-18.089	3.576
9.767	-18.088	3.584
9.764	-18.093	3.592
9.762	-18.102	3.595
9.762	-18.111	3.593
9.764	-18.117	3.587
9.767	-18.118	3.578
9.770	-18.113	3.570
[...]
         <CellData>
           <DataArray type="Float32" Name="combinedRootClassID" NumberOfComponents="1" format="ascii">
 -1.300e+01 -1.300e+01 -1.300e+01 -1.300e+01 -1.300e+01 -1.300e+01 -1.300e+01 -1.300e+01 -1.300e+01 -1.300e+01 -1.300e+01 -1.300e+01 -1.300e+01 -1.300e+01 -1.300e+01 -1.300e+01 -1.300e+01 -1.300e+01 -1.300e+01 -1.300e+01 -1.300e+01 -1.300e+01 -1.300e+01 -1.300e+01 -1.300e+01 -1.300e+01 -1.300e+01 -1.300e+01 -1.300e+01 -1.300e+01 -1.300e+01 -1.300e+01 -1.300e+01 -1.300e+01 -1.300e+01 -1.300e+01 -1.300e+01 -1.300e+01 -1.300e+01 -1.300e+01 -1.300e+01 -1.300e+01 -1.300e+01 -1.300e+01 -1.300e+01 -1.300e+01 -1.300e+01 -1.300e+01 -1.300e+01 -1.300e+01 -1.300e+01 -1.300e+01 -1.300e+01 -1.300e+01 -1.300e+01 -1.300e+01 -1.300e+01 -1.300e+01 -1.300e+01 -1.300e+01 -1.300e+01 -1.300e+01 -1.300e+01 -1.300e+01 -1.300e+01 -1.300e+01 -1.300e+01 -1.300e+01 -1.300e+01 -1.300e+01 -1.300e+01 -1.300e+01 -1.300e+01 -1.300e+01 -1.300e+01 -1.300e+01 -1.300e+01 -1.300e+01 -1.300e+01 -1.300e+01 -1.300e+01 -1.300e+01 -1.300e+01 -1.300e+01 -1.300e+01 -1.300e+01 -1.300e+01 -1.300e+01 -1.300e+01 -1.300e+01 -1.300e+01 -1.300e+01 -1.300e+01 -1.300e+01 -1.300e+01 -1.300e+01 -1.300e+01 -1.300e+01 -1.300e+01 -1.300e+01 -1.300e+01 -1.300e+01 -1.300e+01 -1.300e+01 -1.300e+01 -1.300e+01 -1.300e+01 -1.300e+01 -1.300e+01 -1.300e+01 -1.300e+01 -1.300e+01 -1.300e+01 -1.300e+01 -1.300e+01 -1.300e+01 -1.300e+01 -1.300e+01 -1.300e+01 -1.300e+01 -1.300e+01 -1.300e+01 -1.300e+01 -1.300e+01 -1.300e+01 -1.300e+01 -1.300e+01 -1.300e+01 -1.300e+01 -1.300e+01 -1.300e+01 -1.300e+01 -1.300e+01 -1.300e+01 -1.300e+01 -1.300e+01 -1.300e+01 -1.300e+01 -1.300e+01 -1.300e+01 -1.300e+01 -1.300e+01 -1.300e+01 -1.300e+01 -1.300e+01 -1.300e+01 -1.300e+01 -1.300e+01 -1.300e+01 -1.300e+01 -1.300e+01 -1.300e+01 -1.300e+01 -1.300e+01 -1.300e+01 -1.300e+01 -1.300e+01 -1.300e+01 -1.300e+01 -1.300e+01 -1.300e+01 -1.300e+01 -1.300e+01 -1.300e+01 -1.300e+01 -1.300e+01 -1.300e+01 -1.300e+01 -1.300e+01 -1.300e+01 -1.300e+01 -1.300e+01 -1.300e+01 -1.300e+01 -1.300e+01 -1.300e+01 -1.300e+01 -1.300e+01 -1.300e+01 -1.300e+01 -1.300e+01 -1.300e+01 -1.300e+01 -1.300e+01 -1.300e+01 -1.300e+01 -1.300e+01 -1.300e+01 -1.300e+01 -1.300e+01 -1.300e+01 -1.300e+01 -1.300e+01 -1.300e+01 -1.300e+01 -1.300e+01 -1.300e+01 -1.300e+01 -1.300e+01 -1.300e+01 -1.300e+01 -1.300e+01 -1.300e+01 -1.300e+01 -1.300e+01 -1.300e+01 -1.300e+01 -1.300e+01 -1.300e+01 -1.300e+01 -1.300e+01 -1.300e+01 -1.300e+01 -1.300e+01 -1.300e+01 -1.300e+01 -1.300e+01 -1.300e+01 -1.300e+01 -1.300e+01 -1.300e+01 -1.300e+01 -1.300e+01 -1.300e+01 -1.300e+01 -1.300e+01 -1.300e+01 -1.300e+01 -1.300e+01 -1.300e+01 -1.300e+01 -1.300e+01 -1.300e+01 -1.300e+01 -1.300e+01 -1.300e+01 -1.300e+01 -1.300e+01 -1.300e+01 -1.300e+01 -1.300e+01 -1.300e+01 -1.300e+01 -1.300e+01 -1.300e+01 -1.300e+01 -1.300e+01 -1.300e+01 -1.300e+01 -1.300e+01 -1.300e+01 -1.300e+01 -1.300e+01 -1.300e+01 -1.300e+01 -1.300e+01 -1.300e+01 -1.300e+01 -1.300e+01 -1.300e+01 -1.300e+01 -1.300e+01 -1.300e+01 -1.300e+01 -1.300e+01 -1.300e+01 -1.300e+01 -1.300e+01 -1.300e+01 -1.300e+01 -1.300e+01 -1.300e+01 -1.300e+01 -1.300e+01 -1.300e+01 -1.300e+01 -1.300e+01 -1.300e+01 -1.300e+01 -1.300e+01 -1.300e+01 -1.300e+01 -1.300e+01 -1.300e+01 -1.300e+01 -1.300e+01 -1.300e+01 -1.300e+01 -1.300e+01 -1.300e+01 -1.300e+01 -1.300e+01 -1.300e+01 -1.300e+01 -1.300e+01 -1.300e+01 -1.300e+01 -1.300e+01 -1.300e+01 -1.300e+01 -1.300e+01 -1.300e+01 -1.300e+01 -1.300e+01 -1.300e+01 -1.300e+01 -1.300e+01 -1.300e+01 -1.300e+01 -1.300e+01 -1.300e+01 -1.300e+01 -1.300e+01 -1.300e+01 -1.300e+01 -1.300e+01 -1.300e+01 -1.300e+01 -1.300e+01 -1.300e+01 -1.300e+01 -1.300e+01 -1.300e+01 -1.300e+01 -1.300e+01 -1.300e+01 -1.300e+01 -1.300e+01 -1.300e+01 -1.300e+01 -1.300e+01 -1.300e+01 -1.300e+01 -1.300e+01 -1.300e+01 -1.300e+01 -1.300e+01 -1.300e+01 -1.300e+01 -1.300e+01 -1.300e+01 -1.300e+01 -1.300e+01 -1.300e+01 -1.300e+01 -1.300e+01 -1.300e+01 -1.300e+01 -5.000e+00 -5.000e+00 -5.000e+00 -5.000e+00 -5.000e+00 -5.000e+00 -5.000e+00 -5.000e+00 -5.000e+00 -5.000e+00 -5.000e+00 -5.000e+00 -5.000e+00 -5.000e+00 -5.000e+00 -5.000e+00 -5.000e+00 -5.000e+00 -5.000e+00 -5.000e+00 -5.000e+00 -5.000e+00 -5.000e+00 -5.000e+00 -5.000e+00 -5.000e+00 -5.000e+00 -5.000e+00 -5.000e+00 -5.000e+00 -5.000e+00 -5.000e+00 -5.000e+00 -5.000e+00 -5.000e+00 -5.000e+00 -5.000e+00 -5.000e+00 -1.300e+01 -1.300e+01 -1.300e+01 -1.300e+01 -1.300e+01 -1.300e+01 -1.300e+01 -1.300e+01 -1.300e+01 -1.300e+01 -1.300e+01 -1.300e+01 -1.300e+01 -1.300e+01 -1.300e+01 -1.300e+01 -1.300e+01 -1.300e+01 -1.300e+01 -1.300e+01 -1.300e+01 -1.300e+01 -1.300e+01 -1.300e+01 -1.300e+01 -1.300e+01 -1.300e+01 -1.300e+01 -1.300e+01 -1.300e+01 -1.300e+01 -1.300e+01 -1.300e+01 -1.300e+01 -1.300e+01 -1.300e+01 -1.300e+01 -1.300e+01 -1.300e+01 -1.300e+01 -1.300e+01 -1.300e+01 -1.300e+01 -1.300e+01 -1.300e+01 -1.300e+01 -1.300e+01 -1.300e+01 -1.300e+01 -1.300e+01 -1.300e+01 -1.300e+01 -1.300e+01 -1.300e+01 -1.300e+01 -1.300e+01 -1.300e+01 -1.300e+01 -1.300e+01 -1.300e+01 -1.300e+01 -1.300e+01 -1.300e+01 -1.300e+01 -1.300e+01 -1.300e+01 -1.300e+01 -1.300e+01 -1.300e+01 -1.300e+01 -1.300e+01 -1.300e+01 -1.300e+01 -1.300e+01 -1.300e+01 -1.300e+01 -1.300e+01 -1.300e+01 -1.300e+01 -1.300e+01 -1.300e+01 -1.300e+01 -1.300e+01 -1.300e+01 -1.300e+01 -1.300e+01 -1.300e+01 -1.300e+01 -1.300e+01 -1.300e+01 -1.300e+01 -1.300e+01 -1.300e+01 -1.300e+01 -1.300e+01 -1.300e+01 -1.300e+01 -1.300e+01 -1.300e+01 -1.300e+01 -1.300e+01 -1.300e+01 -1.300e+01 -1.300e+01 -1.300e+01 -1.300e+01 -1.300e+01 -1.300e+01 -1.300e+01 -1.300e+01 -1.300e+01 -1.300e+01 -1.300e+01 -1.300e+01 -1.300e+01 -1.300e+01 -1.300e+01 -1.300e+01 -1.300e+01 -1.300e+01 -1.300e+01 -1.300e+01 -1.300e+01 -1.300e+01 -1.300e+01 -1.300e+01 -1.300e+01 -1.300e+01 -1.300e+01 -1.300e+01 -1.300e+01 -1.300e+01 -1.300e+01 -1.300e+01 -1.300e+01 -1.300e+01 -1.300e+01 -1.300e+01 -1.300e+01 -1.300e+01 -1.300e+01 -1.300e+01 -1.300e+01 -1.300e+01 -1.300e+01 -1.300e+01 -1.300e+01 -1.300e+01 -1.300e+01 -1.300e+01 -1.300e+01 -1.300e+01 -1.300e+01 -1.300e+01 -1.300e+01 -1.300e+01 -1.300e+01 -1.300e+01 -1.300e+01 -1.300e+01 -1.300e+01 -1.300e+01 -1.300e+01 -1.300e+01 -1.300e+01 -1.300e+01 -1.300e+01 -1.300e+01 -1.300e+01 -1.300e+01 -1.300e+01 -1.300e+01 -1.300e+01 -1.300e+01 -1.300e+01 -1.300e+01 -1.300e+01 -1.300e+01 -1.300e+01 -1.300e+01 -1.300e+01 -1.300e+01 -1.300e+01 -1.300e+01 -1.300e+01 -1.300e+01 -1.300e+01 -1.300e+01 -1.300e+01 -1.300e+01 -1.300e+01 -1.300e+01 -1.300e+01 -1.300e+01 -1.300e+01 -1.300e+01 -1.300e+01 -1.300e+01 -1.300e+01 -1.300e+01 -1.300e+01 -1.300e+01 -1.300e+01 -1.300e+01 -1.300e+01 -1.300e+01 -1.300e+01 -1.300e+01 -1.300e+01 -1.300e+01 -1.300e+01 -1.300e+01 -1.300e+01 -1.300e+01 -1.300e+01 -1.300e+01 -1.300e+01 -1.300e+01 -1.300e+01 -1.300e+01 -1.300e+01 -1.300e+01 -1.300e+01 -1.300e+01 -1.300e+01 -1.300e+01 -1.300e+01 -1.300e+01 -1.300e+01 -1.300e+01 -1.300e+01 -1.300e+01 -1.300e+01 -1.300e+01 -1.300e+01 -1.300e+01 -1.300e+01 -1.300e+01 -1.300e+01 -1.300e+01 -1.300e+01 -1.300e+01 -1.300e+01 -1.300e+01 -1.300e+01 -1.300e+01 -1.300e+01 -1.300e+01 -1.300e+01 -1.300e+01 -1.300e+01 -1.300e+01 -1.300e+01 -1.300e+01 -1.300e+01 -1.300e+01 -1.300e+01 -1.300e+01 -1.300e+01 -1.300e+01 -1.300e+01 -1.300e+01 -1.300e+01 -1.300e+01 -1.300e+01 -1.300e+01 -1.300e+01 -1.300e+01 -1.300e+01 -1.300e+01 -1.300e+01 -1.300e+01 -1.300e+01 -1.300e+01 -1.300e+01 -1.300e+01 -1.300e+01 -1.300e+01 -1.300e+01 -1.300e+01 -1.300e+01 -1.300e+01 -1.300e+01 -1.300e+01 -1.300e+01 -1.300e+01 -1.300e+01 -1.300e+01 -1.300e+01 -1.300e+01 -1.300e+01 -1.300e+01 -1.300e+01 -1.300e+01 -1.300e+01 -1.300e+01 -1.300e+01 -1.300e+01 -1.300e+01 -1.300e+01 -1.300e+01 -1.300e+01 -1.300e+01 -1.300e+01 -1.300e+01 -1.300e+01 -1.300e+01 -1.300e+01 -1.300e+01 -1.300e+01 -1.300e+01 -1.300e+01 -1.300e+01 -1.300e+01 -1.300e+01 -1.300e+01 -1.300e+01 -1.300e+01 -1.300e+01 -1.300e+01 -1.300e+01 -1.300e+01 -1.300e+01 -1.300e+01 -1.300e+01 -1.300e+01 -1.300e+01 -1.300e+01 -1.300e+01 -1.300e+01 -1.300e+01 -1.300e+01 -1.300e+01 -1.300e+01 -1.300e+01 -1.300e+01 -1.300e+01 -1.300e+01 -1.300e+01 -1.300e+01 -1.300e+01 -1.300e+01 -1.300e+01 -1.300e+01 -1.300e+01 -1.300e+01 -1.300e+01 -5.000e+00 -5.000e+00 -5.000e+00 -5.000e+00 -5.000e+00 -5.000e+00 -5.000e+00 -5.000e+00 -5.000e+00 -5.000e+00 -5.000e+00 -5.000e+00 -5.000e+00 -5.000e+00 -5.000e+00 -5.000e+00 -5.000e+00 -5.000e+00 -5.000e+00 -5.000e+00 -5.000e+00 -5.000e+00 -5.000e+00 -5.000e+00 -5.000e+00 -5.000e+00 -5.000e+00 -5.000e+00 -5.000e+00 -5.000e+00 -5.000e+00 -5.000e+00 -5.000e+00 -5.000e+00 -5.000e+00 -5.000e+00 -5.000e+00 -5.000e+00 -1.300e+01 -1.300e+01 -1.300e+01 -1.300e+01 -1.300e+01 -1.300e+01 -1.300e+01 -1.300e+01 -1.300e+01 -1.300e+01 -1.300e+01 -1.300e+01 -1.300e+01 -1.300e+01 -1.300e+01 -1.300e+01 -1.300e+01 -1.300e+01 -1.300e+01 -1.300e+01 -1.300e+01 -1.300e+01 -1.300e+01 -1.300e+01 -1.300e+01 -1.300e+01 -1.300e+01 -1.300e+01 -1.300e+01 -1.300e+01 -1.300e+01 -1.300e+01 -1.300e+01 -1.300e+01 -1.300e+01 -1.300e+01 -1.300e+01 -1.300e+01 -1.300e+01 -1.300e+01 -1.300e+01 -1.300e+01 -1.300e+01 -1.300e+01 -1.300e+01 -1.300e+01 -1.300e+01 -1.300e+01 -1.300e+01 -1.300e+01 -1.300e+01 -1.300e+01 -1.300e+01 -1.300e+01 -1.300e+01 -1.300e+01 -1.300e+01 -1.300e+01 -1.300e+01 -1.300e+01 -1.300e+01 -1.300e+01 -1.300e+01 -1.300e+01 -1.300e+01 -1.300e+01 -1.300e+01 -1.300e+01 -1.300e+01 -1.300e+01 -1.300e+01 -1.300e+01 -1.300e+01 -1.300e+01 -1.300e+01 -1.300e+01 -1.300e+01 -1.300e+01 -1.300e+01 -1.300e+01 -1.300e+01 -1.300e+01 -1.300e+01 -1.300e+01 -1.300e+01 -1.300e+01 -1.300e+01 -1.300e+01 -1.300e+01 -1.300e+01 -1.300e+01 -1.300e+01 -1.300e+01 -1.300e+01 -1.300e+01 -1.300e+01 -1.300e+01 -1.300e+01 -1.300e+01 -1.300e+01 -1.300e+01 -1.300e+01 -1.300e+01 -1.300e+01 -1.300e+01 -1.300e+01 -1.300e+01 -1.300e+01 -1.300e+01 -1.300e+01 -1.300e+01 -1.300e+01 -1.300e+01 -1.300e+01 -1.300e+01 -1.300e+01 -1.300e+01 -1.300e+01 -1.300e+01 -1.300e+01 -1.300e+01 -1.300e+01 -1.300e+01 -1.300e+01 -1.300e+01 -1.300e+01 -1.300e+01 -1.300e+01 -1.300e+01 -1.300e+01 -1.300e+01 -1.300e+01 -1.300e+01 -1.300e+01 -1.300e+01 -1.300e+01 -1.300e+01 -1.300e+01 -1.300e+01 -1.300e+01 -1.300e+01 -1.300e+01 -1.300e+01 -1.300e+01 -1.300e+01 -1.300e+01 -1.300e+01 -1.300e+01 -1.300e+01 -1.300e+01 -1.300e+01 -1.300e+01 -1.300e+01 -1.300e+01 -1.300e+01 -1.300e+01 -1.300e+01 -1.300e+01 -1.300e+01 -1.300e+01 -1.300e+01 -1.300e+01 -1.300e+01 -1.300e+01 -1.300e+01 -1.300e+01 -1.300e+01 -1.300e+01 -1.300e+01 -1.300e+01 -1.300e+01 -1.300e+01 -1.300e+01 -1.300e+01 -1.300e+01 -1.300e+01 -1.300e+01 -1.300e+01 -1.300e+01 -1.300e+01 -1.300e+01 -1.300e+01 -1.300e+01 -1.300e+01 -1.300e+01 -1.300e+01 -1.300e+01 -1.300e+01 -1.300e+01 -1.300e+01 -1.300e+01 -1.300e+01 -1.300e+01 -1.300e+01 -1.300e+01 -1.300e+01 -1.300e+01 -1.300e+01 -1.300e+01 -1.300e+01 -1.300e+01 -1.300e+01 -1.300e+01 -1.300e+01 -1.300e+01 -1.300e+01 -1.300e+01 -1.300e+01 -1.300e+01 -1.300e+01 -1.300e+01 -1.300e+01 -1.300e+01 -1.300e+01 -1.300e+01 -1.300e+01 -1.300e+01 -1.300e+01 -1.300e+01 -1.300e+01 -1.300e+01 -1.300e+01 -1.300e+01 -1.300e+01 -1.300e+01 -1.300e+01 -1.300e+01 -1.300e+01 -1.300e+01 -1.300e+01 -1.300e+01 -1.300e+01 -1.300e+01 -1.300e+01 -1.300e+01 -1.300e+01 -1.300e+01 -1.300e+01 -1.300e+01 -1.300e+01 -1.300e+01 -1.300e+01 -1.300e+01 -1.300e+01 -1.300e+01 -1.300e+01 -1.300e+01 -1.300e+01 -1.300e+01 -1.300e+01 -1.300e+01 -1.300e+01 -1.300e+01 -1.300e+01 -1.300e+01 -1.300e+01 -1.300e+01 -1.300e+01 -1.300e+01 -1.300e+01 -1.300e+01 -1.300e+01 -1.300e+01 -1.300e+01 -1.300e+01 -1.300e+01 -1.300e+01 -1.300e+01 -1.300e+01 -1.300e+01 -1.300e+01 -1.300e+01 -1.300e+01 -1.300e+01 -1.300e+01 -1.300e+01 -1.300e+01 -1.300e+01 -1.300e+01 -1.300e+01 -1.300e+01 -1.300e+01 -1.300e+01 -1.300e+01 -1.300e+01 -1.300e+01 -1.300e+01 -1.300e+01 -1.300e+01 -1.300e+01 -1.300e+01 -1.300e+01 -1.300e+01 -1.300e+01 -1.300e+01 -1.300e+01 -1.300e+01 -1.300e+01 -1.300e+01 -1.300e+01 -1.300e+01 -1.300e+01 -1.300e+01 -1.300e+01 -1.300e+01 -1.300e+01 -1.300e+01 -1.300e+01 -1.300e+01 -1.300e+01 -1.300e+01 -1.300e+01 -1.300e+01 -1.300e+01 -1.300e+01 -1.300e+01 -1.300e+01 -1.300e+01 -1.300e+01 -1.300e+01 -1.300e+01 -1.300e+01 -1.300e+01 -1.300e+01 -1.300e+01 -1.300e+01 -1.300e+01 -1.300e+01 -1.300e+01 -1.300e+01 -1.300e+01 -1.300e+01 -1.300e+01 -1.300e+01 -1.300e+01 -1.300e+01 -1.300e+01 -1.300e+01 -1.300e+01 -1.300e+01 -1.300e+01 -1.300e+01 -1.300e+01 -1.300e+01 -1.300e+01 -1.300e+01 -1.300e+01 -1.300e+01 -1.300e+01 -5.000e+00 -5.000e+00 -5.000e+00 -5.000e+00 -5.000e+00 -5.000e+00 -5.000e+00 -5.000e+00 -5.000e+00 -5.000e+00 -5.000e+00 -5.000e+00 -5.000e+00 -5.000e+00 -5.000e+00 -5.000e+00 -5.000e+00 -5.000e+00 -5.000e+00 -5.000e+00 -5.000e+00 -5.000e+00 -5.000e+00 -5.000e+00 -5.000e+00 -5.000e+00 -5.000e+00 -5.000e+00 -5.000e+00 -5.000e+00 -5.000e+00 -5.000e+00 -5.000e+00 -5.000e+00 -5.000e+00 -5.000e+00 -5.000e+00 -5.000e+00 -1.300e+01 -1.300e+01 -1.300e+01 -1.300e+01 -1.300e+01 -1.300e+01 -1.300e+01 -1.300e+01 -1.300e+01 -1.300e+01 -1.300e+01 -1.300e+01 -1.300e+01 -1.300e+01 -1.300e+01 -1.300e+01 -1.300e+01 -1.300e+01 -1.300e+01 -1.300e+01 -1.300e+01 -1.300e+01 -1.300e+01 -1.300e+01 -1.300e+01 -1.300e+01 -1.300e+01 -1.300e+01 -1.300e+01 -1.300e+01 -1.300e+01 -1.300e+01 -1.300e+01 -1.300e+01 -1.300e+01 -1.300e+01 -1.300e+01 -1.300e+01 -1.300e+01 -1.300e+01 -1.300e+01 -1.300e+01 -1.300e+01 -1.300e+01 -1.300e+01 -1.300e+01 -1.300e+01 -1.300e+01 -1.300e+01 -1.300e+01 -1.300e+01 -1.300e+01 -1.300e+01 -1.300e+01 -1.300e+01 -1.300e+01 -1.300e+01 -1.300e+01 -1.300e+01 -1.300e+01 -1.300e+01 -1.300e+01 -1.300e+01 -1.300e+01 -1.300e+01 -1.300e+01 -1.300e+01 -1.300e+01 -1.300e+01 -1.300e+01 -1.300e+01 -1.300e+01 -1.300e+01 -1.300e+01 -1.300e+01 -1.300e+01 -1.300e+01 -1.300e+01 -1.300e+01 -1.300e+01 -1.300e+01 -1.300e+01 -1.300e+01 -1.300e+01 -1.300e+01 -1.300e+01 -1.300e+01 -1.300e+01 -1.300e+01 -1.300e+01 -1.300e+01 -1.300e+01 -1.300e+01 -1.300e+01 -1.300e+01 -1.300e+01 -1.300e+01 -1.300e+01 -1.300e+01 -1.300e+01 -1.300e+01 -1.300e+01 -1.300e+01 -1.300e+01 -1.300e+01 -1.300e+01 -1.300e+01 -1.300e+01 -1.300e+01 -1.300e+01 -1.300e+01 -1.300e+01 -1.300e+01 -1.300e+01 -1.300e+01 -1.300e+01 -1.300e+01 -1.300e+01 -1.300e+01 -1.300e+01 -1.300e+01 -1.300e+01 -1.300e+01 -1.300e+01 -1.300e+01 -1.300e+01 -1.300e+01 -1.300e+01 -1.300e+01 -1.300e+01 -1.300e+01 -1.300e+01 -1.300e+01 -1.300e+01 -1.300e+01 -1.300e+01 -1.300e+01 -1.300e+01 -1.300e+01 -1.300e+01 -1.300e+01 -1.300e+01 -1.300e+01 -1.300e+01 -1.300e+01 -1.300e+01 -1.300e+01 -1.300e+01 -1.300e+01 -1.300e+01 -1.300e+01 -1.300e+01 -1.300e+01 -1.300e+01 -1.300e+01 -1.300e+01 -1.300e+01 -1.300e+01 -1.300e+01 -1.300e+01 -1.300e+01 -1.300e+01 -1.300e+01 -1.300e+01 -1.300e+01 -1.300e+01 -1.300e+01 -1.300e+01 -1.300e+01 -1.300e+01 -1.300e+01 -1.300e+01 -1.300e+01 -1.300e+01 -1.300e+01 -1.300e+01 -1.300e+01 -1.300e+01 -1.300e+01 -1.300e+01 -1.300e+01 -1.300e+01 -1.300e+01 -1.300e+01 -1.300e+01 -1.300e+01 -1.300e+01 -1.300e+01 -1.300e+01 -1.300e+01 -1.300e+01 -1.300e+01 -1.300e+01 -1.300e+01 -1.300e+01 -1.300e+01 -1.300e+01 -1.300e+01 -1.300e+01 -1.300e+01 -1.300e+01 -1.300e+01 -1.300e+01 -1.300e+01 -1.300e+01 -1.300e+01 -1.300e+01 -1.300e+01 -1.300e+01 -1.300e+01 -1.300e+01 -1.300e+01 -1.300e+01 -1.300e+01 -1.300e+01 -1.300e+01 -1.300e+01 -1.300e+01 -1.300e+01 -1.300e+01 -1.300e+01 -1.300e+01 -1.300e+01 -1.300e+01 -1.300e+01 -1.300e+01 -1.300e+01 -1.300e+01 -1.300e+01 -1.300e+01 -1.300e+01 -1.300e+01 -1.300e+01 -1.300e+01 -1.300e+01 -1.300e+01 -1.300e+01 -1.300e+01 -1.300e+01 -1.300e+01 -1.300e+01 -1.300e+01 -1.300e+01 -1.300e+01 -1.300e+01 -1.300e+01 -1.300e+01 -1.300e+01 -1.300e+01 -1.300e+01 -1.300e+01 -1.300e+01 -1.300e+01 -1.300e+01 -1.300e+01 -1.300e+01 -1.300e+01 -1.300e+01 -1.300e+01 -1.300e+01 -1.300e+01 -1.300e+01 -1.300e+01 -1.300e+01 -1.300e+01 -1.300e+01 -1.300e+01 -1.300e+01 -1.300e+01 -1.300e+01 -1.300e+01 -1.300e+01 -1.300e+01 -1.300e+01 -1.300e+01 -1.300e+01 -1.300e+01 -1.300e+01 -1.300e+01 -1.300e+01 -1.300e+01 -1.300e+01 -1.300e+01 -1.300e+01 -1.300e+01 -1.300e+01 -1.300e+01 -1.300e+01 -1.300e+01 -1.300e+01 -1.300e+01 -1.300e+01 -1.300e+01 -1.300e+01 -1.300e+01 -1.300e+01 -1.300e+01 -1.300e+01 -1.300e+01 -1.300e+01 -1.300e+01 -1.300e+01 -1.300e+01 -1.300e+01 -1.300e+01 -1.300e+01 -1.300e+01 -1.300e+01 -1.300e+01 -1.300e+01 -1.300e+01 -1.300e+01 -1.300e+01 -1.300e+01 -1.300e+01 -1.300e+01 -1.300e+01 -1.300e+01 -1.300e+01 -1.300e+01 -1.300e+01 -1.300e+01 -1.300e+01 -1.300e+01 -1.300e+01 -1.300e+01 -1.300e+01 -1.300e+01 -1.300e+01 -1.300e+01 -1.300e+01 -1.300e+01 -1.300e+01 -1.300e+01 -1.300e+01 -1.300e+01 -1.300e+01 -1.300e+01 -1.300e+01 -1.300e+01 -1.300e+01 -1.300e+01 -1.300e+01 -1.300e+01 -1.300e+01 -1.300e+01 -1.300e+01 -5.000e+00 -5.000e+00 -5.000e+00 -5.000e+00 -5.000e+00 -5.000e+00 -5.000e+00 -5.000e+00 -5.000e+00 -5.000e+00 -5.000e+00 -5.000e+00 -5.000e+00 -5.000e+00 -5.000e+00 -5.000e+00 -5.000e+00 -5.000e+00 -5.000e+00 -5.000e+00 -5.000e+00 -5.000e+00 -5.000e+00 -5.000e+00 -5.000e+00 -5.000e+00 -5.000e+00 -5.000e+00 -5.000e+00 -5.000e+00 -5.000e+00 -5.000e+00 -5.000e+00 -5.000e+00 -5.000e+00 -5.000e+00 -5.000e+00 -5.000e+00 -1.900e+01 -1.900e+01 -1.900e+01 -1.900e+01 -1.900e+01 -1.900e+01 -1.900e+01 -1.900e+01 -1.900e+01 -1.900e+01 -1.900e+01 -1.900e+01 -1.900e+01 -1.900e+01 -1.900e+01 -1.900e+01 -1.900e+01 -1.900e+01 -1.900e+01 -1.900e+01 -1.900e+01 -1.900e+01 -1.900e+01 -1.900e+01 -1.900e+01 -1.900e+01 -1.900e+01 -1.900e+01 -1.900e+01 -1.900e+01 -1.900e+01 -1.900e+01 -1.900e+01 -1.900e+01 -1.900e+01 -1.900e+01 -1.900e+01 -1.900e+01 -1.900e+01 -1.900e+01 -1.900e+01 -1.900e+01 -1.900e+01 -1.900e+01 -1.900e+01 -1.900e+01 -1.900e+01 -1.900e+01 -1.900e+01 -1.900e+01 -1.900e+01 -1.900e+01 -1.900e+01 -1.900e+01 -1.900e+01 -1.900e+01 -1.900e+01 -1.900e+01 -1.900e+01 -1.900e+01 -1.900e+01 -1.900e+01 -1.900e+01 -1.900e+01 -1.900e+01 -1.900e+01 -1.900e+01 -1.900e+01 -1.900e+01 -1.900e+01 -1.900e+01 -1.900e+01 -1.900e+01 -1.900e+01 -1.900e+01 -1.900e+01 -1.900e+01 -1.900e+01 -1.900e+01 -1.900e+01 -1.900e+01 -1.900e+01 -1.900e+01 -1.900e+01 -1.900e+01 -1.900e+01 -1.900e+01 -1.900e+01 -1.900e+01 -1.900e+01 -1.900e+01 -1.900e+01 -1.900e+01 -1.900e+01 -1.900e+01 -1.900e+01 -1.900e+01 -1.900e+01 -1.900e+01 -1.900e+01 -1.900e+01 -1.900e+01 -1.900e+01 -1.900e+01 -1.900e+01 -1.900e+01 -1.900e+01 -1.900e+01 -1.900e+01 -1.900e+01 -1.900e+01 -1.900e+01 -1.100e+01 -1.100e+01 -1.100e+01 -1.100e+01 -1.100e+01 -1.100e+01 -1.100e+01 -1.100e+01 -1.100e+01 -1.100e+01 -1.100e+01 -1.100e+01 -1.100e+01 -1.100e+01 -1.100e+01 -1.100e+01 -1.100e+01 -1.100e+01 -1.100e+01 -1.100e+01 -1.100e+01 -1.100e+01 -1.100e+01 -1.100e+01 -1.100e+01 -1.100e+01 -1.100e+01 -1.100e+01 -1.900e+01 -1.900e+01 -1.900e+01 -1.900e+01 -1.900e+01 -1.900e+01 -1.900e+01 -1.900e+01 -1.900e+01 -1.900e+01 -1.900e+01 -1.900e+01 -1.900e+01 -1.900e+01 -1.900e+01 -1.900e+01 -1.900e+01 -1.900e+01 -1.900e+01 -1.900e+01 -1.900e+01 -1.900e+01 -1.900e+01 -1.900e+01 -1.900e+01 -1.900e+01 -1.900e+01 -1.900e+01 -1.900e+01 -1.900e+01 -1.900e+01 -1.900e+01 -1.900e+01 -1.900e+01 -1.900e+01 -1.900e+01 -1.900e+01 -1.900e+01 -1.900e+01 -1.900e+01 -1.900e+01 -1.900e+01 -1.900e+01 -1.900e+01 -1.900e+01 -1.900e+01 -1.900e+01 -1.900e+01 -1.900e+01 -1.900e+01 -1.900e+01 -1.900e+01 -1.900e+01 -1.900e+01 -1.900e+01 -1.900e+01 -1.900e+01 -1.900e+01 -1.900e+01 -1.900e+01 -1.900e+01 -1.900e+01 -1.900e+01 -1.900e+01 -1.900e+01 -1.900e+01 -1.900e+01 -1.900e+01 -1.900e+01 -1.900e+01 -1.900e+01 -1.900e+01 -1.900e+01 -1.900e+01 -1.900e+01 -1.900e+01 -1.900e+01 -1.900e+01 -1.900e+01 -1.900e+01 -1.900e+01 -1.900e+01 -1.900e+01 -1.900e+01 -1.900e+01 -1.900e+01 -1.900e+01 -1.900e+01 -1.900e+01 -1.900e+01 -1.900e+01 -1.900e+01 -1.900e+01 -1.900e+01 -1.900e+01 -1.900e+01 -1.900e+01 -1.900e+01 -1.900e+01 -1.900e+01 -1.900e+01 -1.900e+01 -1.900e+01 -1.900e+01 -1.900e+01 -1.900e+01 -1.900e+01 -1.900e+01 -1.900e+01 -1.900e+01 -1.900e+01 -1.900e+01 -1.900e+01 -1.900e+01 -1.100e+01 -1.100e+01 -1.100e+01 -1.100e+01 -1.100e+01 -1.100e+01 -1.100e+01 -1.100e+01 -1.100e+01 -1.100e+01