<?xml version="1.0"?>
<VTKFile type="UnstructuredGrid" version="0.1" byte_order="LittleEndian">
   <UnstructuredGrid>
      <Piece NumberOfPoints="77280" NumberOfCells="5748">
         <Points>
            <DataArray type="Float32" Name="Position" NumberOfComponents="3" format="ascii">
-0.067	-5.033	-0.121
-0.067	-5.026	-0.116
-0.068	-5.017	-0.115
-0.071	-5.010	-0.119
-0.075	-5.006	-0.127
-0.077	-5.009	-0.136
-0.078	-5.016	-0.142
-0.076	-5.025	-0.143
-0.073	-5.033	-0.138
-0.069	-5.036	-0.130
-0.889	-5.216	0.155
-0.889	-5.209	0.161
-0.891	-5.200	0.163
-0.895	-5.193	0.159
-0.899	-5.189	0.152
-0.902	-5.191	0.144
-0.903	-5.198	0.137
-0.901	-5.207	0.136
-0.897	-5.215	0.139
-0.892	-5.218	0.147
-1.536	-5.493	0.523
-1.535	-5.487	0.530
-1.538	-5.479	0.533
-1.544	-5.472	0.532
-1.550	-5.468	0.525
-1.554	-5.469	0.517
-1.554	-5.475	0.510
-1.551	-5.483	0.507
-1.546	-5.490	0.508
-1.540	-5.494	0.515
-2.098	-5.958	0.846
-2.098	-5.954	0.854
-2.102	-5.947	0.859
-2.108	-5.940	0.859
-2.115	-5.936	0.854
-2.119	-5.936	0.845
-2.119	-5.941	0.837
-2.115	-5.947	0.832
-2.108	-5.954	0.832
-2.102	-5.958	0.837
-2.641	-6.559	1.087
-2.641	-6.556	1.096
-2.646	-6.550	1.101
-2.652	-6.544	1.102
-2.659	-6.540	1.097
-2.663	-6.539	1.089
-2.662	-6.541	1.080
-2.658	-6.547	1.074
-2.651	-6.553	1.074
-2.644	-6.558	1.078
-2.876	-6.832	1.130
-2.877	-6.830	1.139
-2.882	-6.824	1.145
-2.889	-6.818	1.146
-2.895	-6.814	1.141
-2.899	-6.812	1.132
-2.898	-6.814	1.123
-2.893	-6.819	1.117
-2.886	-6.825	1.117
-2.880	-6.830	1.121
-0.142	-5.073	-0.244
-0.141	-5.065	-0.239
-0.142	-5.056	-0.239
-0.144	-5.048	-0.244
-0.147	-5.046	-0.253
-0.149	-5.049	-0.261
-0.150	-5.056	-0.267
-0.149	-5.066	-0.267
-0.147	-5.073	-0.262
-0.144	-5.076	-0.253
-0.942	-5.149	-0.032
-0.941	-5.141	-0.027
-0.942	-5.132	-0.027
-0.944	-5.124	-0.031
-0.948	-5.122	-0.039
-0.951	-5.124	-0.048
-0.952	-5.132	-0.053
-0.951	-5.141	-0.053
-0.948	-5.148	-0.049
-0.945	-5.151	-0.041
-1.673	-5.258	0.360
-1.671	-5.250	0.365
-1.671	-5.241	0.365
-1.675	-5.233	0.361
-1.679	-5.230	0.353
-1.683	-5.233	0.346
-1.685	-5.241	0.340
-1.684	-5.250	0.340
-1.681	-5.257	0.344
-1.677	-5.260	0.352
-2.399	-5.301	0.770
-2.398	-5.294	0.775
-2.399	-5.285	0.776
-2.402	-5.277	0.771
-2.406	-5.274	0.763
-2.408	-5.277	0.754
-2.409	-5.285	0.749
-2.408	-5.294	0.748
-2.405	-5.301	0.753
-2.401	-5.304	0.761
-3.212	-5.503	0.895
-3.213	-5.497	0.901
-3.216	-5.488	0.903
-3.219	-5.480	0.899
-3.222	-5.477	0.890
-3.224	-5.479	0.882
-3.223	-5.486	0.875
-3.220	-5.494	0.874
-3.217	-5.502	0.878
-3.214	-5.505	0.886
-3.659	-5.703	1.029
-3.660	-5.697	1.036
-3.663	-5.688	1.038
-3.667	-5.681	1.035
-3.671	-5.677	1.028
-3.673	-5.678	1.019
-3.673	-5.684	1.012
-3.669	-5.693	1.010
-3.665	-5.700	1.013
-3.661	-5.704	1.020
-0.714	-5.773	-1.239
-0.711	-5.768	-1.232
-0.714	-5.764	-1.224
-0.721	-5.763	-1.219
-0.730	-5.764	-1.217
-0.738	-5.768	-1.221
-0.741	-5.774	-1.228
-0.738	-5.778	-1.236
-0.731	-5.779	-1.242
-0.722	-5.777	-1.243
-0.516	-6.498	-0.809
-0.513	-6.492	-0.803
-0.516	-6.487	-0.795
-0.523	-6.485	-0.790
-0.532	-6.487	-0.789
-0.540	-6.491	-0.792
-0.542	-6.497	-0.798
-0.540	-6.502	-0.806
-0.532	-6.504	-0.811
-0.523	-6.502	-0.812
-0.299	-7.109	-0.190
-0.296	-7.102	-0.184
-0.299	-7.097	-0.177
-0.307	-7.095	-0.172
-0.316	-7.097	-0.170
-0.323	-7.103	-0.173
-0.325	-7.109	-0.179
-0.322	-7.114	-0.186
-0.315	-7.116	-0.192
-0.306	-7.114	-0.193
-0.023	-7.790	0.312
-0.020	-7.784	0.318
-0.023	-7.780	0.326
-0.030	-7.778	0.332
-0.039	-7.780	0.333
-0.046	-7.785	0.330
-0.049	-7.791	0.323
-0.046	-7.796	0.316
-0.039	-7.797	0.310
-0.030	-7.795	0.309
0.158	-8.448	0.797
0.167	-8.444	0.797
0.176	-8.446	0.797
0.182	-8.452	0.797
0.184	-8.461	0.797
0.180	-8.469	0.797
0.171	-8.474	0.797
0.162	-8.472	0.797
0.156	-8.466	0.797
0.154	-8.457	0.797
-3.288	-17.487	-6.990
-3.285	-17.479	-6.986
-3.288	-17.472	-6.982
-3.296	-17.467	-6.979
-3.305	-17.467	-6.978
-3.312	-17.472	-6.981
-3.315	-17.480	-6.985
-3.312	-17.488	-6.989
-3.305	-17.492	-6.992
-3.296	-17.492	-6.992
-3.246	-17.908	-6.217
-3.243	-17.900	-6.213
-3.246	-17.893	-6.209
-3.254	-17.888	-6.206
-3.263	-17.888	-6.206
-3.271	-17.893	-6.209
-3.273	-17.901	-6.213
-3.271	-17.908	-6.217
-3.263	-17.913	-6.219
-3.254	-17.913	-6.220
-3.250	-18.310	-5.416
-3.247	-18.302	-5.412
-3.250	-18.294	-5.407
-3.257	-18.290	-5.404
-3.266	-18.290	-5.404
-3.274	-18.295	-5.406
-3.277	-18.303	-5.410
-3.274	-18.311	-5.415
-3.266	-18.315	-5.417
-3.257	-18.315	-5.418
-3.145	-18.763	-4.654
-3.142	-18.755	-4.650
-3.145	-18.748	-4.645
-3.153	-18.744	-4.642
-3.162	-18.744	-4.641
-3.169	-18.750	-4.643
-3.172	-18.757	-4.648
-3.169	-18.765	-4.652
-3.161	-18.769	-4.656
-3.152	-18.768	-4.657
-3.295	-17.631	-7.031
-3.292	-17.623	-7.027
-3.295	-17.616	-7.022
-3.303	-17.611	-7.019
-3.312	-17.612	-7.019
-3.319	-17.617	-7.021
-3.322	-17.625	-7.025
-3.319	-17.632	-7.030
-3.312	-17.637	-7.033
-3.303	-17.636	-7.033
-3.239	-18.045	-6.287
-3.236	-18.038	-6.282
-3.239	-18.031	-6.277
-3.247	-18.027	-6.273
-3.256	-18.028	-6.272
-3.263	-18.033	-6.274
-3.266	-18.041	-6.279
-3.263	-18.048	-6.284
-3.255	-18.052	-6.288
-3.246	-18.051	-6.289
-3.014	-18.555	-5.599
-3.012	-18.548	-5.594
-3.015	-18.542	-5.588
-3.022	-18.540	-5.582
-3.031	-18.543	-5.580
-3.037	-18.550	-5.582
-3.039	-18.557	-5.587
-3.036	-18.563	-5.593
-3.029	-18.564	-5.599
-3.020	-18.562	-5.601
-2.567	-19.098	-5.045
-2.565	-19.091	-5.040
-2.568	-19.086	-5.033
-2.575	-19.085	-5.026
-2.583	-19.089	-5.024
-2.589	-19.096	-5.025
-2.591	-19.103	-5.031
-2.588	-19.108	-5.038
-2.581	-19.109	-5.044
-2.573	-19.105	-5.047
-3.326	-17.759	-7.064
-3.319	-17.754	-7.066
-3.310	-17.754	-7.068
-3.303	-17.759	-7.070
-3.300	-17.768	-7.071
-3.303	-17.777	-7.070
-3.310	-17.782	-7.068
-3.319	-17.782	-7.065
-3.326	-17.777	-7.063
-3.329	-17.768	-7.063
-3.533	-17.777	-7.829
-3.526	-17.772	-7.832
-3.517	-17.772	-7.834
-3.510	-17.778	-7.835
-3.507	-17.787	-7.836
-3.510	-17.795	-7.835
-3.517	-17.801	-7.833
-3.526	-17.801	-7.830
-3.534	-17.795	-7.829
-3.536	-17.786	-7.828
-3.731	-17.825	-8.656
-3.723	-17.820	-8.657
-3.714	-17.821	-8.659
-3.707	-17.826	-8.660
-3.704	-17.835	-8.661
-3.708	-17.844	-8.660
-3.715	-17.849	-8.658
-3.724	-17.848	-8.656
-3.731	-17.843	-8.655
-3.734	-17.834	-8.655
-3.812	-17.831	-9.135
-3.804	-17.826	-9.137
-3.795	-17.826	-9.138
-3.788	-17.832	-9.139
-3.786	-17.841	-9.140
-3.789	-17.850	-9.139
-3.797	-17.855	-9.138
-3.806	-17.854	-9.136
-3.813	-17.848	-9.135
-3.816	-17.839	-9.135
-3.318	-17.903	-7.116
-3.315	-17.899	-7.108
-3.314	-17.900	-7.099
-3.314	-17.907	-7.093
-3.316	-17.915	-7.091
-3.320	-17.923	-7.094
-3.322	-17.927	-7.102
-3.324	-17.926	-7.111
-3.323	-17.920	-7.118
-3.321	-17.911	-7.120
-2.582	-18.126	-7.272
-2.578	-18.123	-7.264
-2.576	-18.124	-7.255
-2.577	-18.130	-7.248
-2.580	-18.139	-7.246
-2.584	-18.146	-7.250
-2.588	-18.150	-7.257
-2.590	-18.149	-7.266
-2.589	-18.143	-7.273
-2.586	-18.134	-7.275
-1.909	-18.505	-7.503
-1.905	-18.501	-7.496
-1.902	-18.503	-7.487
-1.903	-18.509	-7.480
-1.907	-18.517	-7.478
-1.911	-18.525	-7.481
-1.916	-18.528	-7.488
-1.918	-18.527	-7.497
-1.917	-18.520	-7.504
-1.914	-18.512	-7.506
-1.268	-18.798	-7.720
-1.264	-18.794	-7.713
-1.262	-18.796	-7.704
-1.262	-18.802	-7.697
-1.265	-18.811	-7.695
-1.270	-18.818	-7.698
-1.274	-18.821	-7.706
-1.276	-18.820	-7.715
-1.276	-18.814	-7.722
-1.272	-18.805	-7.724
-3.320	-18.070	-7.134
-3.322	-18.062	-7.129
-3.324	-18.053	-7.129
-3.325	-18.046	-7.135
-3.326	-18.043	-7.144
-3.325	-18.047	-7.153
-3.324	-18.054	-7.158
-3.322	-18.063	-7.157
-3.320	-18.070	-7.152
-3.320	-18.073	-7.143
-4.221	-18.246	-7.132
-4.223	-18.238	-7.127
-4.225	-18.229	-7.127
-4.226	-18.222	-7.133
-4.226	-18.220	-7.142
-4.225	-18.223	-7.151
-4.223	-18.230	-7.156
-4.221	-18.239	-7.155
-4.220	-18.246	-7.149
-4.220	-18.249	-7.140
-5.037	-18.464	-7.241
-5.039	-18.456	-7.237
-5.041	-18.447	-7.238
-5.042	-18.441	-7.244
-5.041	-18.439	-7.253
-5.038	-18.442	-7.262
-5.036	-18.450	-7.266
-5.034	-18.459	-7.265
-5.033	-18.466	-7.258
-5.034	-18.468	-7.250
-5.088	-18.475	-7.253
-5.091	-18.467	-7.249
-5.093	-18.458	-7.251
-5.092	-18.451	-7.257
-5.091	-18.450	-7.266
-5.088	-18.454	-7.274
-5.085	-18.462	-7.278
-5.084	-18.471	-7.276
-5.084	-18.477	-7.270
-5.086	-18.479	-7.261
-3.326	-18.193	-7.192
-3.324	-18.189	-7.184
-3.323	-18.190	-7.175
-3.324	-18.196	-7.168
-3.325	-18.205	-7.167
-3.327	-18.214	-7.170
-3.329	-18.218	-7.179
-3.330	-18.216	-7.188
-3.330	-18.210	-7.194
-3.328	-18.201	-7.196
-2.509	-18.337	-7.307
-2.508	-18.333	-7.299
-2.507	-18.335	-7.290
-2.507	-18.341	-7.283
-2.508	-18.350	-7.282
-2.510	-18.358	-7.286
-2.511	-18.363	-7.294
-2.511	-18.361	-7.303
-2.511	-18.355	-7.310
-2.510	-18.346	-7.311
-1.667	-18.364	-7.344
-1.667	-18.360	-7.335
-1.666	-18.362	-7.326
-1.666	-18.368	-7.320
-1.667	-18.377	-7.318
-1.667	-18.386	-7.323
-1.668	-18.390	-7.331
-1.668	-18.388	-7.340
-1.668	-18.382	-7.346
-1.668	-18.373	-7.348
-1.306	-18.387	-7.365
-1.306	-18.383	-7.356
-1.305	-18.384	-7.347
-1.305	-18.391	-7.341
-1.306	-18.400	-7.339
-1.306	-18.408	-7.343
-1.307	-18.412	-7.352
-1.308	-18.411	-7.361
-1.308	-18.404	-7.367
-1.307	-18.395	-7.369
-3.332	-18.337	-7.229
-3.329	-18.333	-7.221
-3.327	-18.336	-7.212
-3.326	-18.343	-7.206
-3.326	-18.352	-7.205
-3.329	-18.360	-7.210
-3.332	-18.363	-7.218
-3.334	-18.361	-7.226
-3.336	-18.354	-7.232
-3.335	-18.345	-7.233
-2.564	-18.434	-7.484
-2.562	-18.430	-7.476
-2.561	-18.432	-7.467
-2.560	-18.439	-7.461
-2.561	-18.448	-7.460
-2.563	-18.456	-7.464
-2.564	-18.460	-7.472
-2.566	-18.458	-7.481
-2.566	-18.451	-7.488
-2.566	-18.442	-7.489
-1.729	-18.490	-7.520
-1.728	-18.486	-7.511
-1.728	-18.488	-7.502
-1.728	-18.494	-7.496
-1.729	-18.503	-7.494
-1.730	-18.511	-7.498
-1.731	-18.516	-7.506
-1.731	-18.514	-7.516
-1.731	-18.508	-7.522
-1.730	-18.499	-7.524
-1.625	-18.501	-7.528
-1.624	-18.496	-7.520
-1.623	-18.498	-7.511
-1.624	-18.504	-7.504
-1.624	-18.513	-7.502
-1.625	-18.522	-7.507
-1.626	-18.526	-7.515
-1.627	-18.524	-7.524
-1.627	-18.518	-7.530
-1.626	-18.509	-7.532
-3.329	-18.506	-7.251
-3.329	-18.499	-7.244
-3.332	-18.490	-7.243
-3.335	-18.482	-7.247
[...]
         <CellData>
           <DataArray type="Float32" Name="combinedRootClassID" NumberOfComponents="1" format="ascii">
 -1.300e+01 -1.300e+01 -1.300e+01 -1.300e+01 -1.300e+01 -1.300e+01 -1.300e+01 -1.300e+01 -1.300e+01 -1.300e+01 -1.300e+01 -1.300e+01 -1.300e+01 -1.300e+01 -1.300e+01 -1.300e+01 -1.300e+01 -1.300e+01 -1.300e+01 -1.300e+01 -1.300e+01 -1.300e+01 -1.300e+01 -1.300e+01 -1.300e+01 -1.300e+01 -1.300e+01 -1.300e+01 -1.300e+01 -1.300e+01 -1.300e+01 -1.300e+01 -1.300e+01 -1.300e+01 -1.300e+01 -1.300e+01 -1.300e+01 -1.300e+01 -1.300e+01 -1.300e+01 -1.300e+01 -1.300e+01 -1.300e+01 -1.300e+01 -1.300e+01 -1.300e+01 -1.300e+01 -1.300e+01 -1.300e+01 -1.300e+01 -1.300e+01 -1.300e+01 -1.300e+01 -1.300e+01 -1.300e+01 -1.300e+01 -1.300e+01 -1.300e+01 -1.300e+01 -1.300e+01 -1.300e+01 -1.300e+01 -1.300e+01 -1.300e+01 -1.300e+01 -1.300e+01 -1.300e+01 -1.300e+01 -1.300e+01 -1.300e+01 -1.300e+01 -1.300e+01 -1.300e+01 -1.300e+01 -1.300e+01 -1.300e+01 -1.300e+01 -1.300e+01 -1.300e+01 -1.300e+01 -1.300e+01 -1.300e+01 -1.300e+01 -1.300e+01 -1.300e+01 -1.300e+01 -1.300e+01 -1.300e+01 -1.300e+01 -1.300e+01 -1.300e+01 -1.300e+01 -1.300e+01 -1.300e+01 -1.300e+01 -1.300e+01 -1.300e+01 -1.300e+01 -1.300e+01 -1.300e+01 -1.300e+01 -1.300e+01 -1.300e+01 -1.300e+01 -1.300e+01 -1.300e+01 -1.300e+01 -1.300e+01 -1.300e+01 -1.300e+01 -1.300e+01 -1.300e+01 -1.300e+01 -1.300e+01 -1.300e+01 -1.300e+01 -1.300e+01 -1.300e+01 -1.300e+01 -1.300e+01 -1.300e+01 -1.300e+01 -1.300e+01 -1.300e+01 -1.300e+01 -1.300e+01 -1.300e+01 -1.300e+01 -1.300e+01 -1.300e+01 -1.300e+01 -1.300e+01 -1.300e+01 -1.300e+01 -1.300e+01 -1.300e+01 -1.300e+01 -1.300e+01 -1.300e+01 -1.300e+01 -1.300e+01 -1.300e+01 -1.300e+01 -1.300e+01 -1.300e+01 -1.300e+01 -1.300e+01 -1.300e+01 -1.300e+01 -1.300e+01 -1.300e+01 -1.300e+01 -1.300e+01 -1.300e+01 -1.300e+01 -1.300e+01 -1.300e+01 -1.300e+01 -1.300e+01 -1.300e+01 -1.300e+01 -1.300e+01 -1.300e+01 -1.300e+01 -1.300e+01 -1.300e+01 -1.300e+01 -1.300e+01 -1.300e+01 -1.300e+01 -1.300e+01 -1.300e+01 -1.300e+01 -1.300e+01 -1.300e+01 -1.300e+01 -1.300e+01 -1.300e+01 -1.300e+01 -1.300e+01 -1.300e+01 -1.300e+01 -1.300e+01 -1.300e+01 -1.300e+01 -1.300e+01 -1.300e+01 -1.300e+01 -1.300e+01 -1.300e+01 -1.300e+01 -1.300e+01 -1.300e+01 -1.300e+01 -1.300e+01 -1.300e+01 -1.300e+01 -1.300e+01 -1.300e+01 -1.300e+01 -1.300e+01 -1.300e+01 -1.300e+01 -1.300e+01 -1.300e+01 -1.300e+01 -1.300e+01 -1.300e+01 -1.300e+01 -1.300e+01 -1.300e+01 -1.300e+01 -1.300e+01 -1.300e+01 -1.300e+01 -1.300e+01 -1.300e+01 -1.300e+01 -1.300e+01 -1.300e+01 -1.300e+01 -1.300e+01 -1.300e+01 -1.300e+01 -1.300e+01 -1.300e+01 -1.300e+01 -1.300e+01 -1.300e+01 -1.300e+01 -1.300e+01 -1.300e+01 -1.300e+01 -1.300e+01 -1.300e+01 -1.300e+01 -1.300e+01 -1.300e+01 -1.300e+01 -1.300e+01 -1.300e+01 -1.300e+01 -1.300e+01 -1.300e+01 -1.300e+01 -1.300e+01 -1.300e+01 -1.300e+01 -1.300e+01 -1.300e+01 -1.300e+01 -1.300e+01 -1.300e+01 -1.300e+01 -1.300e+01 -1.300e+01 -1.300e+01 -1.300e+01 -1.300e+01 -1.300e+01 -1.300e+01 -1.300e+01 -1.300e+01 -1.300e+01 -1.300e+01 -1.300e+01 -1.300e+01 -1.300e+01 -1.300e+01 -1.300e+01 -1.300e+01 -1.300e+01 -1.300e+01 -1.300e+01 -1.300e+01 -1.300e+01 -1.300e+01 -1.300e+01 -1.300e+01 -1.300e+01 -1.300e+01 -1.300e+01 -1.300e+01 -1.300e+01 -1.300e+01 -1.300e+01 -1.300e+01 -1.300e+01 -1.300e+01 -1.300e+01 -1.300e+01 -1.300e+01 -1.300e+01 -1.300e+01 -1.300e+01 -1.300e+01 -1.300e+01 -1.300e+01 -1.300e+01 -1.300e+01 -1.300e+01 -1.300e+01 -1.300e+01 -1.300e+01 -1.300e+01 -1.300e+01 -1.300e+01 -1.300e+01 -1.300e+01 -1.300e+01 -1.300e+01 -1.300e+01 -1.300e+01 -1.300e+01 -1.300e+01 -1.300e+01 -1.300e+01 -1.300e+01 -1.300e+01 -1.300e+01 -1.300e+01 -1.300e+01 -1.300e+01 -1.300e+01 -1.300e+01 -1.300e+01 -1.300e+01 -1.300e+01 -1.300e+01 -1.300e+01 -1.300e+01 -1.300e+01 -1.300e+01 -1.300e+01 -1.300e+01 -1.300e+01 -1.300e+01 -1.300e+01 -1.300e+01 -1.300e+01 -1.300e+01 -1.300e+01 -1.300e+01 -1.300e+01 -1.300e+01 -1.300e+01 -1.300e+01 -1.300e+01 -1.300e+01 -1.300e+01 -1.300e+01 -1.300e+01 -1.300e+01 -1.300e+01 -1.300e+01 -1.300e+01 -1.300e+01 -1.300e+01 -1.300e+01 -1.300e+01 -1.300e+01 -1.300e+01 -1.300e+01 -1.300e+01 -1.300e+01 -1.300e+01 -1.300e+01 -1.300e+01 -1.300e+01 -1.300e+01 -1.300e+01 -1.300e+01 -1.300e+01 -1.300e+01 -1.300e+01 -1.300e+01 -1.300e+01 -1.300e+01 -1.300e+01 -1.300e+01 -1.300e+01 -1.300e+01 -1.300e+01 -1.300e+01 -1.300e+01 -1.300e+01 -1.300e+01 -1.300e+01 -1.300e+01 -1.300e+01 -1.300e+01 -1.300e+01 -1.300e+01 -1.300e+01 -1.300e+01 -1.300e+01 -1.300e+01 -1.300e+01 -1.300e+01 -1.300e+01 -1.300e+01 -1.300e+01 -1.300e+01 -1.300e+01 -1.300e+01 -1.300e+01 -1.300e+01 -1.300e+01 -1.300e+01 -1.300e+01 -1.300e+01 -1.300e+01 -1.300e+01 -1.300e+01 -1.300e+01 -1.300e+01 -1.300e+01 -1.300e+01 -1.300e+01 -1.300e+01 -1.300e+01 -1.300e+01 -1.300e+01 -1.300e+01 -1.300e+01 -1.300e+01 -1.300e+01 -1.300e+01 -1.300e+01 -1.300e+01 -1.300e+01 -1.300e+01 -1.300e+01 -1.300e+01 -1.300e+01 -1.300e+01 -1.300e+01 -1.300e+01 -1.300e+01 -1.300e+01 -1.300e+01 -1.300e+01 -1.300e+01 -1.300e+01 -1.300e+01 -1.300e+01 -1.300e+01 -1.300e+01 -1.300e+01 -1.300e+01 -1.300e+01 -1.300e+01 -1.300e+01 -1.300e+01 -1.300e+01 -1.300e+01 -1.300e+01 -1.300e+01 -1.300e+01 -1.300e+01 -1.300e+01 -1.300e+01 -1.300e+01 -1.300e+01 -1.300e+01 -1.300e+01 -1.300e+01 -1.300e+01 -1.300e+01 -1.300e+01 -1.300e+01 -1.300e+01 -1.300e+01 -1.300e+01 -1.300e+01 -1.300e+01 -1.300e+01 -1.300e+01 -1.300e+01 -1.300e+01 -1.300e+01 -1.300e+01 -1.300e+01 -1.300e+01 -1.300e+01 -1.300e+01 -1.300e+01 -1.300e+01 -1.300e+01 -1.300e+01 -1.300e+01 -1.300e+01 -1.300e+01 -1.300e+01 -1.300e+01 -1.300e+01 -1.300e+01 -1.300e+01 -1.300e+01 -1.300e+01 -1.300e+01 -1.300e+01 -1.300e+01 -1.300e+01 -1.300e+01 -1.300e+01 -1.300e+01 -1.300e+01 -1.300e+01 -1.300e+01 -1.300e+01 -1.300e+01 -1.300e+01 -1.300e+01 -1.300e+01 -1.300e+01 -1.300e+01 -1.300e+01 -1.300e+01 -1.300e+01 -1.300e+01 -1.300e+01 -1.300e+01 -1.300e+01 -1.300e+01 -1.300e+01 -1.300e+01 -1.300e+01 -1.300e+01 -1.300e+01 -1.300e+01 -1.300e+01 -1.300e+01 -1.300e+01 -1.300e+01 -1.300e+01 -1.300e+01 -1.300e+01 -1.300e+01 -1.300e+01 -1.300e+01 -1.300e+01 -1.300e+01 -1.300e+01 -1.300e+01 -1.300e+01 -1.300e+01 -1.300e+01 -1.300e+01 -1.300e+01 -1.300e+01 -1.300e+01 -1.300e+01 -1.300e+01 -1.300e+01 -1.300e+01 -1.300e+01 -1.300e+01 -1.300e+01 -1.300e+01 -1.300e+01 -1.300e+01 -1.300e+01 -1.300e+01 -1.300e+01 -1.300e+01 -1.300e+01 -1.300e+01 -1.300e+01 -1.300e+01 -1.300e+01 -1.300e+01 -1.300e+01 -1.300e+01 -1.300e+01 -1.300e+01 -1.300e+01 -1.300e+01 -1.300e+01 -1.300e+01 -1.300e+01 -1.300e+01 -5.000e+00 -5.000e+00 -5.000e+00 -5.000e+00 -5.000e+00 -5.000e+00 -5.000e+00 -5.000e+00 -5.000e+00 -5.000e+00 -5.000e+00 -5.000e+00 -5.000e+00 -5.000e+00 -5.000e+00 -5.000e+00 -5.000e+00 -5.000e+00 -5.000e+00 -5.000e+00 -5.000e+00 -5.000e+00 -5.000e+00 -5.000e+00 -5.000e+00 -5.000e+00 -5.000e+00 -5.000e+00 -5.000e+00 -5.000e+00 -5.000e+00 -5.000e+00 -5.000e+00 -5.000e+00 -5.000e+00 -5.000e+00 -5.000e+00 -5.000e+00 -5.000e+00 -5.000e+00 -5.000e+00 -5.000e+00 -5.000e+00 -5.000e+00 -5.000e+00 -5.000e+00 -5.000e+00 -5.000e+00 -1.300e+01 -1.300e+01 -1.300e+01 -1.300e+01 -1.300e+01 -1.300e+01 -1.300e+01 -1.300e+01 -1.300e+01 -1.300e+01 -1.300e+01 -1.300e+01 -1.300e+01 -1.300e+01 -1.300e+01 -1.300e+01 -1.300e+01 -1.300e+01 -1.300e+01 -1.300e+01 -1.300e+01 -1.300e+01 -1.300e+01 -1.300e+01 -1.300e+01 -1.300e+01 -1.300e+01 -1.300e+01 -1.300e+01 -1.300e+01 -1.300e+01 -1.300e+01 -1.300e+01 -1.300e+01 -1.300e+01 -1.300e+01 -1.300e+01 -1.300e+01 -1.300e+01 -1.300e+01 -1.300e+01 -1.300e+01 -1.300e+01 -1.300e+01 -1.300e+01 -1.300e+01 -1.300e+01 -1.300e+01 -1.300e+01 -1.300e+01 -1.300e+01 -1.300e+01 -1.300e+01 -1.300e+01 -1.300e+01 -1.300e+01 -1.300e+01 -1.300e+01 -1.300e+01 -1.300e+01 -1.300e+01 -1.300e+01 -1.300e+01 -1.300e+01 -1.300e+01 -1.300e+01 -1.300e+01 -1.300e+01 -1.300e+01 -1.300e+01 -1.300e+01 -1.300e+01 -1.300e+01 -1.300e+01 -1.300e+01 -1.300e+01 -1.300e+01 -1.300e+01 -1.300e+01 -1.300e+01 -1.300e+01 -1.300e+01 -1.300e+01 -1.300e+01 -1.300e+01 -1.300e+01 -1.300e+01 -1.300e+01 -1.300e+01 -1.300e+01 -1.300e+01 -1.300e+01 -1.300e+01 -1.300e+01 -1.300e+01 -1.300e+01 -1.300e+01 -1.300e+01 -1.300e+01 -1.300e+01 -1.300e+01 -1.300e+01 -1.300e+01 -1.300e+01 -1.300e+01 -1.300e+01 -1.300e+01 -1.300e+01 -1.300e+01 -1.300e+01 -1.300e+01 -1.300e+01 -1.300e+01 -1.300e+01 -1.300e+01 -1.300e+01 -1.300e+01 -1.300e+01 -1.300e+01 -1.300e+01 -1.300e+01 -1.300e+01 -1.300e+01 -1.300e+01 -1.300e+01 -1.300e+01 -1.300e+01 -1.300e+01 -1.300e+01 -1.300e+01 -1.300e+01 -1.300e+01 -1.300e+01 -1.300e+01 -1.300e+01 -1.300e+01 -1.300e+01 -1.300e+01 -1.300e+01 -1.300e+01 -1.300e+01 -1.300e+01 -1.300e+01 -1.300e+01 -1.300e+01 -1.300e+01 -1.300e+01 -1.300e+01 -1.300e+01 -1.300e+01 -1.300e+01 -1.300e+01 -1.300e+01 -1.300e+01 -1.300e+01 -1.300e+01 -1.300e+01 -1.300e+01 -1.300e+01 -1.300e+01 -1.300e+01 -1.300e+01 -1.300e+01 -1.300e+01 -1.300e+01 -1.300e+01 -1.300e+01 -1.300e+01 -1.300e+01 -1.300e+01 -1.300e+01 -1.300e+01 -1.300e+01 -1.300e+01 -1.300e+01 -1.300e+01 -1.300e+01 -1.300e+01 -1.300e+01 -1.300e+01 -1.300e+01 -1.300e+01 -1.300e+01 -1.300e+01 -1.300e+01 -1.300e+01 -1.300e+01 -1.300e+01 -1.300e+01 -1.300e+01 -1.300e+01 -1.300e+01 -1.300e+01 -1.300e+01 -1.300e+01 -1.300e+01 -1.300e+01 -1.300e+01 -1.300e+01 -1.300e+01 -1.300e+01 -1.300e+01 -1.300e+01 -1.300e+01 -1.300e+01 -1.300e+01 -1.300e+01 -1.300e+01 -1.300e+01 -1.300e+01 -1.300e+01 -1.300e+01 -1.300e+01 -1.300e+01 -1.300e+01 -1.300e+01 -1.300e+01 -1.300e+01 -1.300e+01 -1.300e+01 -1.300e+01 -1.300e+01 -1.300e+01 -1.300e+01 -1.300e+01 -1.300e+01 -1.300e+01 -1.300e+01 -1.300e+01 -1.300e+01 -1.300e+01 -1.300e+01 -1.300e+01 -1.300e+01 -1.300e+01 -1.300e+01 -1.300e+01 -1.300e+01 -1.300e+01 -1.300e+01 -1.300e+01 -1.300e+01 -1.300e+01 -1.300e+01 -1.300e+01 -1.300e+01 -1.300e+01 -1.300e+01 -1.300e+01 -1.300e+01 -1.300e+01 -1.300e+01 -1.300e+01 -1.300e+01 -1.300e+01 -1.300e+01 -1.300e+01 -1.300e+01 -1.300e+01 -1.300e+01 -1.300e+01 -1.300e+01 -1.300e+01 -1.300e+01 -1.300e+01 -1.300e+01 -1.300e+01 -1.300e+01 -1.300e+01 -1.300e+01 -1.300e+01 -1.300e+01 -1.300e+01 -1.300e+01 -1.300e+01 -1.300e+01 -1.300e+01 -1.300e+01 -1.300e+01 -1.300e+01 -1.300e+01 -1.300e+01 -1.300e+01 -1.300e+01 -1.300e+01 -1.300e+01 -1.300e+01 -1.300e+01 -1.300e+01 -1.300e+01 -1.300e+01 -1.300e+01 -1.300e+01 -1.300e+01 -1.300e+01 -1.300e+01 -1.300e+01 -1.300e+01 -1.300e+01 -1.300e+01 -1.300e+01 -1.300e+01 -1.300e+01 -1.300e+01 -1.300e+01 -1.300e+01 -1.300e+01 -1.300e+01 -1.300e+01 -1.300e+01 -1.300e+01 -1.300e+01 -1.300e+01 -1.300e+01 -1.300e+01 -1.300e+01 -1.300e+01 -1.300e+01 -1.300e+01 -1.300e+01 -1.300e+01 -1.300e+01 -1.300e+01 -1.300e+01 -1.300e+01 -1.300e+01 -1.300e+01 -1.300e+01 -1.300e+01 -1.300e+01 -1.300e+01 -1.300e+01 -1.300e+01 -1.300e+01 -1.300e+01 -1.300e+01 -1.300e+01 -1.300e+01 -1.300e+01 -1.300e+01 -1.300e+01 -1.300e+01 -1.300e+01 -1.300e+01 -1.300e+01 -1.300e+01 -1.300e+01 -1.300e+01 -1.300e+01 -1.300e+01 -1.300e+01 -1.300e+01 -1.300e+01 -1.300e+01 -1.300e+01 -1.300e+01 -1.300e+01 -1.300e+01 -1.300e+01 -1.300e+01 -1.300e+01 -1.300e+01 -1.300e+01 -1.300e+01 -1.300e+01 -1.300e+01 -1.300e+01 -1.300e+01 -1.300e+01 -1.300e+01 -1.300e+01 -1.300e+01 -1.300e+01 -1.300e+01 -1.300e+01 -1.300e+01 -1.300e+01 -1.300e+01 -1.300e+01 -1.300e+01 -1.300e+01 -1.300e+01 -1.300e+01 -1.300e+01 -1.300e+01 -1.300e+01 -1.300e+01 -1.300e+01 -1.300e+01 -1.300e+01 -1.300e+01 -1.300e+01 -1.300e+01 -1.300e+01 -1.300e+01 -1.300e+01 -1.300e+01 -1.300e+01 -1.300e+01 -1.300e+01 -1.300e+01 -1.300e+01 -1.300e+01 -1.300e+01 -1.300e+01 -1.300e+01 -1.300e+01 -1.300e+01 -1.300e+01 -1.300e+01 -1.300e+01 -1.300e+01 -1.300e+01 -1.300e+01 -1.300e+01 -1.300e+01 -1.300e+01 -1.300e+01 -1.300e+01 -1.300e+01 -1.300e+01 -1.300e+01 -1.300e+01 -1.300e+01 -1.300e+01 -1.300e+01 -1.300e+01 -1.300e+01 -1.300e+01 -1.300e+01 -1.300e+01 -1.300e+01 -1.300e+01 -1.300e+01 -1.300e+01 -1.300e+01 -1.300e+01 -1.300e+01 -1.300e+01 -1.300e+01 -1.300e+01 -1.300e+01 -1.300e+01 -1.300e+01 -1.300e+01 -1.300e+01 -1.300e+01 -1.300e+01 -1.300e+01 -1.300e+01 -1.300e+01 -1.300e+01 -1.300e+01 -1.300e+01 -1.300e+01 -1.300e+01 -1.300e+01 -1.300e+01 -1.300e+01 -1.300e+01 -1.300e+01 -1.300e+01 -1.300e+01 -1.300e+01 -1.300e+01 -1.300e+01 -1.300e+01 -1.300e+01 -1.300e+01 -1.300e+01 -1.300e+01 -1.300e+01 -1.300e+01 -1.300e+01 -1.300e+01 -1.300e+01 -1.300e+01 -1.300e+01 -1.300e+01 -1.300e+01 -1.300e+01 -1.300e+01 -1.300e+01 -1.300e+01 -1.300e+01 -1.300e+01 -1.300e+01 -1.300e+01 -1.300e+01 -1.300e+01 -1.300e+01 -1.300e+01 -1.300e+01 -1.300e+01 -1.300e+01 -1.300e+01 -1.300e+01 -1.300e+01 -1.300e+01 -1.300e+01 -1.300e+01 -1.300e+01 -1.300e+01 -1.300e+01 -1.300e+01 -1.300e+01 -1.300e+01 -1.300e+01 -1.300e+01 -1.300e+01 -1.300e+01 -1.300e+01 -1.300e+01 -1.300e+01 -1.300e+01 -1.300e+01 -1.300e+01 -1.300e+01 -1.300e+01 -1.300e+01 -1.300e+01 -1.300e+01 -1.300e+01 -1.300e+01 -1.300e+01 -1.300e+01 -1.300e+01 -1.300e+01 -1.300e+01 -1.300e+01 -1.300e+01 -1.300e+01 -1.300e+01 -1.300e+01 -1.300e+01 -1.300e+01 -1.300e+01 -1.300e+01 -1.300e+01 -1.300e+01 -1.300e+01 -1.300e+01 -1.300e+01 -1.300e+01 -1.300e+01 -1.300e+01 -1.300e+01 -1.300e+01 -1.300e+01 -1.300e+01 -1.300e+01 -1.300e+01 -1.300e+01 -1.300e+01 -1.300e+01 -1.300e+01 -1.300e+01 -1.300e+01 -1.300e+01 -1.300e+01 -1.300e+01 -1.300e+01 -1.300e+01 -1.300e+01 -1.300e+01 -1.300e+01 -1.300e+01 -1.300e+01 -1.300e+01 -1.300e+01 -1.300e+01 -5.000e+00 -5.000e+00 -5.000e+00 -5.000e+00 -5.000e+00 -5.000e+00 -5.000e+00 -5.000e+00 -5.000e+00 -5.000e+00 -5.000e+00 -5.000e+00 -5.000e+00 -5.000e+00 -5.000e+00 -5.000e+00 -5.000e+00 -5.000e+00 -5.000e+00 -5.000e+00 -5.000e+00 -5.000e+00 -5.000e+00 -5.000e+00 -5.000e+00 -5.000e+00 -5.000e+00 -5.000e+00 -5.000e+00 -5.000e+00 -5.000e+00 -5.000e+00 -5.000e+00 -5.000e+00 -5.000e+00 -5.000e+00 -5.000e+00 -5.000e+00 -5.000e+00 -5.000e+00 -5.000e+00 -5.000e+00 -5.000e+00 -5.000e+00 -5.000e+00 -5.000e+00 -5.000e+00 -5.000e+00 -1.300e+01 -1.300e+01 -1.300e+01 -1.300e+01 -1.300e+01 -1.300e+01 -1.300e+01 -1.300e+01 -1.300e+01 -1.300e+01 -1.300e+01 -1.300e+01 -1.300e+01 -1.300e+01 -1.300e+01 -1.300e+01 -1.300e+01 -1.300e+01 -1.300e+01 -1.300e+01 -1.300e+01 -1.300e+01 -1.300e+01 -1.300e+01 -1.300e+01 -1.300e+01 -1.300e+01 -1.300e+01 -1.300e+01 -1.300e+01 -1.300e+01 -1.300e+01 -1.300e+01 -1.300e+01 -1.300e+01 -1.300e+01 -1.300e+01 -1.300e+01 -1.300e+01 -1.300e+01 -1.300e+01 -1.300e+01 -1.300e+01 -1.300e+01 -1.300e+01 -1.300e+01 -1.300e+01 -1.300e+01 -1.300e+01 -1.300e+01 -1.300e+01 -1.300e+01 -1.300e+01 -1.300e+01 -1.300e+01 -1.300e+01 -1.300e+01 -1.300e+01 -1.300e+01 -1.300e+01 -1.300e+01 -1.300e+01 -1.300e+01 -1.300e+01 -1.300e+01 -1.300e+01 -1.300e+01 -1.300e+01 -1.300e+01 -1.300e+01 -1.300e+01 -1.300e+01 -1.300e+01 -1.300e+01 -1.300e+01 -1.300e+01 -1.300e+01 -1.300e+01 -1.300e+01 -1.300e+01 -1.300e+01 -1.300e+01 -1.300e+01 -1.300e+01 -1.300e+01 -1.300e+01 -1.300e+01 -1.300e+01 -1.300e+01 -1.300e+01 -1.300e+01 -1.300e+01 -1.300e+01 -1.300e+01 -1.300e+01 -1.300e+01 -1.300e+01 -1.300e+01 -1.300e+01 -1.300e+01 -1.300e+01 -1.300e+01 -1.300e+01 -1.300e+01 -1.300e+01 -1.300e+01 -1.300e+01 -1.300e+01 -1.300e+01 -1.300e+01 -1.300e+01 -1.300e+01 -1.300e+01 -1.300e+01 -1.300e+01 -1.300e+01 -1.300e+01 -1.300e+01 -1.300e+01 -1.300e+01 -1.300e+01 -1.300e+01 -1.300e+01 -1.300e+01 -1.300e+01 -1.300e+01 -1.300e+01 -1.300e+01 -1.300e+01 -1.300e+01 -1.300e+01 -1.300e+01 -1.300e+01 -1.300e+01 -1.300e+01 -1.300e+01 -1.300e+01 -1.300e+01 -1.300e+01 -1.300e+01 -1.300e+01 -1.300e+01 -1.300e+01 -1.300e+01 -1.300e+01 -1.300e+01 -1.300e+01 -1.300e+01 -1.300e+01 -1.300e+01 -1.300e+01 -1.300e+01 -1.300e+01 -1.300e+01 -1.300e+01 -1.300e+01 -1.300e+01 -1.300e+01 -1.300e+01 -1.300e+01 -1.300e+01 -1.300e+01 -1.300e+01 -1.300e+01 -1.300e+01 -1.300e+01 -1.300e+01 -1.300e+01 -1.300e+01 -1.300e+01 -1.300e+01 -1.300e+01 -1.300e+01 -1.300e+01 -1.300e+01 -1.300e+01 -1.300e+01 -1.300e+01 -1.300e+01 -1.300e+01 -1.300e+01 -1.300e+01 -1.300e+01 -1.300e+01 -1.300e+01 -1.300e+01 -1.300e+01 -1.300e+01 -1.300e+01 -1.300e+01 -1.300e+01 -1.300e+01 -1.300e+01 -1.300e+01 -1.300e+01 -1.300e+01 -1.300e+01 -1.300e+01 -1.300e+01 -1.300e+01 -1.300e+01 -1.300e+01 -1.300e+01 -1.300e+01 -1.300e+01 -1.300e+01 -1.300e+01 -1.300e+01 -1.300e+01 -1.300e+01 -1.300e+01 -1.300e+01 -1.300e+01 -1.300e+01 -1.300e+01 -1.300e+01 -1.300e+01 -1.300e+01 -1.300e+01 -1.300e+01 -1.300e+01 -1.300e+01 -1.300e+01 -1.300e+01 -1.300e+01 -1.300e+01 -1.300e+01 -1.300e+01 -1.300e+01 -1.300e+01 -1.300e+01 -1.300e+01 -1.300e+01 -1.300e+01 -1.300e+01 -1.300e+01 -1.300e+01 -1.300e+01 -1.300e+01 -1.300e+01 -1.300e+01 -1.300e+01 -1.300e+01 -1.300e+01 -1.300e+01 -1.300e+01 -1.300e+01 -1.300e+01 -1.300e+01 -1.300e+01 -1.300e+01 -1.300e+01 -1.300e+01 -1.300e+01 -1.300e+01 -1.300e+01 -1.300e+01 -1.300e+01 -1.300e+01 -1.300e+01 -1.300e+01 -1.300e+01 -1.300e+01 -1.300e+01 -1.300e+01 -1.300e+01 -1.300e+01 -1.300e+01 -1.300e+01 -1.300e+01 -1.300e+01 -1.300e+01 -1.300e+01 -1.300e+01 -1.300e+01 -1.300e+01 -1.300e+01 -1.300e+01 -1.300e+01 -1.300e+01 -1.300e+01 -1.300e+01 -1.300e+01 -1.300e+01 -1.300e+01 -1.300e+01 -1.300e+01 -1.300e+01 -1.300e+01 -1.300e+01 -1.300e+01 -1.300e+01 -1.300e+01 -1.300e+01 -1.300e+01 -1.300e+01 -1.300e+01 -1.300e+01 -1.300e+01 -1.300e+01 -1.300e+01 -1.300e+01 -1.300e+01 -1.300e+01 -1.300e+01 -1.300e+01 -1.300e+01 -1.300e+01 -1.300e+01 -1.300e+01 -1.300e+01 -1.300e+01 -1.300e+01 -1.300e+01 -1.300e+01 -1.300e+01 -1.300e+01 -1.300e+01 -1.300e+01 -1.300e+01 -1.300e+01 -1.300e+01 -1.300e+01 -1.300e+01 -1.300e+01 -1.300e+01 -1.300e+01 -1.300e+01 -1.300e+01 -1.300e+01 -1.300e+01 -1.300e+01 -1.300e+01 -1.300e+01 -1.300e+01 -1.300e+01 -1.300e+01 -1.300e+01 -1.300e+01 -1.300e+01 -1.300e+01 -1.300e+01 -1.300e+01 -1.300e+01 -1.300e+01 -1.300e+01 -1.300e+01 -1.300e+01 -1.300e+01 -1.300e+01 -1.300e+01 -1.300e+01 -1.300e+01 -1.300e+01 -1.300e+01 -1.300e+01 -1.300e+01 -1.300e+01 -1.300e+01 -1.300e+01 -1.300e+01 -1.300e+01 -1.300e+01 -1.300e+01 -1.300e+01 -1.300e+01 -1.300e+01 -1.300e+01 -1.300e+01 -1.300e+01 -1.300e+01 -1.300e+01 -1.300e+01 -1.300e+01 -1.300e+01 -1.300e+01 -1.300e+01 -1.300e+01 -1.300e+01 -1.300e+01 -1.300e+01 -1.300e+01 -1.300e+01 -1.300e+01 -1.300e+01 -1.300e+01 -1.300e+01 -1.300e+01 -1.300e+01 -1.300e+01 -1.300e+01 -1.300e+01 -1.300e+01 -1.300e+01 -1.300e+01 -1.300e+01 -1.300e+01 -1.300e+01 -1.300e+01 -1.300e+01 -1.300e+01 -1.300e+01 -1.300e+01 -1.300e+01 -1.300e+01 -1.300e+01 -1.300e+01 -1.300e+01 -1.300e+01 -1.300e+01 -1.300e+01 -1.300e+01 -1.300e+01 -1.300e+01 -1.300e+01 -1.300e+01 -1.300e+01 -1.300e+01 -1.300e+01 -1.300e+01 -1.300e+01 -1.300e+01 -1.300e+01 -1.300e+01 -1.300e+01 -1.300e+01 -1.300e+01 -1.300e+01 -1.300e+01 -1.300e+01 -1.300e+01 -1.300e+01 -1.300e+01 -1.300e+01 -1.300e+01 -1.300e+01 -1.300e+01 -1.300e+01 -1.300e+01 -1.300e+01 -1.300e+01 -1.300e+01 -1.300e+01 -1.300e+01 -1.300e+01 -1.300e+01 -1.300e+01 -1.300e+01 -1.300e+01 -1.300e+01 -1.300e+01 -1.300e+01 -1.300e+01 -1.300e+01 -1.300e+01 -1.300e+01 -1.300e+01 -1.300e+01 -1.300e+01 -1.300e+01 -1.300e+01 -1.300e+01 -1.300e+01 -1.300e+01 -1.300e+01 -1.300e+01 -1.300e+01 -1.300e+01 -1.300e+01 -1.300e+01 -1.300e+01 -1.300e+01 -1.300e+01 -1.300e+01 -1.300e+01 -1.300e+01 -1.300e+01 -1.300e+01 -1.300e+01 -1.300e+01 -1.300e+01 -1.300e+01 -1.300e+01 -1.300e+01 -1.300e+01 -1.300e+01 -1.300e+01 -1.300e+01 -1.300e+01 -1.300e+01 -1.300e+01 -1.300e+01 -1.300e+01 -1.300e+01 -1.300e+01 -1.300e+01 -1.300e+01 -1.300e+01 -1.300e+01 -1.300e+01 -1.300e+01 -1.300e+01 -1.300e+01 -1.300e+01 -1.300e+01 -1.300e+01 -1.300e+01 -1.300e+01 -1.300e+01 -1.300e+01 -1.300e+01 -1.300e+01 -1.300e+01 -1.300e+01 -1.300e+01 -1.300e+01 -1.300e+01 -1.300e+01 -1.300e+01 -1.300e+01 -1.300e+01 -1.300e+01 -1.300e+01 -1.300e+01 -1.300e+01 -1.300e+01 -1.300e+01 -1.300e+01 -1.300e+01 -1.300e+01 -1.300e+01 -1.300e+01 -1.300e+01 -1.300e+01 -1.300e+01 -1.300e+01 -1.300e+01 -1.300e+01 -1.300e+01 -1.300e+01 -1.300e+01 -1.300e+01 -1.300e+01 -1.300e+01 -1.300e+01 -1.300e+01 -1.300e+01 -1.300e+01 -1.300e+01 -1.300e+01 -1.300e+01 -1.300e+01 -1.300e+01 -1.300e+01 -1.300e+01 -1.300e+01 -1.300e+01 -1.300e+01