<?xml version="1.0"?>
<VTKFile type="UnstructuredGrid" version="0.1" byte_order="LittleEndian">
   <UnstructuredGrid>
      <Piece NumberOfPoints="61780" NumberOfCells="4544">
         <Points>
            <DataArray type="Float32" Name="Position" NumberOfComponents="3" format="ascii">
-0.067	-5.033	-0.121
-0.067	-5.026	-0.116
-0.068	-5.017	-0.115
-0.071	-5.010	-0.119
-0.075	-5.006	-0.127
-0.077	-5.009	-0.136
-0.078	-5.016	-0.142
-0.076	-5.025	-0.143
-0.073	-5.033	-0.138
-0.069	-5.036	-0.130
-0.889	-5.216	0.155
-0.889	-5.209	0.161
-0.891	-5.200	0.163
-0.895	-5.193	0.159
-0.899	-5.189	0.152
-0.902	-5.191	0.144
-0.903	-5.198	0.137
-0.901	-5.207	0.136
-0.897	-5.215	0.139
-0.892	-5.218	0.147
-1.536	-5.493	0.523
-1.535	-5.487	0.530
-1.538	-5.479	0.533
-1.544	-5.472	0.532
-1.550	-5.468	0.525
-1.554	-5.469	0.517
-1.554	-5.475	0.510
-1.551	-5.483	0.507
-1.546	-5.490	0.508
-1.540	-5.494	0.515
-2.098	-5.958	0.846
-2.098	-5.954	0.854
-2.102	-5.947	0.859
-2.108	-5.940	0.859
-2.115	-5.936	0.854
-2.119	-5.936	0.845
-2.119	-5.941	0.837
-2.115	-5.947	0.832
-2.108	-5.954	0.832
-2.102	-5.958	0.837
-2.640	-6.558	1.086
-2.641	-6.556	1.095
-2.645	-6.550	1.101
-2.652	-6.544	1.102
-2.659	-6.540	1.097
-2.663	-6.539	1.089
-2.663	-6.542	1.080
-2.658	-6.547	1.074
-2.651	-6.553	1.074
-2.644	-6.558	1.078
-2.778	-6.734	1.125
-2.778	-6.732	1.134
-2.783	-6.727	1.140
-2.790	-6.721	1.142
-2.797	-6.717	1.137
-2.801	-6.716	1.129
-2.801	-6.718	1.120
-2.796	-6.723	1.114
-2.789	-6.729	1.113
-2.782	-6.733	1.117
-0.142	-5.073	-0.244
-0.141	-5.065	-0.239
-0.142	-5.056	-0.239
-0.144	-5.048	-0.244
-0.147	-5.046	-0.253
-0.149	-5.049	-0.261
-0.150	-5.056	-0.267
-0.149	-5.066	-0.267
-0.147	-5.073	-0.262
-0.144	-5.076	-0.253
-0.942	-5.149	-0.032
-0.941	-5.141	-0.027
-0.942	-5.132	-0.027
-0.944	-5.124	-0.031
-0.948	-5.122	-0.039
-0.951	-5.124	-0.048
-0.952	-5.132	-0.053
-0.951	-5.141	-0.053
-0.948	-5.148	-0.049
-0.945	-5.151	-0.041
-1.673	-5.258	0.360
-1.671	-5.250	0.365
-1.671	-5.241	0.365
-1.675	-5.233	0.361
-1.679	-5.230	0.353
-1.683	-5.233	0.346
-1.685	-5.241	0.340
-1.684	-5.250	0.340
-1.681	-5.257	0.344
-1.677	-5.260	0.352
-2.399	-5.301	0.770
-2.398	-5.294	0.775
-2.399	-5.285	0.776
-2.402	-5.277	0.771
-2.406	-5.274	0.763
-2.408	-5.277	0.754
-2.409	-5.285	0.749
-2.408	-5.294	0.748
-2.405	-5.301	0.753
-2.401	-5.304	0.761
-3.213	-5.503	0.895
-3.213	-5.497	0.901
-3.216	-5.488	0.903
-3.219	-5.480	0.898
-3.222	-5.477	0.890
-3.223	-5.479	0.881
-3.222	-5.486	0.875
-3.220	-5.494	0.874
-3.216	-5.502	0.878
-3.214	-5.505	0.886
-3.542	-5.635	0.978
-3.543	-5.629	0.985
-3.546	-5.620	0.987
-3.550	-5.613	0.983
-3.554	-5.609	0.975
-3.555	-5.611	0.966
-3.554	-5.617	0.959
-3.551	-5.626	0.958
-3.547	-5.633	0.961
-3.544	-5.637	0.969
-0.714	-5.773	-1.239
-0.711	-5.768	-1.232
-0.714	-5.764	-1.224
-0.721	-5.763	-1.219
-0.730	-5.764	-1.217
-0.738	-5.768	-1.221
-0.741	-5.774	-1.228
-0.738	-5.778	-1.236
-0.731	-5.779	-1.242
-0.722	-5.777	-1.243
-0.516	-6.498	-0.809
-0.513	-6.492	-0.803
-0.516	-6.487	-0.795
-0.523	-6.485	-0.790
-0.532	-6.487	-0.789
-0.540	-6.491	-0.792
-0.542	-6.497	-0.798
-0.540	-6.502	-0.806
-0.532	-6.504	-0.811
-0.523	-6.502	-0.812
-0.299	-7.109	-0.190
-0.296	-7.102	-0.184
-0.299	-7.097	-0.177
-0.307	-7.095	-0.172
-0.316	-7.097	-0.170
-0.323	-7.103	-0.173
-0.325	-7.109	-0.179
-0.322	-7.114	-0.186
-0.315	-7.116	-0.192
-0.306	-7.114	-0.193
-0.023	-7.790	0.312
-0.020	-7.784	0.318
-0.023	-7.780	0.326
-0.030	-7.778	0.332
-0.039	-7.780	0.333
-0.046	-7.785	0.330
-0.049	-7.791	0.323
-0.046	-7.796	0.316
-0.039	-7.797	0.310
-0.030	-7.795	0.309
0.156	-8.350	0.693
0.159	-8.344	0.700
0.156	-8.340	0.708
0.149	-8.338	0.713
0.140	-8.340	0.715
0.133	-8.345	0.711
0.130	-8.350	0.704
0.132	-8.355	0.697
0.140	-8.356	0.691
0.149	-8.354	0.690
-3.288	-17.487	-6.990
-3.285	-17.479	-6.986
-3.288	-17.472	-6.982
-3.296	-17.467	-6.979
-3.305	-17.467	-6.978
-3.312	-17.472	-6.981
-3.315	-17.480	-6.985
-3.312	-17.488	-6.989
-3.305	-17.492	-6.992
-3.296	-17.492	-6.992
-3.246	-17.908	-6.217
-3.243	-17.900	-6.213
-3.246	-17.893	-6.209
-3.254	-17.888	-6.206
-3.263	-17.888	-6.206
-3.271	-17.893	-6.209
-3.273	-17.901	-6.213
-3.271	-17.908	-6.217
-3.263	-17.913	-6.219
-3.254	-17.913	-6.220
-3.250	-18.310	-5.415
-3.247	-18.302	-5.411
-3.250	-18.294	-5.407
-3.257	-18.290	-5.405
-3.266	-18.290	-5.404
-3.274	-18.295	-5.407
-3.277	-18.303	-5.410
-3.274	-18.310	-5.414
-3.267	-18.315	-5.417
-3.257	-18.315	-5.417
-3.240	-18.375	-5.281
-3.237	-18.367	-5.277
-3.240	-18.359	-5.273
-3.248	-18.354	-5.270
-3.257	-18.354	-5.270
-3.264	-18.360	-5.272
-3.267	-18.368	-5.275
-3.264	-18.375	-5.279
-3.257	-18.380	-5.282
-3.248	-18.380	-5.283
-3.295	-17.631	-7.031
-3.292	-17.623	-7.027
-3.295	-17.616	-7.022
-3.303	-17.611	-7.019
-3.312	-17.612	-7.019
-3.319	-17.617	-7.021
-3.322	-17.625	-7.025
-3.319	-17.632	-7.030
-3.312	-17.637	-7.033
-3.303	-17.636	-7.033
-3.239	-18.045	-6.287
-3.236	-18.038	-6.282
-3.239	-18.031	-6.277
-3.247	-18.027	-6.273
-3.256	-18.028	-6.272
-3.263	-18.033	-6.274
-3.266	-18.041	-6.279
-3.263	-18.048	-6.284
-3.255	-18.052	-6.288
-3.246	-18.051	-6.289
-3.014	-18.556	-5.599
-3.011	-18.548	-5.594
-3.015	-18.542	-5.587
-3.022	-18.540	-5.582
-3.031	-18.543	-5.580
-3.037	-18.549	-5.582
-3.039	-18.557	-5.587
-3.036	-18.562	-5.593
-3.029	-18.564	-5.599
-3.020	-18.562	-5.601
-2.944	-18.646	-5.505
-2.942	-18.639	-5.499
-2.945	-18.634	-5.492
-2.952	-18.633	-5.486
-2.960	-18.636	-5.483
-2.967	-18.643	-5.485
-2.969	-18.650	-5.491
-2.966	-18.655	-5.498
-2.959	-18.656	-5.504
-2.950	-18.653	-5.507
-3.326	-17.759	-7.064
-3.319	-17.754	-7.066
-3.310	-17.754	-7.068
-3.303	-17.759	-7.070
-3.300	-17.768	-7.071
-3.303	-17.777	-7.070
-3.310	-17.782	-7.068
-3.319	-17.782	-7.065
-3.326	-17.777	-7.063
-3.329	-17.768	-7.063
-3.533	-17.777	-7.829
-3.526	-17.772	-7.832
-3.517	-17.772	-7.834
-3.510	-17.778	-7.835
-3.507	-17.787	-7.836
-3.510	-17.795	-7.835
-3.517	-17.801	-7.833
-3.526	-17.801	-7.830
-3.534	-17.795	-7.829
-3.536	-17.786	-7.828
-3.705	-17.822	-8.537
-3.697	-17.817	-8.539
-3.688	-17.817	-8.541
-3.681	-17.823	-8.542
-3.678	-17.832	-8.542
-3.681	-17.841	-8.541
-3.689	-17.846	-8.539
-3.698	-17.845	-8.537
-3.705	-17.840	-8.535
-3.708	-17.831	-8.535
-3.318	-17.903	-7.116
-3.315	-17.899	-7.108
-3.314	-17.900	-7.099
-3.314	-17.907	-7.093
-3.316	-17.915	-7.091
-3.320	-17.923	-7.094
-3.322	-17.927	-7.102
-3.324	-17.926	-7.111
-3.323	-17.920	-7.118
-3.321	-17.911	-7.120
-2.582	-18.126	-7.272
-2.578	-18.123	-7.264
-2.576	-18.124	-7.255
-2.577	-18.130	-7.248
-2.580	-18.139	-7.246
-2.584	-18.146	-7.250
-2.588	-18.150	-7.257
-2.590	-18.149	-7.266
-2.589	-18.143	-7.273
-2.586	-18.134	-7.275
-1.908	-18.505	-7.504
-1.904	-18.502	-7.496
-1.901	-18.504	-7.487
-1.903	-18.510	-7.480
-1.907	-18.517	-7.478
-1.912	-18.524	-7.481
-1.917	-18.528	-7.488
-1.919	-18.526	-7.497
-1.918	-18.520	-7.504
-1.914	-18.512	-7.506
-1.855	-18.542	-7.524
-1.850	-18.539	-7.517
-1.848	-18.540	-7.508
-1.849	-18.546	-7.501
-1.854	-18.554	-7.498
-1.859	-18.561	-7.501
-1.864	-18.564	-7.508
-1.866	-18.562	-7.517
-1.865	-18.556	-7.524
-1.861	-18.549	-7.527
-3.320	-18.070	-7.134
-3.322	-18.062	-7.129
-3.324	-18.053	-7.129
-3.325	-18.046	-7.135
-3.326	-18.043	-7.144
-3.325	-18.047	-7.153
-3.324	-18.054	-7.158
-3.322	-18.063	-7.157
-3.320	-18.070	-7.152
-3.320	-18.073	-7.143
-4.221	-18.246	-7.132
-4.223	-18.238	-7.127
-4.225	-18.229	-7.127
-4.226	-18.222	-7.133
-4.227	-18.220	-7.142
-4.225	-18.223	-7.150
-4.223	-18.230	-7.156
-4.221	-18.239	-7.155
-4.220	-18.246	-7.150
-4.219	-18.249	-7.141
-4.575	-18.353	-7.169
-4.578	-18.346	-7.163
-4.581	-18.337	-7.164
-4.582	-18.330	-7.169
-4.582	-18.327	-7.178
-4.581	-18.330	-7.187
-4.578	-18.337	-7.192
-4.575	-18.346	-7.192
-4.574	-18.353	-7.186
-4.574	-18.356	-7.177
-3.326	-18.193	-7.192
-3.324	-18.189	-7.184
-3.323	-18.190	-7.175
-3.324	-18.196	-7.168
-3.325	-18.205	-7.167
-3.327	-18.214	-7.170
-3.329	-18.218	-7.179
-3.330	-18.216	-7.188
-3.330	-18.210	-7.194
-3.328	-18.201	-7.196
-2.509	-18.337	-7.307
-2.508	-18.333	-7.299
-2.508	-18.335	-7.290
-2.508	-18.341	-7.283
-2.508	-18.350	-7.282
-2.509	-18.358	-7.286
-2.511	-18.363	-7.294
-2.511	-18.361	-7.303
-2.511	-18.355	-7.310
-2.510	-18.346	-7.311
-1.907	-18.344	-7.323
-1.907	-18.340	-7.315
-1.907	-18.341	-7.306
-1.906	-18.348	-7.299
-1.907	-18.357	-7.298
-1.907	-18.365	-7.302
-1.907	-18.369	-7.311
-1.907	-18.368	-7.320
-1.907	-18.361	-7.326
-1.907	-18.352	-7.328
-3.332	-18.337	-7.229
-3.329	-18.333	-7.221
-3.327	-18.336	-7.212
-3.326	-18.343	-7.206
-3.326	-18.352	-7.205
-3.329	-18.360	-7.210
-3.332	-18.363	-7.218
-3.334	-18.361	-7.226
-3.336	-18.354	-7.232
-3.335	-18.345	-7.233
-2.564	-18.434	-7.484
-2.562	-18.430	-7.476
-2.561	-18.432	-7.467
-2.560	-18.439	-7.461
-2.561	-18.448	-7.460
-2.562	-18.456	-7.464
-2.564	-18.460	-7.472
-2.566	-18.458	-7.481
-2.566	-18.451	-7.488
-2.566	-18.442	-7.489
-2.136	-18.475	-7.504
-2.132	-18.467	-7.504
-2.133	-18.458	-7.504
-2.140	-18.451	-7.504
-2.149	-18.450	-7.504
-2.157	-18.454	-7.504
-2.161	-18.462	-7.504
-2.160	-18.472	-7.504
-2.153	-18.478	-7.504
-2.144	-18.480	-7.504
-3.329	-18.506	-7.251
-3.329	-18.499	-7.244
-3.332	-18.490	-7.243
-3.335	-18.482	-7.247
-3.338	-18.479	-7.255
-3.340	-18.481	-7.264
-3.340	-18.488	-7.270
-3.337	-18.497	-7.272
-3.334	-18.504	-7.268
-3.331	-18.508	-7.259
-4.110	-18.752	-7.051
-4.111	-18.746	-7.044
-4.114	-18.737	-7.042
-4.117	-18.730	-7.046
-4.121	-18.726	-7.054
-4.123	-18.728	-7.063
-4.122	-18.734	-7.069
-4.119	-18.743	-7.071
-4.115	-18.751	-7.067
-4.112	-18.754	-7.060
-4.503	-18.928	-6.933
-4.504	-18.921	-6.926
-4.507	-18.913	-6.924
-4.511	-18.905	-6.927
-4.515	-18.902	-6.935
-4.517	-18.903	-6.944
-4.517	-18.909	-6.951
-4.514	-18.918	-6.953
-4.509	-18.925	-6.950
-4.505	-18.929	-6.942
-3.335	-18.629	-7.307
-3.333	-18.624	-7.299
-3.333	-18.625	-7.290
-3.334	-18.631	-7.283
-3.337	-18.639	-7.281
-3.339	-18.648	-7.284
-3.341	-18.652	-7.292
-3.341	-18.652	-7.301
-3.339	-18.646	-7.308
-3.337	-18.637	-7.311
-2.470	-18.873	-7.332
-2.469	-18.869	-7.325
-2.469	-18.869	-7.315
-2.471	-18.874	-7.308
[...]
         <CellData>
           <DataArray type="Float32" Name="combinedRootClassID" NumberOfComponents="1" format="ascii">
 -1.300e+01 -1.300e+01 -1.300e+01 -1.300e+01 -1.300e+01 -1.300e+01 -1.300e+01 -1.300e+01 -1.300e+01 -1.300e+01 -1.300e+01 -1.300e+01 -1.300e+01 -1.300e+01 -1.300e+01 -1.300e+01 -1.300e+01 -1.300e+01 -1.300e+01 -1.300e+01 -1.300e+01 -1.300e+01 -1.300e+01 -1.300e+01 -1.300e+01 -1.300e+01 -1.300e+01 -1.300e+01 -1.300e+01 -1.300e+01 -1.300e+01 -1.300e+01 -1.300e+01 -1.300e+01 -1.300e+01 -1.300e+01 -1.300e+01 -1.300e+01 -1.300e+01 -1.300e+01 -1.300e+01 -1.300e+01 -1.300e+01 -1.300e+01 -1.300e+01 -1.300e+01 -1.300e+01 -1.300e+01 -1.300e+01 -1.300e+01 -1.300e+01 -1.300e+01 -1.300e+01 -1.300e+01 -1.300e+01 -1.300e+01 -1.300e+01 -1.300e+01 -1.300e+01 -1.300e+01 -1.300e+01 -1.300e+01 -1.300e+01 -1.300e+01 -1.300e+01 -1.300e+01 -1.300e+01 -1.300e+01 -1.300e+01 -1.300e+01 -1.300e+01 -1.300e+01 -1.300e+01 -1.300e+01 -1.300e+01 -1.300e+01 -1.300e+01 -1.300e+01 -1.300e+01 -1.300e+01 -1.300e+01 -1.300e+01 -1.300e+01 -1.300e+01 -1.300e+01 -1.300e+01 -1.300e+01 -1.300e+01 -1.300e+01 -1.300e+01 -1.300e+01 -1.300e+01 -1.300e+01 -1.300e+01 -1.300e+01 -1.300e+01 -1.300e+01 -1.300e+01 -1.300e+01 -1.300e+01 -1.300e+01 -1.300e+01 -1.300e+01 -1.300e+01 -1.300e+01 -1.300e+01 -1.300e+01 -1.300e+01 -1.300e+01 -1.300e+01 -1.300e+01 -1.300e+01 -1.300e+01 -1.300e+01 -1.300e+01 -1.300e+01 -1.300e+01 -1.300e+01 -1.300e+01 -1.300e+01 -1.300e+01 -1.300e+01 -1.300e+01 -1.300e+01 -1.300e+01 -1.300e+01 -1.300e+01 -1.300e+01 -1.300e+01 -1.300e+01 -1.300e+01 -1.300e+01 -1.300e+01 -1.300e+01 -1.300e+01 -1.300e+01 -1.300e+01 -1.300e+01 -1.300e+01 -1.300e+01 -1.300e+01 -1.300e+01 -1.300e+01 -1.300e+01 -1.300e+01 -1.300e+01 -1.300e+01 -1.300e+01 -1.300e+01 -1.300e+01 -1.300e+01 -1.300e+01 -1.300e+01 -1.300e+01 -1.300e+01 -1.300e+01 -1.300e+01 -1.300e+01 -1.300e+01 -1.300e+01 -1.300e+01 -1.300e+01 -1.300e+01 -1.300e+01 -1.300e+01 -1.300e+01 -1.300e+01 -1.300e+01 -1.300e+01 -1.300e+01 -1.300e+01 -1.300e+01 -1.300e+01 -1.300e+01 -1.300e+01 -1.300e+01 -1.300e+01 -1.300e+01 -1.300e+01 -1.300e+01 -1.300e+01 -1.300e+01 -1.300e+01 -1.300e+01 -1.300e+01 -1.300e+01 -1.300e+01 -1.300e+01 -1.300e+01 -1.300e+01 -1.300e+01 -1.300e+01 -1.300e+01 -1.300e+01 -1.300e+01 -1.300e+01 -1.300e+01 -1.300e+01 -1.300e+01 -1.300e+01 -1.300e+01 -1.300e+01 -1.300e+01 -1.300e+01 -1.300e+01 -1.300e+01 -1.300e+01 -1.300e+01 -1.300e+01 -1.300e+01 -1.300e+01 -1.300e+01 -1.300e+01 -1.300e+01 -1.300e+01 -1.300e+01 -1.300e+01 -1.300e+01 -1.300e+01 -1.300e+01 -1.300e+01 -1.300e+01 -1.300e+01 -1.300e+01 -1.300e+01 -1.300e+01 -1.300e+01 -1.300e+01 -1.300e+01 -1.300e+01 -1.300e+01 -1.300e+01 -1.300e+01 -1.300e+01 -1.300e+01 -1.300e+01 -1.300e+01 -1.300e+01 -1.300e+01 -1.300e+01 -1.300e+01 -1.300e+01 -1.300e+01 -1.300e+01 -1.300e+01 -1.300e+01 -1.300e+01 -1.300e+01 -1.300e+01 -1.300e+01 -1.300e+01 -1.300e+01 -1.300e+01 -1.300e+01 -1.300e+01 -1.300e+01 -1.300e+01 -1.300e+01 -1.300e+01 -1.300e+01 -1.300e+01 -1.300e+01 -1.300e+01 -1.300e+01 -1.300e+01 -1.300e+01 -1.300e+01 -1.300e+01 -1.300e+01 -1.300e+01 -1.300e+01 -1.300e+01 -1.300e+01 -1.300e+01 -1.300e+01 -1.300e+01 -1.300e+01 -1.300e+01 -1.300e+01 -1.300e+01 -1.300e+01 -1.300e+01 -1.300e+01 -1.300e+01 -1.300e+01 -1.300e+01 -1.300e+01 -1.300e+01 -1.300e+01 -1.300e+01 -1.300e+01 -1.300e+01 -1.300e+01 -1.300e+01 -1.300e+01 -1.300e+01 -1.300e+01 -1.300e+01 -1.300e+01 -1.300e+01 -1.300e+01 -1.300e+01 -1.300e+01 -1.300e+01 -1.300e+01 -1.300e+01 -1.300e+01 -1.300e+01 -1.300e+01 -1.300e+01 -1.300e+01 -1.300e+01 -1.300e+01 -1.300e+01 -1.300e+01 -1.300e+01 -1.300e+01 -1.300e+01 -1.300e+01 -1.300e+01 -1.300e+01 -1.300e+01 -1.300e+01 -1.300e+01 -1.300e+01 -1.300e+01 -1.300e+01 -1.300e+01 -1.300e+01 -1.300e+01 -1.300e+01 -1.300e+01 -1.300e+01 -1.300e+01 -1.300e+01 -1.300e+01 -1.300e+01 -1.300e+01 -1.300e+01 -1.300e+01 -1.300e+01 -1.300e+01 -1.300e+01 -1.300e+01 -1.300e+01 -1.300e+01 -1.300e+01 -1.300e+01 -1.300e+01 -1.300e+01 -1.300e+01 -1.300e+01 -1.300e+01 -1.300e+01 -1.300e+01 -1.300e+01 -1.300e+01 -1.300e+01 -1.300e+01 -1.300e+01 -1.300e+01 -1.300e+01 -1.300e+01 -1.300e+01 -1.300e+01 -1.300e+01 -1.300e+01 -1.300e+01 -1.300e+01 -1.300e+01 -1.300e+01 -1.300e+01 -1.300e+01 -1.300e+01 -1.300e+01 -1.300e+01 -1.300e+01 -1.300e+01 -1.300e+01 -1.300e+01 -1.300e+01 -1.300e+01 -1.300e+01 -1.300e+01 -1.300e+01 -1.300e+01 -1.300e+01 -1.300e+01 -1.300e+01 -1.300e+01 -1.300e+01 -1.300e+01 -1.300e+01 -1.300e+01 -1.300e+01 -1.300e+01 -1.300e+01 -1.300e+01 -1.300e+01 -1.300e+01 -1.300e+01 -1.300e+01 -1.300e+01 -1.300e+01 -1.300e+01 -1.300e+01 -1.300e+01 -1.300e+01 -1.300e+01 -1.300e+01 -1.300e+01 -1.300e+01 -1.300e+01 -1.300e+01 -1.300e+01 -1.300e+01 -1.300e+01 -1.300e+01 -1.300e+01 -1.300e+01 -1.300e+01 -1.300e+01 -1.300e+01 -1.300e+01 -1.300e+01 -1.300e+01 -1.300e+01 -1.300e+01 -1.300e+01 -1.300e+01 -1.300e+01 -1.300e+01 -1.300e+01 -1.300e+01 -1.300e+01 -1.300e+01 -1.300e+01 -1.300e+01 -1.300e+01 -1.300e+01 -1.300e+01 -1.300e+01 -1.300e+01 -1.300e+01 -1.300e+01 -1.300e+01 -1.300e+01 -1.300e+01 -1.300e+01 -1.300e+01 -1.300e+01 -1.300e+01 -1.300e+01 -1.300e+01 -1.300e+01 -1.300e+01 -1.300e+01 -1.300e+01 -1.300e+01 -1.300e+01 -1.300e+01 -1.300e+01 -1.300e+01 -1.300e+01 -1.300e+01 -1.300e+01 -5.000e+00 -5.000e+00 -5.000e+00 -5.000e+00 -5.000e+00 -5.000e+00 -5.000e+00 -5.000e+00 -5.000e+00 -5.000e+00 -5.000e+00 -5.000e+00 -5.000e+00 -5.000e+00 -5.000e+00 -5.000e+00 -5.000e+00 -5.000e+00 -5.000e+00 -5.000e+00 -5.000e+00 -5.000e+00 -5.000e+00 -5.000e+00 -5.000e+00 -5.000e+00 -5.000e+00 -5.000e+00 -5.000e+00 -5.000e+00 -5.000e+00 -5.000e+00 -5.000e+00 -5.000e+00 -5.000e+00 -5.000e+00 -5.000e+00 -5.000e+00 -5.000e+00 -5.000e+00 -5.000e+00 -5.000e+00 -5.000e+00 -1.300e+01 -1.300e+01 -1.300e+01 -1.300e+01 -1.300e+01 -1.300e+01 -1.300e+01 -1.300e+01 -1.300e+01 -1.300e+01 -1.300e+01 -1.300e+01 -1.300e+01 -1.300e+01 -1.300e+01 -1.300e+01 -1.300e+01 -1.300e+01 -1.300e+01 -1.300e+01 -1.300e+01 -1.300e+01 -1.300e+01 -1.300e+01 -1.300e+01 -1.300e+01 -1.300e+01 -1.300e+01 -1.300e+01 -1.300e+01 -1.300e+01 -1.300e+01 -1.300e+01 -1.300e+01 -1.300e+01 -1.300e+01 -1.300e+01 -1.300e+01 -1.300e+01 -1.300e+01 -1.300e+01 -1.300e+01 -1.300e+01 -1.300e+01 -1.300e+01 -1.300e+01 -1.300e+01 -1.300e+01 -1.300e+01 -1.300e+01 -1.300e+01 -1.300e+01 -1.300e+01 -1.300e+01 -1.300e+01 -1.300e+01 -1.300e+01 -1.300e+01 -1.300e+01 -1.300e+01 -1.300e+01 -1.300e+01 -1.300e+01 -1.300e+01 -1.300e+01 -1.300e+01 -1.300e+01 -1.300e+01 -1.300e+01 -1.300e+01 -1.300e+01 -1.300e+01 -1.300e+01 -1.300e+01 -1.300e+01 -1.300e+01 -1.300e+01 -1.300e+01 -1.300e+01 -1.300e+01 -1.300e+01 -1.300e+01 -1.300e+01 -1.300e+01 -1.300e+01 -1.300e+01 -1.300e+01 -1.300e+01 -1.300e+01 -1.300e+01 -1.300e+01 -1.300e+01 -1.300e+01 -1.300e+01 -1.300e+01 -1.300e+01 -1.300e+01 -1.300e+01 -1.300e+01 -1.300e+01 -1.300e+01 -1.300e+01 -1.300e+01 -1.300e+01 -1.300e+01 -1.300e+01 -1.300e+01 -1.300e+01 -1.300e+01 -1.300e+01 -1.300e+01 -1.300e+01 -1.300e+01 -1.300e+01 -1.300e+01 -1.300e+01 -1.300e+01 -1.300e+01 -1.300e+01 -1.300e+01 -1.300e+01 -1.300e+01 -1.300e+01 -1.300e+01 -1.300e+01 -1.300e+01 -1.300e+01 -1.300e+01 -1.300e+01 -1.300e+01 -1.300e+01 -1.300e+01 -1.300e+01 -1.300e+01 -1.300e+01 -1.300e+01 -1.300e+01 -1.300e+01 -1.300e+01 -1.300e+01 -1.300e+01 -1.300e+01 -1.300e+01 -1.300e+01 -1.300e+01 -1.300e+01 -1.300e+01 -1.300e+01 -1.300e+01 -1.300e+01 -1.300e+01 -1.300e+01 -1.300e+01 -1.300e+01 -1.300e+01 -1.300e+01 -1.300e+01 -1.300e+01 -1.300e+01 -1.300e+01 -1.300e+01 -1.300e+01 -1.300e+01 -1.300e+01 -1.300e+01 -1.300e+01 -1.300e+01 -1.300e+01 -1.300e+01 -1.300e+01 -1.300e+01 -1.300e+01 -1.300e+01 -1.300e+01 -1.300e+01 -1.300e+01 -1.300e+01 -1.300e+01 -1.300e+01 -1.300e+01 -1.300e+01 -1.300e+01 -1.300e+01 -1.300e+01 -1.300e+01 -1.300e+01 -1.300e+01 -1.300e+01 -1.300e+01 -1.300e+01 -1.300e+01 -1.300e+01 -1.300e+01 -1.300e+01 -1.300e+01 -1.300e+01 -1.300e+01 -1.300e+01 -1.300e+01 -1.300e+01 -1.300e+01 -1.300e+01 -1.300e+01 -1.300e+01 -1.300e+01 -1.300e+01 -1.300e+01 -1.300e+01 -1.300e+01 -1.300e+01 -1.300e+01 -1.300e+01 -1.300e+01 -1.300e+01 -1.300e+01 -1.300e+01 -1.300e+01 -1.300e+01 -1.300e+01 -1.300e+01 -1.300e+01 -1.300e+01 -1.300e+01 -1.300e+01 -1.300e+01 -1.300e+01 -1.300e+01 -1.300e+01 -1.300e+01 -1.300e+01 -1.300e+01 -1.300e+01 -1.300e+01 -1.300e+01 -1.300e+01 -1.300e+01 -1.300e+01 -1.300e+01 -1.300e+01 -1.300e+01 -1.300e+01 -1.300e+01 -1.300e+01 -1.300e+01 -1.300e+01 -1.300e+01 -1.300e+01 -1.300e+01 -1.300e+01 -1.300e+01 -1.300e+01 -1.300e+01 -1.300e+01 -1.300e+01 -1.300e+01 -1.300e+01 -1.300e+01 -1.300e+01 -1.300e+01 -1.300e+01 -1.300e+01 -1.300e+01 -1.300e+01 -1.300e+01 -1.300e+01 -1.300e+01 -1.300e+01 -1.300e+01 -1.300e+01 -1.300e+01 -1.300e+01 -1.300e+01 -1.300e+01 -1.300e+01 -1.300e+01 -1.300e+01 -1.300e+01 -1.300e+01 -1.300e+01 -1.300e+01 -1.300e+01 -1.300e+01 -1.300e+01 -1.300e+01 -1.300e+01 -1.300e+01 -1.300e+01 -1.300e+01 -1.300e+01 -1.300e+01 -1.300e+01 -1.300e+01 -1.300e+01 -1.300e+01 -1.300e+01 -1.300e+01 -1.300e+01 -1.300e+01 -1.300e+01 -1.300e+01 -1.300e+01 -1.300e+01 -1.300e+01 -1.300e+01 -1.300e+01 -1.300e+01 -1.300e+01 -1.300e+01 -1.300e+01 -1.300e+01 -1.300e+01 -1.300e+01 -1.300e+01 -1.300e+01 -1.300e+01 -1.300e+01 -1.300e+01 -1.300e+01 -1.300e+01 -1.300e+01 -1.300e+01 -1.300e+01 -1.300e+01 -1.300e+01 -1.300e+01 -1.300e+01 -1.300e+01 -1.300e+01 -1.300e+01 -1.300e+01 -1.300e+01 -1.300e+01 -1.300e+01 -1.300e+01 -1.300e+01 -1.300e+01 -1.300e+01 -1.300e+01 -1.300e+01 -1.300e+01 -1.300e+01 -1.300e+01 -1.300e+01 -1.300e+01 -1.300e+01 -1.300e+01 -1.300e+01 -1.300e+01 -1.300e+01 -1.300e+01 -1.300e+01 -1.300e+01 -1.300e+01 -1.300e+01 -1.300e+01 -1.300e+01 -1.300e+01 -1.300e+01 -1.300e+01 -1.300e+01 -1.300e+01 -1.300e+01 -1.300e+01 -1.300e+01 -1.300e+01 -1.300e+01 -1.300e+01 -1.300e+01 -1.300e+01 -1.300e+01 -1.300e+01 -1.300e+01 -1.300e+01 -1.300e+01 -1.300e+01 -1.300e+01 -1.300e+01 -1.300e+01 -1.300e+01 -1.300e+01 -1.300e+01 -1.300e+01 -1.300e+01 -1.300e+01 -1.300e+01 -1.300e+01 -1.300e+01 -1.300e+01 -1.300e+01 -1.300e+01 -1.300e+01 -1.300e+01 -1.300e+01 -1.300e+01 -1.300e+01 -1.300e+01 -1.300e+01 -1.300e+01 -1.300e+01 -1.300e+01 -1.300e+01 -1.300e+01 -1.300e+01 -1.300e+01 -1.300e+01 -1.300e+01 -1.300e+01 -1.300e+01 -1.300e+01 -1.300e+01 -1.300e+01 -1.300e+01 -1.300e+01 -1.300e+01 -1.300e+01 -1.300e+01 -1.300e+01 -1.300e+01 -1.300e+01 -1.300e+01 -1.300e+01 -1.300e+01 -1.300e+01 -1.300e+01 -1.300e+01 -1.300e+01 -1.300e+01 -1.300e+01 -1.300e+01 -1.300e+01 -1.300e+01 -1.300e+01 -1.300e+01 -1.300e+01 -1.300e+01 -1.300e+01 -1.300e+01 -1.300e+01 -1.300e+01 -1.300e+01 -1.300e+01 -1.300e+01 -1.300e+01 -1.300e+01 -1.300e+01 -1.300e+01 -1.300e+01 -1.300e+01 -1.300e+01 -5.000e+00 -5.000e+00 -5.000e+00 -5.000e+00 -5.000e+00 -5.000e+00 -5.000e+00 -5.000e+00 -5.000e+00 -5.000e+00 -5.000e+00 -5.000e+00 -5.000e+00 -5.000e+00 -5.000e+00 -5.000e+00 -5.000e+00 -5.000e+00 -5.000e+00 -5.000e+00 -5.000e+00 -5.000e+00 -5.000e+00 -5.000e+00 -5.000e+00 -5.000e+00 -5.000e+00 -5.000e+00 -5.000e+00 -5.000e+00 -5.000e+00 -5.000e+00 -5.000e+00 -5.000e+00 -5.000e+00 -5.000e+00 -5.000e+00 -5.000e+00 -5.000e+00 -5.000e+00 -5.000e+00 -5.000e+00 -5.000e+00 -1.300e+01 -1.300e+01 -1.300e+01 -1.300e+01 -1.300e+01 -1.300e+01 -1.300e+01 -1.300e+01 -1.300e+01 -1.300e+01 -1.300e+01 -1.300e+01 -1.300e+01 -1.300e+01 -1.300e+01 -1.300e+01 -1.300e+01 -1.300e+01 -1.300e+01 -1.300e+01 -1.300e+01 -1.300e+01 -1.300e+01 -1.300e+01 -1.300e+01 -1.300e+01 -1.300e+01 -1.300e+01 -1.300e+01 -1.300e+01 -1.300e+01 -1.300e+01 -1.300e+01 -1.300e+01 -1.300e+01 -1.300e+01 -1.300e+01 -1.300e+01 -1.300e+01 -1.300e+01 -1.300e+01 -1.300e+01 -1.300e+01 -1.300e+01 -1.300e+01 -1.300e+01 -1.300e+01 -1.300e+01 -1.300e+01 -1.300e+01 -1.300e+01 -1.300e+01 -1.300e+01 -1.300e+01 -1.300e+01 -1.300e+01 -1.300e+01 -1.300e+01 -1.300e+01 -1.300e+01 -1.300e+01 -1.300e+01 -1.300e+01 -1.300e+01 -1.300e+01 -1.300e+01 -1.300e+01 -1.300e+01 -1.300e+01 -1.300e+01 -1.300e+01 -1.300e+01 -1.300e+01 -1.300e+01 -1.300e+01 -1.300e+01 -1.300e+01 -1.300e+01 -1.300e+01 -1.300e+01 -1.300e+01 -1.300e+01 -1.300e+01 -1.300e+01 -1.300e+01 -1.300e+01 -1.300e+01 -1.300e+01 -1.300e+01 -1.300e+01 -1.300e+01 -1.300e+01 -1.300e+01 -1.300e+01 -1.300e+01 -1.300e+01 -1.300e+01 -1.300e+01 -1.300e+01 -1.300e+01 -1.300e+01 -1.300e+01 -1.300e+01 -1.300e+01 -1.300e+01 -1.300e+01 -1.300e+01 -1.300e+01 -1.300e+01 -1.300e+01 -1.300e+01 -1.300e+01 -1.300e+01 -1.300e+01 -1.300e+01 -1.300e+01 -1.300e+01 -1.300e+01 -1.300e+01 -1.300e+01 -1.300e+01 -1.300e+01 -1.300e+01 -1.300e+01 -1.300e+01 -1.300e+01 -1.300e+01 -1.300e+01 -1.300e+01 -1.300e+01 -1.300e+01 -1.300e+01 -1.300e+01 -1.300e+01 -1.300e+01 -1.300e+01 -1.300e+01 -1.300e+01 -1.300e+01 -1.300e+01 -1.300e+01 -1.300e+01 -1.300e+01 -1.300e+01 -1.300e+01 -1.300e+01 -1.300e+01 -1.300e+01 -1.300e+01 -1.300e+01 -1.300e+01 -1.300e+01 -1.300e+01 -1.300e+01 -1.300e+01 -1.300e+01 -1.300e+01 -1.300e+01 -1.300e+01 -1.300e+01 -1.300e+01 -1.300e+01 -1.300e+01 -1.300e+01 -1.300e+01 -1.300e+01 -1.300e+01 -1.300e+01 -1.300e+01 -1.300e+01 -1.300e+01 -1.300e+01 -1.300e+01 -1.300e+01 -1.300e+01 -1.300e+01 -1.300e+01 -1.300e+01 -1.300e+01 -1.300e+01 -1.300e+01 -1.300e+01 -1.300e+01 -1.300e+01 -1.300e+01 -1.300e+01 -1.300e+01 -1.300e+01 -1.300e+01 -1.300e+01 -1.300e+01 -1.300e+01 -1.300e+01 -1.300e+01 -1.300e+01 -1.300e+01 -1.300e+01 -1.300e+01 -1.300e+01 -1.300e+01 -1.300e+01 -1.300e+01 -1.300e+01 -1.300e+01 -1.300e+01 -1.300e+01 -1.300e+01 -1.300e+01 -1.300e+01 -1.300e+01 -1.300e+01 -1.300e+01 -1.300e+01 -1.300e+01 -1.300e+01 -1.300e+01 -1.300e+01 -1.300e+01 -1.300e+01 -1.300e+01 -1.300e+01 -1.300e+01 -1.300e+01 -1.300e+01 -1.300e+01 -1.300e+01 -1.300e+01 -1.300e+01 -1.300e+01 -1.300e+01 -1.300e+01 -1.300e+01 -1.300e+01 -1.300e+01 -1.300e+01 -1.300e+01 -1.300e+01 -1.300e+01 -1.300e+01 -1.300e+01 -1.300e+01 -1.300e+01 -1.300e+01 -1.300e+01 -1.300e+01 -1.300e+01 -1.300e+01 -1.300e+01 -1.300e+01 -1.300e+01 -1.300e+01 -1.300e+01 -1.300e+01 -1.300e+01 -1.300e+01 -1.300e+01 -1.300e+01 -1.300e+01 -1.300e+01 -1.300e+01 -1.300e+01 -1.300e+01 -1.300e+01 -1.300e+01 -1.300e+01 -1.300e+01 -1.300e+01 -1.300e+01 -1.300e+01 -1.300e+01 -1.300e+01 -1.300e+01 -1.300e+01 -1.300e+01 -1.300e+01 -1.300e+01 -1.300e+01 -1.300e+01 -1.300e+01 -1.300e+01 -1.300e+01 -1.300e+01 -1.300e+01 -1.300e+01 -1.300e+01 -1.300e+01 -1.300e+01 -1.300e+01 -1.300e+01 -1.300e+01 -1.300e+01 -1.300e+01 -1.300e+01 -1.300e+01 -1.300e+01 -1.300e+01 -1.300e+01 -1.300e+01 -1.300e+01 -1.300e+01 -1.300e+01 -1.300e+01 -1.300e+01 -1.300e+01 -1.300e+01 -1.300e+01 -1.300e+01 -1.300e+01 -1.300e+01 -1.300e+01 -1.300e+01 -1.300e+01 -1.300e+01 -1.300e+01 -1.300e+01 -1.300e+01 -1.300e+01 -1.300e+01 -1.300e+01 -1.300e+01 -1.300e+01 -1.300e+01 -1.300e+01 -1.300e+01 -1.300e+01 -1.300e+01 -1.300e+01 -1.300e+01 -1.300e+01 -1.300e+01 -1.300e+01 -1.300e+01 -1.300e+01 -1.300e+01 -1.300e+01 -1.300e+01 -1.300e+01 -1.300e+01 -1.300e+01 -1.300e+01 -1.300e+01 -1.300e+01 -1.300e+01 -1.300e+01 -1.300e+01 -1.300e+01 -1.300e+01 -1.300e+01 -1.300e+01 -1.300e+01 -1.300e+01 -1.300e+01 -1.300e+01 -1.300e+01 -1.300e+01 -1.300e+01 -1.300e+01 -1.300e+01 -1.300e+01 -1.300e+01 -1.300e+01 -1.300e+01 -1.300e+01 -1.300e+01 -1.300e+01 -1.300e+01 -1.300e+01 -1.300e+01 -1.300e+01 -1.300e+01 -1.300e+01 -1.300e+01 -1.300e+01 -1.300e+01 -1.300e+01 -1.300e+01 -1.300e+01 -1.300e+01 -1.300e+01 -1.300e+01 -1.300e+01 -1.300e+01 -1.300e+01 -1.300e+01 -1.300e+01 -1.300e+01 -1.300e+01 -1.300e+01 -1.300e+01 -1.300e+01 -1.300e+01 -1.300e+01 -1.300e+01 -1.300e+01 -1.300e+01 -1.300e+01 -1.300e+01 -1.300e+01 -1.300e+01 -1.300e+01 -1.300e+01 -1.300e+01 -1.300e+01 -1.300e+01 -1.300e+01 -1.300e+01 -1.300e+01 -1.300e+01 -1.300e+01 -1.300e+01 -1.300e+01 -1.300e+01 -1.300e+01 -1.300e+01 -1.300e+01 -1.300e+01 -1.300e+01 -1.300e+01 -1.300e+01 -1.300e+01 -1.300e+01 -1.300e+01 -1.300e+01 -1.300e+01 -1.300e+01 -1.300e+01 -1.300e+01 -1.300e+01 -1.300e+01 -1.300e+01 -1.300e+01 -1.300e+01 -1.300e+01 -1.300e+01 -1.300e+01 -1.300e+01 -1.300e+01 -1.300e+01 -1.300e+01 -1.300e+01 -1.300e+01 -1.300e+01 -1.300e+01 -1.300e+01 -1.300e+01 -1.300e+01 -1.300e+01 -1.300e+01 -1.300e+01 -1.300e+01 -1.300e+01 -1.300e+01 -1.300e+01 -1.300e+01 -5.000e+00 -5.000e+00 -5.000e+00 -5.000e+00 -5.000e+00 -5.000e+00 -5.000e+00 -5.000e+00 -5.000e+00 -5.000e+00 -5.000e+00 -5.000e+00 -5.000e+00 -5.000e+00 -5.000e+00 -5.000e+00 -5.000e+00 -5.000e+00 -5.000e+00 -5.000e+00 -5.000e+00 -5.000e+00 -5.000e+00 -5.000e+00 -5.000e+00 -5.000e+00 -5.000e+00 -5.000e+00 -5.000e+00 -5.000e+00 -5.000e+00 -5.000e+00 -5.000e+00 -5.000e+00 -5.000e+00 -5.000e+00 -5.000e+00 -5.000e+00 -5.000e+00 -5.000e+00 -5.000e+00 -5.000e+00 -5.000e+00 -1.300e+01 -1.300e+01 -1.300e+01 -1.300e+01 -1.300e+01 -1.300e+01 -1.300e+01 -1.300e+01 -1.300e+01 -1.300e+01 -1.300e+01 -1.300e+01 -1.300e+01 -1.300e+01 -1.300e+01 -1.300e+01 -1.300e+01 -1.300e+01 -1.300e+01 -1.300e+01 -1.300e+01 -1.300e+01 -1.300e+01 -1.300e+01 -1.300e+01 -1.300e+01 -1.300e+01 -1.300e+01 -1.300e+01 -1.300e+01 -1.300e+01 -1.300e+01 -1.300e+01 -1.300e+01 -1.300e+01 -1.300e+01 -1.300e+01 -1.300e+01 -1.300e+01 -1.300e+01 -1.300e+01 -1.300e+01 -1.300e+01 -1.300e+01 -1.300e+01 -1.300e+01 -1.300e+01 -1.300e+01 -1.300e+01 -1.300e+01 -1.300e+01 -1.300e+01 -1.300e+01 -1.300e+01 -1.300e+01 -1.300e+01 -1.300e+01 -1.300e+01 -1.300e+01 -1.300e+01 -1.300e+01 -1.300e+01 -1.300e+01 -1.300e+01 -1.300e+01 -1.300e+01 -1.300e+01 -1.300e+01 -1.300e+01 -1.300e+01 -1.300e+01 -1.300e+01 -1.300e+01 -1.300e+01 -1.300e+01 -1.300e+01 -1.300e+01 -1.300e+01 -1.300e+01 -1.300e+01 -1.300e+01 -1.300e+01 -1.300e+01 -1.300e+01 -1.300e+01 -1.300e+01 -1.300e+01 -1.300e+01 -1.300e+01 -1.300e+01 -1.300e+01 -1.300e+01 -1.300e+01 -1.300e+01 -1.300e+01 -1.300e+01 -1.300e+01 -1.300e+01 -1.300e+01 -1.300e+01 -1.300e+01 -1.300e+01 -1.300e+01 -1.300e+01 -1.300e+01 -1.300e+01 -1.300e+01 -1.300e+01 -1.300e+01 -1.300e+01 -1.300e+01 -1.300e+01 -1.300e+01 -1.300e+01 -1.300e+01 -1.300e+01 -1.300e+01 -1.300e+01 -1.300e+01 -1.300e+01 -1.300e+01 -1.300e+01 -1.300e+01 -1.300e+01 -1.300e+01 -1.300e+01 -1.300e+01 -1.300e+01 -1.300e+01 -1.300e+01 -1.300e+01 -1.300e+01 -1.300e+01 -1.300e+01 -1.300e+01 -1.300e+01 -1.300e+01 -1.300e+01 -1.300e+01 -1.300e+01 -1.300e+01 -1.300e+01 -1.300e+01 -1.300e+01 -1.300e+01 -1.300e+01 -1.300e+01 -1.300e+01 -1.300e+01 -1.300e+01 -1.300e+01 -1.300e+01 -1.300e+01 -1.300e+01 -1.300e+01 -1.300e+01 -1.300e+01 -1.300e+01 -1.300e+01 -1.300e+01 -1.300e+01 -1.300e+01 -1.300e+01 -1.300e+01 -1.300e+01 -1.300e+01 -1.300e+01 -1.300e+01 -1.300e+01 -1.300e+01 -1.300e+01 -1.300e+01 -1.300e+01 -1.300e+01 -1.300e+01 -1.300e+01 -1.300e+01 -1.300e+01 -1.300e+01 -1.300e+01 -1.300e+01 -1.300e+01 -1.300e+01 -1.300e+01 -1.300e+01 -1.300e+01 -1.300e+01 -1.300e+01 -1.300e+01 -1.300e+01 -1.300e+01 -1.300e+01 -1.300e+01 -1.300e+01 -1.300e+01 -1.300e+01 -1.300e+01 -1.300e+01 -1.300e+01 -1.300e+01 -1.300e+01 -1.300e+01 -1.300e+01 -1.300e+01 -1.300e+01 -1.300e+01 -1.300e+01 -1.300e+01 -1.300e+01 -1.300e+01 -1.300e+01 -1.300e+01 -1.300e+01 -1.300e+01 -1.300e+01 -1.300e+01 -1.300e+01 -1.300e+01 -1.300e+01 -1.300e+01 -1.300e+01 -1.300e+01 -1.300e+01 -1.300e+01 -1.300e+01 -1.300e+01 -1.300e+01 -1.300e+01 -1.300e+01 -1.300e+01 -1.300e+01 -1.300e+01 -1.300e+01 -1.300e+01 -1.300e+01 -1.300e+01 -1.300e+01 -1.300e+01 -1.300e+01 -1.300e+01 -1.300e+01 -1.300e+01 -1.300e+01 -1.300e+01 -1.300e+01 -1.300e+01 -1.300e+01 -1.300e+01 -1.300e+01 -1.300e+01 -1.300e+01 -1.300e+01 -1.300e+01 -1.300e+01 -1.300e+01 -1.300e+01 -1.300e+01 -1.300e+01 -1.300e+01 -1.300e+01 -1.300e+01 -1.300e+01 -1.300e+01 -1.300e+01 -1.300e+01 -1.300e+01 -1.300e+01 -1.300e+01 -1.300e+01 -1.300e+01 -1.300e+01 -1.300e+01 -1.300e+01 -1.300e+01 -1.300e+01 -1.300e+01 -1.300e+01 -1.300e+01 -1.300e+01 -1.300e+01 -1.300e+01 -1.300e+01 -1.300e+01 -1.300e+01 -1.300e+01 -1.300e+01 -1.300e+01 -1.300e+01 -1.300e+01 -1.300e+01 -1.300e+01 -1.300e+01 -1.300e+01 -1.300e+01 -1.300e+01 -1.300e+01 -1.300e+01 -1.300e+01 -1.300e+01 -1.300e+01 -1.300e+01 -1.300e+01 -1.300e+01 -1.300e+01 -1.300e+01 -1.300e+01 -1.300e+01 -1.300e+01 -1.300e+01