<?xml version="1.0"?>
<VTKFile type="UnstructuredGrid" version="0.1" byte_order="LittleEndian">
   <UnstructuredGrid>
      <Piece NumberOfPoints="8850" NumberOfCells="617">
         <Points>
            <DataArray type="Float32" Name="Position" NumberOfComponents="3" format="ascii">
0.125	-4.999	0.063
0.132	-4.996	0.069
0.138	-4.999	0.075
0.142	-5.006	0.079
0.142	-5.016	0.079
0.138	-5.023	0.075
0.131	-5.026	0.070
0.124	-5.023	0.064
0.121	-5.015	0.060
0.121	-5.006	0.060
0.668	-5.022	-0.531
0.674	-5.019	-0.526
0.680	-5.022	-0.519
0.684	-5.030	-0.515
0.683	-5.039	-0.515
0.679	-5.046	-0.519
0.672	-5.049	-0.524
0.666	-5.046	-0.531
0.663	-5.039	-0.535
0.663	-5.029	-0.535
0.771	-5.060	-0.617
0.771	-5.051	-0.612
0.771	-5.042	-0.614
0.771	-5.036	-0.620
0.771	-5.034	-0.630
0.771	-5.038	-0.638
0.771	-5.047	-0.642
0.771	-5.056	-0.641
0.771	-5.062	-0.634
0.771	-5.064	-0.625
0.257	-5.026	0.131
0.263	-5.023	0.137
0.269	-5.026	0.143
0.272	-5.034	0.147
0.272	-5.043	0.147
0.268	-5.051	0.144
0.262	-5.053	0.137
0.256	-5.050	0.131
0.252	-5.043	0.127
0.253	-5.034	0.127
0.773	-5.053	-0.343
0.777	-5.053	-0.335
0.776	-5.053	-0.326
0.769	-5.053	-0.320
0.760	-5.053	-0.318
0.752	-5.053	-0.322
0.748	-5.053	-0.331
0.749	-5.053	-0.340
0.756	-5.053	-0.346
0.765	-5.053	-0.348
1.374	-5.560	0.688
1.378	-5.560	0.696
1.377	-5.561	0.706
1.370	-5.561	0.712
1.361	-5.560	0.713
1.353	-5.559	0.709
1.349	-5.559	0.701
1.350	-5.558	0.692
1.357	-5.558	0.685
1.366	-5.559	0.684
1.343	-6.007	0.661
1.347	-6.008	0.669
1.346	-6.008	0.678
1.339	-6.008	0.685
1.330	-6.007	0.686
1.322	-6.007	0.682
1.318	-6.006	0.674
1.319	-6.005	0.665
1.326	-6.005	0.658
1.335	-6.006	0.657
1.468	-5.630	0.751
1.475	-5.627	0.757
1.481	-5.630	0.763
1.485	-5.637	0.767
1.485	-5.647	0.767
1.480	-5.654	0.764
1.474	-5.657	0.758
1.467	-5.654	0.752
1.463	-5.646	0.748
1.464	-5.637	0.748
1.894	-5.669	0.293
1.898	-5.669	0.301
1.897	-5.669	0.311
1.890	-5.669	0.317
1.881	-5.669	0.319
1.873	-5.669	0.314
1.868	-5.669	0.306
1.870	-5.669	0.297
1.876	-5.669	0.290
1.886	-5.669	0.289
1.596	-5.730	0.808
1.598	-5.731	0.817
1.595	-5.731	0.825
1.587	-5.728	0.830
1.579	-5.724	0.830
1.572	-5.721	0.824
1.570	-5.720	0.815
1.574	-5.720	0.806
1.581	-5.723	0.801
1.590	-5.726	0.802
1.382	-6.260	0.757
1.384	-6.262	0.766
1.381	-6.261	0.775
1.373	-6.259	0.780
1.365	-6.255	0.779
1.358	-6.252	0.773
1.357	-6.250	0.764
1.360	-6.251	0.756
1.367	-6.253	0.751
1.376	-6.257	0.751
1.701	-5.804	0.862
1.699	-5.797	0.867
1.694	-5.794	0.875
1.690	-5.797	0.882
1.687	-5.805	0.887
1.687	-5.814	0.886
1.690	-5.822	0.881
1.694	-5.824	0.874
1.699	-5.821	0.866
1.701	-5.813	0.862
2.235	-5.814	1.164
2.232	-5.806	1.169
2.228	-5.804	1.176
2.223	-5.807	1.184
2.221	-5.815	1.188
2.221	-5.824	1.188
2.223	-5.831	1.183
2.228	-5.834	1.175
2.232	-5.831	1.168
2.235	-5.823	1.163
1.815	-5.897	0.918
1.818	-5.899	0.926
1.816	-5.901	0.935
1.809	-5.900	0.942
1.800	-5.898	0.943
1.793	-5.895	0.938
1.790	-5.892	0.930
1.792	-5.891	0.921
1.799	-5.892	0.915
1.807	-5.894	0.914
1.682	-6.352	0.852
1.682	-6.344	0.856
1.682	-6.335	0.854
1.682	-6.328	0.848
1.682	-6.327	0.839
1.682	-6.331	0.830
1.682	-6.339	0.826
1.682	-6.348	0.828
1.682	-6.355	0.834
1.682	-6.356	0.843
1.921	-5.980	0.969
1.919	-5.972	0.974
1.914	-5.969	0.981
1.909	-5.971	0.989
1.906	-5.979	0.993
1.905	-5.988	0.994
1.908	-5.996	0.989
1.912	-5.999	0.982
1.917	-5.996	0.974
1.921	-5.989	0.970
2.348	-6.000	1.248
2.346	-5.993	1.252
2.341	-5.989	1.260
2.336	-5.992	1.267
2.333	-5.999	1.272
2.332	-6.008	1.272
2.335	-6.016	1.268
2.339	-6.019	1.260
2.344	-6.017	1.253
2.348	-6.010	1.248
2.016	-6.062	1.027
2.023	-6.060	1.033
2.029	-6.063	1.039
2.032	-6.070	1.044
2.030	-6.079	1.045
2.025	-6.086	1.042
2.018	-6.089	1.037
2.012	-6.086	1.031
2.009	-6.078	1.026
2.010	-6.069	1.025
2.313	-6.161	0.681
2.321	-6.159	0.687
2.327	-6.162	0.693
2.330	-6.169	0.697
2.328	-6.178	0.699
2.323	-6.186	0.696
2.316	-6.188	0.691
2.309	-6.185	0.685
2.307	-6.177	0.680
2.308	-6.168	0.679
2.133	-6.163	1.073
2.130	-6.155	1.078
2.126	-6.153	1.086
2.122	-6.157	1.094
2.119	-6.165	1.098
2.119	-6.174	1.097
2.122	-6.181	1.092
2.126	-6.183	1.084
2.130	-6.180	1.076
2.132	-6.172	1.072
2.473	-6.183	1.247
2.471	-6.176	1.253
2.467	-6.173	1.261
2.462	-6.177	1.268
2.460	-6.185	1.272
2.460	-6.194	1.272
2.462	-6.201	1.266
2.466	-6.203	1.258
2.470	-6.200	1.251
2.473	-6.192	1.246
2.225	-6.253	1.125
2.232	-6.251	1.130
2.239	-6.254	1.136
2.242	-6.261	1.140
2.240	-6.270	1.141
2.235	-6.278	1.139
2.228	-6.280	1.134
2.221	-6.277	1.128
2.218	-6.269	1.124
2.220	-6.260	1.122
2.455	-6.349	0.858
2.455	-6.341	0.862
2.455	-6.332	0.860
2.455	-6.325	0.854
2.455	-6.324	0.845
2.455	-6.328	0.836
2.455	-6.337	0.832
2.455	-6.346	0.834
2.455	-6.352	0.840
2.455	-6.354	0.849
2.346	-6.366	1.171
2.348	-6.369	1.180
2.344	-6.369	1.188
2.337	-6.366	1.193
2.328	-6.363	1.193
2.322	-6.359	1.187
2.320	-6.356	1.179
2.324	-6.356	1.170
2.331	-6.359	1.165
2.340	-6.362	1.165
2.194	-6.713	1.107
2.196	-6.715	1.115
2.193	-6.715	1.124
2.185	-6.713	1.129
2.177	-6.709	1.129
2.170	-6.705	1.123
2.169	-6.703	1.114
2.172	-6.703	1.106
2.180	-6.705	1.101
2.188	-6.709	1.101
0.400	-5.064	0.190
0.398	-5.057	0.195
0.394	-5.055	0.203
0.390	-5.059	0.211
0.388	-5.067	0.215
0.388	-5.076	0.214
0.390	-5.083	0.208
0.394	-5.085	0.200
0.398	-5.081	0.193
0.400	-5.073	0.189
1.124	-5.098	0.538
1.121	-5.091	0.544
1.117	-5.089	0.552
1.114	-5.093	0.560
1.111	-5.101	0.564
1.111	-5.110	0.563
1.114	-5.117	0.557
1.118	-5.119	0.549
1.121	-5.115	0.542
1.124	-5.107	0.537
2.434	-6.448	1.218
2.442	-6.445	1.223
2.448	-6.449	1.229
2.451	-6.456	1.234
2.448	-6.465	1.236
2.442	-6.472	1.234
2.435	-6.474	1.229
2.428	-6.471	1.223
2.426	-6.463	1.218
2.428	-6.455	1.217
2.678	-6.575	0.885
2.686	-6.573	0.890
2.692	-6.576	0.895
2.695	-6.583	0.900
2.693	-6.592	0.902
2.687	-6.599	0.900
2.679	-6.601	0.896
2.673	-6.598	0.890
2.670	-6.591	0.885
2.672	-6.582	0.883
2.552	-6.565	1.261
2.554	-6.568	1.269
2.550	-6.568	1.278
2.542	-6.565	1.283
2.534	-6.561	1.282
2.528	-6.557	1.276
2.527	-6.555	1.268
2.531	-6.555	1.259
2.538	-6.557	1.254
2.546	-6.561	1.255
2.415	-6.851	1.201
2.416	-6.854	1.210
2.412	-6.854	1.218
2.405	-6.851	1.223
2.396	-6.847	1.223
2.391	-6.843	1.217
2.389	-6.840	1.208
2.393	-6.840	1.200
2.400	-6.843	1.195
2.409	-6.847	1.195
2.653	-6.674	1.310
2.656	-6.666	1.312
2.655	-6.657	1.314
2.648	-6.650	1.314
2.639	-6.649	1.312
2.631	-6.653	1.310
2.627	-6.661	1.308
2.629	-6.670	1.306
2.635	-6.676	1.306
2.645	-6.678	1.308
2.608	-6.720	1.535
2.612	-6.712	1.537
2.610	-6.703	1.539
2.603	-6.696	1.539
2.594	-6.694	1.537
2.586	-6.698	1.535
2.582	-6.706	1.532
2.584	-6.715	1.531
2.591	-6.722	1.531
2.600	-6.724	1.532
2.738	-6.753	1.345
2.746	-6.751	1.350
2.752	-6.754	1.355
2.756	-6.761	1.360
2.754	-6.771	1.361
2.749	-6.778	1.359
2.741	-6.780	1.354
2.735	-6.777	1.348
2.732	-6.770	1.344
2.733	-6.760	1.342
2.930	-6.815	1.093
2.930	-6.811	1.101
2.930	-6.812	1.110
2.930	-6.819	1.117
2.930	-6.828	1.118
2.930	-6.836	1.114
2.930	-6.841	1.106
2.930	-6.839	1.097
2.930	-6.833	1.090
2.930	-6.823	1.089
2.855	-6.879	1.394
2.860	-6.871	1.397
2.858	-6.862	1.398
2.852	-6.855	1.397
2.843	-6.853	1.395
2.835	-6.856	1.392
2.831	-6.864	1.390
2.832	-6.874	1.389
2.838	-6.880	1.389
2.847	-6.882	1.392
2.789	-6.914	1.634
2.793	-6.906	1.636
2.792	-6.897	1.637
2.786	-6.890	1.636
2.777	-6.888	1.634
2.769	-6.892	1.631
2.765	-6.900	1.629
2.766	-6.909	1.628
2.772	-6.916	1.629
2.781	-6.918	1.631
2.940	-6.960	1.425
2.947	-6.958	1.430
2.954	-6.961	1.435
2.958	-6.968	1.439
2.957	-6.978	1.440
2.951	-6.985	1.438
2.944	-6.987	1.433
2.937	-6.984	1.428
2.933	-6.977	1.424
2.934	-6.968	1.423
3.080	-7.000	1.220
3.087	-6.997	1.225
3.094	-7.000	1.230
3.098	-7.008	1.234
3.097	-7.017	1.235
3.092	-7.024	1.233
3.084	-7.027	1.228
3.077	-7.024	1.223
3.073	-7.016	1.219
3.074	-7.007	1.218
3.058	-7.083	1.461
3.059	-7.085	1.470
3.054	-7.084	1.479
3.047	-7.081	1.483
3.039	-7.077	1.482
3.033	-7.073	1.476
3.032	-7.071	1.467
3.036	-7.071	1.459
3.044	-7.074	1.454
3.052	-7.079	1.455
2.977	-7.239	1.432
2.978	-7.241	1.441
2.974	-7.240	1.449
2.966	-7.237	1.453
2.958	-7.233	1.452
2.953	-7.229	1.446
2.952	-7.227	1.437
2.956	-7.227	1.429
2.963	-7.230	1.424
2.971	-7.234	1.425
3.151	-7.176	1.494
3.148	-7.170	1.500
3.145	-7.169	1.509
3.142	-7.173	1.516
3.140	-7.181	1.520
3.140	-7.190	1.518
3.143	-7.197	1.512
3.146	-7.198	1.504
3.149	-7.194	1.496
3.151	-7.185	1.492
3.307	-7.179	1.557
3.304	-7.173	1.564
3.301	-7.172	1.572
3.298	-7.176	1.580
3.296	-7.184	1.583
3.297	-7.194	1.582
3.299	-7.200	1.575
3.303	-7.201	1.567
3.306	-7.197	1.559
3.307	-7.188	1.556
3.256	-7.299	1.543
3.260	-7.291	1.545
3.258	-7.282	1.546
3.252	-7.275	1.547
3.242	-7.274	1.546
3.234	-7.278	1.544
3.231	-7.287	1.542
3.232	-7.296	1.541
3.239	-7.302	1.540
3.248	-7.303	1.541
3.240	-7.329	1.693
3.244	-7.321	1.695
3.242	-7.312	1.696
3.235	-7.305	1.697
3.226	-7.304	1.696
3.218	-7.308	1.694
3.214	-7.317	1.692
3.216	-7.326	1.691
3.223	-7.332	1.690
3.232	-7.333	1.691
3.356	-7.405	1.580
3.360	-7.397	1.582
3.358	-7.388	1.583
3.352	-7.381	1.583
3.343	-7.380	1.582
3.334	-7.384	1.580
3.330	-7.392	1.578
3.332	-7.401	1.577
3.339	-7.408	1.577
3.348	-7.409	1.578
3.336	-7.429	1.727
3.340	-7.420	1.729
3.338	-7.411	1.730
3.332	-7.405	1.731
3.322	-7.403	1.730
3.314	-7.408	1.728
3.310	-7.416	1.726
3.312	-7.425	1.725
3.319	-7.431	1.725
3.328	-7.433	1.726
0.532	-5.106	0.253
0.530	-5.098	0.257
0.525	-5.095	0.265
0.520	-5.098	0.272
0.517	-5.105	0.277
0.516	-5.114	0.277
0.518	-5.122	0.272
0.523	-5.125	0.265
0.528	-5.123	0.257
0.531	-5.115	0.253
1.177	-5.168	0.682
1.181	-5.160	0.682
1.179	-5.151	0.682
1.173	-5.144	0.682
1.164	-5.143	0.682
1.155	-5.147	0.682
1.151	-5.155	0.682
1.153	-5.164	0.682
1.159	-5.171	0.682
1.168	-5.172	0.682
3.457	-7.505	1.607
3.458	-7.508	1.616
3.454	-7.508	1.624
3.447	-7.506	1.629
3.438	-7.501	1.629
3.433	-7.497	1.623
3.431	-7.494	1.614
3.435	-7.494	1.606
3.442	-7.497	1.601
3.451	-7.501	1.602
3.399	-7.621	1.579
3.400	-7.624	1.588
3.397	-7.624	1.597
3.389	-7.622	1.602
3.381	-7.618	1.601
3.375	-7.613	1.595
3.374	-7.611	1.587
3.377	-7.610	1.578
3.385	-7.613	1.573
[...]
         <CellData>
           <DataArray type="Float32" Name="combinedRootClassID" NumberOfComponents="1" format="ascii">
 -1.300e+01 -1.300e+01 -1.300e+01 -1.300e+01 -1.300e+01 -1.300e+01 -1.300e+01 -1.300e+01 -1.300e+01 -1.300e+01 -1.300e+01 -1.300e+01 -1.300e+01 -1.300e+01 -1.300e+01 -1.300e+01 -1.300e+01 -1.300e+01 -1.300e+01 -1.300e+01 -1.300e+01 -1.300e+01 -1.300e+01 -1.300e+01 -1.300e+01 -1.300e+01 -1.300e+01 -1.300e+01 -1.300e+01 -1.300e+01 -1.300e+01 -1.300e+01 -1.300e+01 -1.300e+01 -1.300e+01 -1.300e+01 -1.300e+01 -5.000e+00 -5.000e+00 -5.000e+00 -5.000e+00 -5.000e+00 -5.000e+00 -5.000e+00 -5.000e+00 -5.000e+00 -5.000e+00 -5.000e+00 -5.000e+00 -5.000e+00 -5.000e+00 -5.000e+00 -5.000e+00 -5.000e+00 -5.000e+00 -1.300e+01 -1.300e+01 -1.300e+01 -1.300e+01 -1.300e+01 -1.300e+01 -1.300e+01 -1.300e+01 -1.300e+01 -1.300e+01 -1.300e+01 -1.300e+01 -1.300e+01 -1.300e+01 -1.300e+01 -1.300e+01 -1.300e+01 -1.300e+01 -1.300e+01 -1.300e+01 -1.300e+01 -1.300e+01 -1.300e+01 -1.300e+01 -1.300e+01 -1.300e+01 -1.300e+01 -1.300e+01 -1.300e+01 -1.300e+01 -1.300e+01 -1.300e+01 -1.300e+01 -1.300e+01 -1.300e+01 -1.300e+01 -1.300e+01 -1.300e+01 -5.000e+00 -5.000e+00 -5.000e+00 -5.000e+00 -5.000e+00 -5.000e+00 -5.000e+00 -5.000e+00 -5.000e+00 -5.000e+00 -5.000e+00 -5.000e+00 -5.000e+00 -5.000e+00 -5.000e+00 -5.000e+00 -5.000e+00 -5.000e+00 -1.300e+01 -1.300e+01 -1.300e+01 -1.300e+01 -1.300e+01 -1.300e+01 -1.300e+01 -1.300e+01 -1.300e+01 -1.300e+01 -1.300e+01 -1.300e+01 -1.300e+01 -1.300e+01 -1.300e+01 -1.300e+01 -1.300e+01 -1.300e+01 -1.300e+01 -1.300e+01 -1.300e+01 -1.300e+01 -1.300e+01 -1.300e+01 -1.300e+01 -1.300e+01 -1.300e+01 -1.300e+01 -1.300e+01 -1.300e+01 -1.300e+01 -1.300e+01 -1.300e+01 -1.300e+01 -1.300e+01 -1.300e+01 -5.000e+00 -5.000e+00 -5.000e+00 -5.000e+00 -5.000e+00 -5.000e+00 -5.000e+00 -5.000e+00 -5.000e+00 -5.000e+00 -5.000e+00 -5.000e+00 -5.000e+00 -5.000e+00 -5.000e+00 -5.000e+00 -5.000e+00 -5.000e+00 -1.300e+01 -1.300e+01 -1.300e+01 -1.300e+01 -1.300e+01 -1.300e+01 -1.300e+01 -1.300e+01 -1.300e+01 -1.300e+01 -1.300e+01 -1.300e+01 -1.300e+01 -1.300e+01 -1.300e+01 -1.300e+01 -1.300e+01 -1.300e+01 -1.300e+01 -1.300e+01 -1.300e+01 -1.300e+01 -1.300e+01 -1.300e+01 -1.300e+01 -1.300e+01 -1.300e+01 -1.300e+01 -1.300e+01 -1.300e+01 -1.300e+01 -1.300e+01 -1.300e+01 -1.300e+01 -1.300e+01 -1.300e+01 -5.000e+00 -5.000e+00 -5.000e+00 -5.000e+00 -5.000e+00 -5.000e+00 -5.000e+00 -5.000e+00 -5.000e+00 -5.000e+00 -5.000e+00 -5.000e+00 -5.000e+00 -5.000e+00 -5.000e+00 -5.000e+00 -5.000e+00 -5.000e+00 -1.100e+01 -1.100e+01 -1.100e+01 -1.100e+01 -1.100e+01 -1.100e+01 -1.100e+01 -1.100e+01 -1.100e+01 -1.100e+01 -1.100e+01 -1.100e+01 -1.100e+01 -1.100e+01 -1.100e+01 -1.100e+01 -1.100e+01 -1.100e+01 -1.100e+01 -1.100e+01 -1.100e+01 -1.100e+01 -1.100e+01 -1.100e+01 -1.100e+01 -1.100e+01 -1.100e+01 -1.100e+01 -1.100e+01 -1.100e+01 -1.100e+01 -1.100e+01 -2.000e+00 -2.000e+00 -2.000e+00 -2.000e+00 -2.000e+00 -2.000e+00 -2.000e+00 -2.000e+00 -2.000e+00 -2.000e+00 -2.000e+00 -2.000e+00 -7.000e+00 -7.000e+00 -7.000e+00 -7.000e+00 -7.000e+00 -7.000e+00 -7.000e+00 -7.000e+00 -7.000e+00 -7.000e+00 -7.000e+00 -7.000e+00 -7.000e+00 -7.000e+00 -7.000e+00 -7.000e+00 -7.000e+00 -7.000e+00 -7.000e+00 -7.000e+00 -7.000e+00 -7.000e+00 -7.000e+00 -7.000e+00 -7.000e+00 -7.000e+00 -7.000e+00 -7.000e+00 -7.000e+00 -7.000e+00 -7.000e+00 -7.000e+00 -7.000e+00 -7.000e+00 -7.000e+00 -7.000e+00 -7.000e+00 -7.000e+00 -7.000e+00 -7.000e+00 -7.000e+00 -7.000e+00 -7.000e+00 -7.000e+00 -7.000e+00 -7.000e+00 -7.000e+00 -7.000e+00 -7.000e+00 -7.000e+00 -7.000e+00 -7.000e+00 -7.000e+00 -7.000e+00 -7.000e+00 -7.000e+00 -7.000e+00 -7.000e+00 -7.000e+00 -7.000e+00 -7.000e+00 -7.000e+00 -7.000e+00 -7.000e+00 -7.000e+00 -7.000e+00 -7.000e+00 -7.000e+00 -7.000e+00 -7.000e+00 -7.000e+00 -7.000e+00 -7.000e+00 -7.000e+00 -7.000e+00 -7.000e+00 -7.000e+00 -7.000e+00 -7.000e+00 -7.000e+00 -7.000e+00 -7.000e+00 -7.000e+00 -7.000e+00 -7.000e+00 -7.000e+00 -7.000e+00 -7.000e+00 -7.000e+00 -7.000e+00 -7.000e+00 -7.000e+00 -7.000e+00 -7.000e+00 -7.000e+00 -7.000e+00 -7.000e+00 -7.000e+00 -7.000e+00 -7.000e+00 -7.000e+00 -7.000e+00 -7.000e+00 -7.000e+00 -7.000e+00 -7.000e+00 -7.000e+00 -7.000e+00 -7.000e+00 -7.000e+00 -7.000e+00 -7.000e+00 -7.000e+00 -7.000e+00 -7.000e+00 -7.000e+00 -7.000e+00 -7.000e+00 -7.000e+00 -7.000e+00 -7.000e+00 -7.000e+00 -7.000e+00 -7.000e+00 -7.000e+00 -7.000e+00 -7.000e+00 -7.000e+00 -7.000e+00 -7.000e+00 -7.000e+00 -7.000e+00 -7.000e+00 -7.000e+00 -7.000e+00 -7.000e+00 -7.000e+00 -7.000e+00 -7.000e+00 -7.000e+00 -7.000e+00 -7.000e+00 -7.000e+00 -7.000e+00 -7.000e+00 -7.000e+00 -7.000e+00 -7.000e+00 -7.000e+00 -7.000e+00 -7.000e+00 -7.000e+00 -7.000e+00 -7.000e+00 -7.000e+00 -7.000e+00 -7.000e+00 -7.000e+00 -7.000e+00 -7.000e+00 -7.000e+00 -7.000e+00 -7.000e+00 -7.000e+00 -7.000e+00 -7.000e+00 -7.000e+00 -7.000e+00 -7.000e+00 -7.000e+00 -7.000e+00 -7.000e+00 -7.000e+00 -7.000e+00 -7.000e+00 -7.000e+00 -7.000e+00 -7.000e+00 -7.000e+00 -7.000e+00 -7.000e+00 -7.000e+00 -7.000e+00 -7.000e+00 -7.000e+00 -7.000e+00 -7.000e+00 -7.000e+00 -7.000e+00 -7.000e+00 -7.000e+00 -7.000e+00 -7.000e+00 -7.000e+00 -7.000e+00 -7.000e+00 -7.000e+00 -7.000e+00 -7.000e+00 -7.000e+00 -7.000e+00 -7.000e+00 -7.000e+00 -7.000e+00 -7.000e+00 -7.000e+00 -7.000e+00 -7.000e+00 -7.000e+00 -7.000e+00 -7.000e+00 -7.000e+00 -7.000e+00 -7.000e+00 -7.000e+00 -7.000e+00 -7.000e+00 -7.000e+00 -7.000e+00 -7.000e+00 -7.000e+00 -7.000e+00 -7.000e+00 -7.000e+00 -7.000e+00 -7.000e+00 -7.000e+00 -7.000e+00 -7.000e+00 -7.000e+00 -7.000e+00 -7.000e+00 -7.000e+00 -7.000e+00 -7.000e+00 -7.000e+00 -7.000e+00 -7.000e+00 -7.000e+00 -7.000e+00 -7.000e+00 -7.000e+00 -7.000e+00 -7.000e+00 -7.000e+00 -7.000e+00 -7.000e+00 -7.000e+00 -7.000e+00 -7.000e+00 -7.000e+00 -7.000e+00 -7.000e+00 -7.000e+00 -7.000e+00 -7.000e+00 -7.000e+00 -7.000e+00 -7.000e+00 -7.000e+00 -7.000e+00 -7.000e+00 -7.000e+00 -7.000e+00 -7.000e+00 -7.000e+00 -7.000e+00 -7.000e+00 -7.000e+00 -7.000e+00 -7.000e+00 -7.000e+00 -7.000e+00 -7.000e+00 -7.000e+00 -7.000e+00 -7.000e+00 -7.000e+00 -7.000e+00 -7.000e+00 -7.000e+00 -7.000e+00 -7.000e+00 -7.000e+00 -7.000e+00 -7.000e+00 -7.000e+00 -7.000e+00 -7.000e+00 -7.000e+00 -7.000e+00 -7.000e+00 -7.000e+00 -7.000e+00 -7.000e+00 -7.000e+00 -7.000e+00 -7.000e+00 -7.000e+00 -7.000e+00 -7.000e+00 -9.000e+00 -9.000e+00 -9.000e+00 -9.000e+00 -9.000e+00 -9.000e+00 -9.000e+00 -9.000e+00 -9.000e+00 -4.000e+00 -4.000e+00 -4.000e+00 -4.000e+00 -4.000e+00 -4.000e+00 -4.000e+00 -4.000e+00 -4.000e+00 -4.000e+00 -4.000e+00 -4.000e+00 -4.000e+00 -4.000e+00 -4.000e+00 -4.000e+00 -4.000e+00 -4.000e+00 -4.000e+00 -4.000e+00 -4.000e+00 -4.000e+00 -4.000e+00 -4.000e+00 -4.000e+00 -4.000e+00 -4.000e+00 -4.000e+00 -4.000e+00 -4.000e+00 -4.000e+00 -4.000e+00 -4.000e+00 -4.000e+00 -4.000e+00 -4.000e+00 -4.000e+00 -4.000e+00 -4.000e+00 -4.000e+00 -4.000e+00 -4.000e+00 -4.000e+00 -4.000e+00
           </DataArray>
           <DataArray type="Float32" Name="nitrate/minimalNutrientConcentration" NumberOfComponents="1" format="ascii">
 6.000e+02 6.000e+02 6.000e+02 6.000e+02 6.000e+02 6.000e+02 6.000e+02 6.000e+02 6.000e+02 6.000e+02 6.000e+02 6.000e+02 6.000e+02 6.000e+02 6.000e+02 6.000e+02 6.000e+02 6.000e+02 6.000e+02 6.000e+02 6.000e+02 6.000e+02 6.000e+02 6.000e+02 6.000e+02 6.000e+02 6.000e+02 6.000e+02 6.000e+02 6.000e+02 6.000e+02 6.000e+02 6.000e+02 6.000e+02 6.000e+02 6.000e+02 6.000e+02 6.000e+02 6.000e+02 6.000e+02 6.000e+02 6.000e+02 6.000e+02 6.000e+02 6.000e+02 6.000e+02 6.000e+02 6.000e+02 6.000e+02 6.000e+02 6.000e+02 6.000e+02 6.000e+02 6.000e+02 6.000e+02 6.000e+02 6.000e+02 6.000e+02 6.000e+02 6.000e+02 6.000e+02 6.000e+02 6.000e+02 6.000e+02 6.000e+02 6.000e+02 6.000e+02 6.000e+02 6.000e+02 6.000e+02 6.000e+02 6.000e+02 6.000e+02 6.000e+02 6.000e+02 6.000e+02 6.000e+02 6.000e+02 6.000e+02 6.000e+02 6.000e+02 6.000e+02 6.000e+02 6.000e+02 6.000e+02 6.000e+02 6.000e+02 6.000e+02 6.000e+02 6.000e+02 6.000e+02 6.000e+02 6.000e+02 6.000e+02 6.000e+02 6.000e+02 6.000e+02 6.000e+02 6.000e+02 6.000e+02 6.000e+02 6.000e+02 6.000e+02 6.000e+02 6.000e+02 6.000e+02 6.000e+02 6.000e+02 6.000e+02 6.000e+02 6.000e+02 6.000e+02 6.000e+02 6.000e+02 6.000e+02 6.000e+02 6.000e+02 6.000e+02 6.000e+02 6.000e+02 6.000e+02 6.000e+02 6.000e+02 6.000e+02 6.000e+02 6.000e+02 6.000e+02 6.000e+02 6.000e+02 6.000e+02 6.000e+02 6.000e+02 6.000e+02 6.000e+02 6.000e+02 6.000e+02 6.000e+02 6.000e+02 6.000e+02 6.000e+02 6.000e+02 6.000e+02 6.000e+02 6.000e+02 6.000e+02 6.000e+02 6.000e+02 6.000e+02 6.000e+02 6.000e+02 6.000e+02 6.000e+02 6.000e+02 6.000e+02 6.000e+02 6.000e+02 6.000e+02 6.000e+02 6.000e+02 6.000e+02 6.000e+02 6.000e+02 6.000e+02 6.000e+02 6.000e+02 6.000e+02 6.000e+02 6.000e+02 6.000e+02 6.000e+02 6.000e+02 6.000e+02 6.000e+02 6.000e+02 6.000e+02 6.000e+02 6.000e+02 6.000e+02 6.000e+02 6.000e+02 6.000e+02 6.000e+02 6.000e+02 6.000e+02 6.000e+02 6.000e+02 6.000e+02 6.000e+02 6.000e+02 6.000e+02 6.000e+02 6.000e+02 6.000e+02 6.000e+02 6.000e+02 6.000e+02 6.000e+02 6.000e+02 6.000e+02 6.000e+02 6.000e+02 6.000e+02 6.000e+02 6.000e+02 6.000e+02 6.000e+02 6.000e+02 6.000e+02 6.000e+02 6.000e+02 6.000e+02 6.000e+02 6.000e+02 6.000e+02 6.000e+02 6.000e+02 6.000e+02 6.000e+02 6.000e+02 6.000e+02 6.000e+02 6.000e+02 6.000e+02 6.000e+02 6.000e+02 6.000e+02 6.000e+02 6.000e+02 6.000e+02 6.000e+02 6.000e+02 6.000e+02 6.000e+02 6.000e+02 6.000e+02 6.000e+02 6.000e+02 6.000e+02 6.000e+02 6.000e+02 6.000e+02 6.000e+02 6.000e+02 6.000e+02 6.000e+02 6.000e+02 6.000e+02 6.000e+02 6.000e+02 6.000e+02 6.000e+02 6.000e+02 6.000e+02 6.000e+02 6.000e+02 6.000e+02 6.000e+02 6.000e+02 6.000e+02 6.000e+02 6.000e+02 6.000e+02 6.000e+02 6.000e+02 6.000e+02 6.000e+02 6.000e+02 6.000e+02 6.000e+02 6.000e+02 6.000e+02 6.000e+02 6.000e+02 6.000e+02 6.000e+02 6.000e+02 6.000e+02 6.000e+02 6.000e+02 6.000e+02 6.000e+02 6.000e+02 6.000e+02 6.000e+02 6.000e+02 6.000e+02 6.000e+02 6.000e+02 6.000e+02 6.000e+02 6.000e+02 6.000e+02 6.000e+02 6.000e+02 6.000e+02 6.000e+02 6.000e+02 6.000e+02 6.000e+02 6.000e+02 6.000e+02 6.000e+02 6.000e+02 6.000e+02 6.000e+02 6.000e+02 6.000e+02 6.000e+02 6.000e+02 6.000e+02 6.000e+02 6.000e+02 6.000e+02 6.000e+02 6.000e+02 6.000e+02 6.000e+02 6.000e+02 6.000e+02 6.000e+02 6.000e+02 6.000e+02 6.000e+02 6.000e+02 6.000e+02 6.000e+02 6.000e+02 6.000e+02 6.000e+02 6.000e+02 6.000e+02 6.000e+02 6.000e+02 6.000e+02 6.000e+02 6.000e+02 6.000e+02 6.000e+02 6.000e+02 6.000e+02 6.000e+02 6.000e+02 6.000e+02 6.000e+02 6.000e+02 6.000e+02 6.000e+02 6.000e+02 6.000e+02 6.000e+02 6.000e+02 6.000e+02 6.000e+02 6.000e+02 6.000e+02 6.000e+02 6.000e+02 6.000e+02 6.000e+02 6.000e+02 6.000e+02 6.000e+02 6.000e+02 6.000e+02 6.000e+02 6.000e+02 6.000e+02 6.000e+02 6.000e+02 6.000e+02 6.000e+02 6.000e+02 6.000e+02 6.000e+02 6.000e+02 6.000e+02 6.000e+02 6.000e+02 6.000e+02 6.000e+02 6.000e+02 6.000e+02 6.000e+02 6.000e+02 6.000e+02 6.000e+02 6.000e+02 6.000e+02 6.000e+02 6.000e+02 6.000e+02 6.000e+02 6.000e+02 6.000e+02 6.000e+02 6.000e+02 6.000e+02 6.000e+02 6.000e+02 6.000e+02 6.000e+02 6.000e+02 6.000e+02 6.000e+02 6.000e+02 6.000e+02 6.000e+02 6.000e+02 6.000e+02 6.000e+02 6.000e+02 6.000e+02 6.000e+02 6.000e+02 6.000e+02 6.000e+02 6.000e+02 6.000e+02 6.000e+02 6.000e+02 6.000e+02 6.000e+02 6.000e+02 6.000e+02 6.000e+02 6.000e+02 6.000e+02 6.000e+02 6.000e+02 6.000e+02 6.000e+02 6.000e+02 6.000e+02 6.000e+02 6.000e+02 6.000e+02 6.000e+02 6.000e+02 6.000e+02 6.000e+02 6.000e+02 6.000e+02 6.000e+02 6.000e+02 6.000e+02 6.000e+02 6.000e+02 6.000e+02 6.000e+02 6.000e+02 6.000e+02 6.000e+02 6.000e+02 6.000e+02 6.000e+02 6.000e+02 6.000e+02 6.000e+02 6.000e+02 6.000e+02 6.000e+02 6.000e+02 6.000e+02 6.000e+02 6.000e+02 6.000e+02 6.000e+02 6.000e+02 6.000e+02 6.000e+02 6.000e+02 6.000e+02 6.000e+02 6.000e+02 6.000e+02 6.000e+02 6.000e+02 6.000e+02 6.000e+02 6.000e+02 6.000e+02 6.000e+02 6.000e+02 6.000e+02 6.000e+02 6.000e+02 6.000e+02 6.000e+02 6.000e+02 6.000e+02 6.000e+02 6.000e+02 6.000e+02 6.000e+02 6.000e+02 6.000e+02 6.000e+02 6.000e+02 6.000e+02 6.000e+02 6.000e+02 6.000e+02 6.000e+02 6.000e+02 6.000e+02 6.000e+02 6.000e+02 6.000e+02 6.000e+02 6.000e+02 6.000e+02 6.000e+02 6.000e+02 6.000e+02 6.000e+02 6.000e+02 6.000e+02 6.000e+02 6.000e+02 6.000e+02 6.000e+02 6.000e+02 6.000e+02 6.000e+02 6.000e+02 6.000e+02 6.000e+02 6.000e+02 6.000e+02 6.000e+02 6.000e+02 6.000e+02 6.000e+02 6.000e+02 6.000e+02 6.000e+02 6.000e+02 6.000e+02 6.000e+02 6.000e+02 6.000e+02 6.000e+02 6.000e+02 6.000e+02 6.000e+02 6.000e+02 6.000e+02 6.000e+02 6.000e+02 6.000e+02 6.000e+02 6.000e+02 6.000e+02 6.000e+02 6.000e+02 6.000e+02 6.000e+02 6.000e+02 6.000e+02 6.000e+02 6.000e+02 6.000e+02 6.000e+02 6.000e+02 6.000e+02 6.000e+02 6.000e+02 6.000e+02 6.000e+02 6.000e+02 6.000e+02 6.000e+02 6.000e+02 6.000e+02 6.000e+02 6.000e+02 6.000e+02 6.000e+02 6.000e+02 6.000e+02 6.000e+02 6.000e+02 6.000e+02 6.000e+02 6.000e+02 6.000e+02 6.000e+02 6.000e+02 6.000e+02 6.000e+02 6.000e+02 6.000e+02 6.000e+02 6.000e+02 6.000e+02 6.000e+02 6.000e+02 6.000e+02 6.000e+02 6.000e+02 6.000e+02 6.000e+02 6.000e+02 6.000e+02 6.000e+02 6.000e+02 6.000e+02 6.000e+02 6.000e+02 6.000e+02 6.000e+02 6.000e+02 6.000e+02 6.000e+02 6.000e+02 6.000e+02 6.000e+02
           </DataArray>
           <DataArray type="Float32" Name="nitrate/optimalNutrientConcentration" NumberOfComponents="1" format="ascii">
 1.200e+03 1.200e+03 1.200e+03 1.200e+03 1.200e+03 1.200e+03 1.200e+03 1.200e+03 1.200e+03 1.200e+03 1.200e+03 1.200e+03 1.200e+03 1.200e+03 1.200e+03 1.200e+03 1.200e+03 1.200e+03 1.200e+03 1.200e+03 1.200e+03 1.200e+03 1.200e+03 1.200e+03 1.200e+03 1.200e+03 1.200e+03 1.200e+03 1.200e+03 1.200e+03 1.200e+03 1.200e+03 1.200e+03 1.200e+03 1.200e+03 1.200e+03 1.200e+03 1.200e+03 1.200e+03 1.200e+03 1.200e+03 1.200e+03 1.200e+03 1.200e+03 1.200e+03 1.200e+03 1.200e+03 1.200e+03 1.200e+03 1.200e+03 1.200e+03 1.200e+03 1.200e+03 1.200e+03 1.200e+03 1.200e+03 1.200e+03 1.200e+03 1.200e+03 1.200e+03 1.200e+03 1.200e+03 1.200e+03 1.200e+03 1.200e+03 1.200e+03 1.200e+03 1.200e+03 1.200e+03 1.200e+03 1.200e+03 1.200e+03 1.200e+03 1.200e+03 1.200e+03 1.200e+03 1.200e+03 1.200e+03 1.200e+03 1.200e+03 1.200e+03 1.200e+03 1.200e+03 1.200e+03 1.200e+03 1.200e+03 1.200e+03 1.200e+03 1.200e+03 1.200e+03 1.200e+03 1.200e+03 1.200e+03 1.200e+03 1.200e+03 1.200e+03 1.200e+03 1.200e+03 1.200e+03 1.200e+03 1.200e+03 1.200e+03 1.200e+03 1.200e+03 1.200e+03 1.200e+03 1.200e+03 1.200e+03 1.200e+03 1.200e+03 1.200e+03 1.200e+03 1.200e+03 1.200e+03 1.200e+03 1.200e+03 1.200e+03 1.200e+03 1.200e+03 1.200e+03 1.200e+03 1.200e+03 1.200e+03 1.200e+03 1.200e+03 1.200e+03 1.200e+03 1.200e+03 1.200e+03 1.200e+03 1.200e+03 1.200e+03 1.200e+03 1.200e+03 1.200e+03 1.200e+03 1.200e+03 1.200e+03 1.200e+03 1.200e+03 1.200e+03 1.200e+03 1.200e+03 1.200e+03 1.200e+03 1.200e+03 1.200e+03 1.200e+03 1.200e+03 1.200e+03 1.200e+03 1.200e+03 1.200e+03 1.200e+03 1.200e+03 1.200e+03 1.200e+03 1.200e+03 1.200e+03 1.200e+03 1.200e+03 1.200e+03 1.200e+03 1.200e+03 1.200e+03 1.200e+03 1.200e+03 1.200e+03 1.200e+03 1.200e+03 1.200e+03 1.200e+03 1.200e+03 1.200e+03 1.200e+03 1.200e+03 1.200e+03 1.200e+03 1.200e+03 1.200e+03 1.200e+03 1.200e+03 1.200e+03 1.200e+03 1.200e+03 1.200e+03 1.200e+03 1.200e+03 1.200e+03 1.200e+03 1.200e+03 1.200e+03 1.200e+03 1.200e+03 1.200e+03 1.200e+03 1.200e+03 1.200e+03 1.200e+03 1.200e+03 1.200e+03 1.200e+03 1.200e+03 1.200e+03 1.200e+03 1.200e+03 1.200e+03 1.200e+03 1.200e+03 1.200e+03 1.200e+03 1.200e+03 1.200e+03 1.200e+03 1.200e+03 1.200e+03 1.200e+03 1.200e+03 1.200e+03 1.200e+03 1.200e+03 1.200e+03 1.200e+03 1.200e+03 1.200e+03 1.200e+03 1.200e+03 1.200e+03 1.200e+03 1.200e+03 1.200e+03 1.200e+03 1.200e+03 1.200e+03 1.200e+03 1.200e+03 1.200e+03 1.200e+03 1.200e+03 1.200e+03 1.200e+03 1.200e+03 1.200e+03 1.200e+03 1.200e+03 1.200e+03 1.200e+03 1.200e+03 1.200e+03 1.200e+03 1.200e+03 1.200e+03 1.200e+03 1.200e+03 1.200e+03 1.200e+03 1.200e+03 1.200e+03 1.200e+03 1.200e+03 1.200e+03 1.200e+03 1.200e+03 1.200e+03 1.200e+03 1.200e+03 1.200e+03 1.200e+03 1.200e+03 1.200e+03 1.200e+03 1.200e+03 1.200e+03 1.200e+03 1.200e+03 1.200e+03 1.200e+03 1.200e+03 1.200e+03 1.200e+03 1.200e+03 1.200e+03 1.200e+03 1.200e+03 1.200e+03 1.200e+03 1.200e+03 1.200e+03 1.200e+03 1.200e+03 1.200e+03 1.200e+03 1.200e+03 1.200e+03 1.200e+03 1.200e+03 1.200e+03 1.200e+03 1.200e+03 1.200e+03 1.200e+03 1.200e+03 1.200e+03 1.200e+03 1.200e+03 1.200e+03 1.200e+03 1.200e+03 1.200e+03 1.200e+03 1.200e+03 1.200e+03 1.200e+03 1.200e+03 1.200e+03 1.200e+03 1.200e+03 1.200e+03 1.200e+03 1.200e+03 1.200e+03 1.200e+03 1.200e+03 1.200e+03 1.200e+03 1.200e+03 1.200e+03 1.200e+03 1.200e+03 1.200e+03 1.200e+03 1.200e+03 1.200e+03 1.200e+03 1.200e+03 1.200e+03 1.200e+03 1.200e+03 1.200e+03 1.200e+03 1.200e+03 1.200e+03 1.200e+03 1.200e+03 1.200e+03 1.200e+03 1.200e+03 1.200e+03 1.200e+03 1.200e+03 1.200e+03 1.200e+03 1.200e+03 1.200e+03 1.200e+03 1.200e+03 1.200e+03 1.200e+03 1.200e+03 1.200e+03 1.200e+03 1.200e+03 1.200e+03 1.200e+03 1.200e+03 1.200e+03 1.200e+03 1.200e+03 1.200e+03 1.200e+03 1.200e+03 1.200e+03 1.200e+03 1.200e+03 1.200e+03 1.200e+03 1.200e+03 1.200e+03 1.200e+03 1.200e+03 1.200e+03 1.200e+03 1.200e+03 1.200e+03 1.200e+03 1.200e+03 1.200e+03 1.200e+03 1.200e+03 1.200e+03 1.200e+03 1.200e+03 1.200e+03 1.200e+03 1.200e+03 1.200e+03 1.200e+03 1.200e+03 1.200e+03 1.200e+03 1.200e+03 1.200e+03 1.200e+03 1.200e+03 1.200e+03 1.200e+03 1.200e+03 1.200e+03 1.200e+03 1.200e+03 1.200e+03 1.200e+03 1.200e+03 1.200e+03 1.200e+03 1.200e+03 1.200e+03 1.200e+03 1.200e+03 1.200e+03 1.200e+03 1.200e+03 1.200e+03 1.200e+03 1.200e+03 1.200e+03 1.200e+03 1.200e+03 1.200e+03 1.200e+03 1.200e+03 1.200e+03 1.200e+03 1.200e+03 1.200e+03 1.200e+03 1.200e+03 1.200e+03 1.200e+03 1.200e+03 1.200e+03 1.200e+03 1.200e+03 1.200e+03 1.200e+03 1.200e+03 1.200e+03 1.200e+03 1.200e+03 1.200e+03 1.200e+03 1.200e+03 1.200e+03 1.200e+03 1.200e+03 1.200e+03 1.200e+03 1.200e+03 1.200e+03 1.200e+03 1.200e+03 1.200e+03 1.200e+03 1.200e+03 1.200e+03 1.200e+03 1.200e+03 1.200e+03 1.200e+03 1.200e+03 1.200e+03 1.200e+03 1.200e+03 1.200e+03 1.200e+03 1.200e+03 1.200e+03 1.200e+03 1.200e+03 1.200e+03 1.200e+03 1.200e+03 1.200e+03 1.200e+03 1.200e+03 1.200e+03 1.200e+03 1.200e+03 1.200e+03 1.200e+03 1.200e+03 1.200e+03 1.200e+03 1.200e+03 1.200e+03 1.200e+03 1.200e+03 1.200e+03 1.200e+03 1.200e+03 1.200e+03 1.200e+03 1.200e+03 1.200e+03 1.200e+03 1.200e+03 1.200e+03 1.200e+03 1.200e+03 1.200e+03 1.200e+03 1.200e+03 1.200e+03 1.200e+03 1.200e+03 1.200e+03 1.200e+03 1.200e+03 1.200e+03 1.200e+03 1.200e+03 1.200e+03 1.200e+03 1.200e+03 1.200e+03 1.200e+03 1.200e+03 1.200e+03 1.200e+03 1.200e+03 1.200e+03 1.200e+03 1.200e+03 1.200e+03 1.200e+03 1.200e+03 1.200e+03 1.200e+03 1.200e+03 1.200e+03 1.200e+03 1.200e+03 1.200e+03 1.200e+03 1.200e+03 1.200e+03 1.200e+03 1.200e+03 1.200e+03 1.200e+03 1.200e+03 1.200e+03 1.200e+03 1.200e+03 1.200e+03 1.200e+03 1.200e+03 1.200e+03 1.200e+03 1.200e+03 1.200e+03 1.200e+03 1.200e+03 1.200e+03 1.200e+03 1.200e+03 1.200e+03 1.200e+03 1.200e+03 1.200e+03 1.200e+03 1.200e+03 1.200e+03 1.200e+03 1.200e+03 1.200e+03 1.200e+03 1.200e+03 1.200e+03 1.200e+03 1.200e+03 1.200e+03 1.200e+03 1.200e+03 1.200e+03 1.200e+03 1.200e+03 1.200e+03 1.200e+03 1.200e+03 1.200e+03 1.200e+03 1.200e+03 1.200e+03 1.200e+03 1.200e+03 1.200e+03 1.200e+03 1.200e+03 1.200e+03 1.200e+03 1.200e+03 1.200e+03 1.200e+03 1.200e+03 1.200e+03 1.200e+03 1.200e+03 1.200e+03 1.200e+03 1.200e+03 1.200e+03 1.200e+03 1.200e+03 1.200e+03 1.200e+03 1.200e+03
           </DataArray>
           <DataArray type="Float32" Name="nitrate/radiusDepletionZone" NumberOfComponents="1" format="ascii">