<?xml version="1.0"?>
<VTKFile type="UnstructuredGrid" version="0.1" byte_order="LittleEndian">
   <UnstructuredGrid>
      <Piece NumberOfPoints="9010" NumberOfCells="630">
         <Points>
            <DataArray type="Float32" Name="Position" NumberOfComponents="3" format="ascii">
-0.067	-5.033	-0.121
-0.067	-5.026	-0.116
-0.068	-5.017	-0.115
-0.071	-5.010	-0.119
-0.075	-5.006	-0.127
-0.077	-5.009	-0.136
-0.078	-5.016	-0.142
-0.076	-5.025	-0.143
-0.073	-5.033	-0.138
-0.069	-5.036	-0.130
-0.891	-5.216	0.156
-0.890	-5.209	0.162
-0.892	-5.200	0.163
-0.895	-5.192	0.159
-0.899	-5.189	0.151
-0.901	-5.191	0.142
-0.901	-5.199	0.136
-0.900	-5.208	0.135
-0.897	-5.215	0.140
-0.893	-5.218	0.148
-0.142	-5.073	-0.244
-0.141	-5.065	-0.239
-0.142	-5.056	-0.239
-0.144	-5.048	-0.244
-0.147	-5.046	-0.253
-0.149	-5.049	-0.261
-0.150	-5.056	-0.267
-0.149	-5.066	-0.267
-0.147	-5.073	-0.262
-0.144	-5.076	-0.253
-0.943	-5.148	-0.032
-0.941	-5.141	-0.027
-0.942	-5.132	-0.027
-0.944	-5.124	-0.032
-0.947	-5.121	-0.040
-0.950	-5.124	-0.048
-0.951	-5.132	-0.053
-0.951	-5.141	-0.053
-0.949	-5.149	-0.048
-0.946	-5.151	-0.040
-1.006	-5.149	-0.003
-1.004	-5.142	0.002
-1.005	-5.133	0.002
-1.007	-5.125	-0.003
-1.011	-5.122	-0.011
-1.014	-5.125	-0.019
-1.016	-5.133	-0.024
-1.016	-5.142	-0.024
-1.014	-5.150	-0.019
-1.010	-5.152	-0.011
-0.714	-5.773	-1.240
-0.711	-5.768	-1.232
-0.714	-5.764	-1.224
-0.721	-5.763	-1.218
-0.730	-5.765	-1.217
-0.737	-5.769	-1.221
-0.741	-5.773	-1.228
-0.738	-5.777	-1.236
-0.731	-5.778	-1.242
-0.722	-5.777	-1.243
-0.576	-6.297	-0.961
-0.573	-6.293	-0.953
-0.575	-6.289	-0.945
-0.582	-6.288	-0.939
-0.591	-6.289	-0.938
-0.599	-6.293	-0.942
-0.602	-6.298	-0.949
-0.599	-6.302	-0.957
-0.592	-6.303	-0.963
-0.583	-6.301	-0.964
-0.785	-5.853	-1.340
-0.780	-5.851	-1.334
-0.774	-5.853	-1.327
-0.772	-5.861	-1.322
-0.772	-5.870	-1.321
-0.777	-5.878	-1.325
-0.782	-5.880	-1.332
-0.787	-5.877	-1.339
-0.790	-5.870	-1.344
-0.789	-5.861	-1.344
-0.363	-5.913	-1.670
-0.357	-5.910	-1.663
-0.352	-5.913	-1.656
-0.349	-5.920	-1.651
-0.350	-5.929	-1.651
-0.354	-5.937	-1.655
-0.360	-5.940	-1.661
-0.365	-5.937	-1.669
-0.368	-5.929	-1.673
-0.367	-5.920	-1.674
-0.839	-5.948	-1.443
-0.832	-5.945	-1.438
-0.826	-5.949	-1.432
-0.823	-5.956	-1.427
-0.824	-5.965	-1.426
-0.830	-5.972	-1.429
-0.837	-5.975	-1.434
-0.843	-5.972	-1.440
-0.846	-5.964	-1.445
-0.844	-5.955	-1.446
-0.505	-6.049	-1.829
-0.498	-6.047	-1.823
-0.492	-6.050	-1.817
-0.489	-6.057	-1.812
-0.491	-6.066	-1.811
-0.496	-6.073	-1.814
-0.503	-6.076	-1.819
-0.509	-6.073	-1.825
-0.512	-6.065	-1.830
-0.511	-6.056	-1.831
-0.876	-6.057	-1.548
-0.873	-6.053	-1.541
-0.876	-6.049	-1.533
-0.883	-6.048	-1.527
-0.892	-6.049	-1.526
-0.900	-6.053	-1.530
-0.903	-6.057	-1.537
-0.900	-6.061	-1.545
-0.893	-6.062	-1.551
-0.884	-6.061	-1.552
-0.766	-6.572	-1.289
-0.763	-6.567	-1.281
-0.765	-6.564	-1.273
-0.772	-6.562	-1.267
-0.781	-6.564	-1.266
-0.789	-6.567	-1.270
-0.792	-6.572	-1.277
-0.790	-6.575	-1.286
-0.782	-6.577	-1.291
-0.773	-6.575	-1.293
-0.953	-6.150	-1.630
-0.950	-6.143	-1.633
-0.942	-6.139	-1.638
-0.935	-6.142	-1.643
-0.930	-6.149	-1.646
-0.929	-6.158	-1.646
-0.933	-6.166	-1.642
-0.940	-6.169	-1.637
-0.948	-6.167	-1.632
-0.953	-6.159	-1.630
-1.157	-6.182	-1.977
-1.153	-6.182	-1.969
-1.154	-6.182	-1.960
-1.161	-6.182	-1.953
-1.170	-6.182	-1.952
-1.178	-6.182	-1.956
-1.183	-6.182	-1.964
-1.181	-6.182	-1.974
-1.175	-6.182	-1.980
-1.165	-6.182	-1.982
-0.989	-6.268	-1.728
-0.988	-6.261	-1.722
-0.990	-6.251	-1.721
-0.993	-6.244	-1.726
-0.997	-6.241	-1.734
-1.000	-6.243	-1.742
-1.000	-6.250	-1.748
-0.999	-6.259	-1.749
-0.995	-6.267	-1.745
-0.992	-6.270	-1.737
-1.499	-6.354	-1.549
-1.491	-6.350	-1.549
-1.482	-6.352	-1.549
-1.475	-6.358	-1.549
-1.474	-6.367	-1.549
-1.478	-6.376	-1.549
-1.486	-6.380	-1.549
-1.496	-6.378	-1.549
-1.502	-6.372	-1.549
-1.504	-6.363	-1.549
-1.051	-6.347	-1.837
-1.045	-6.345	-1.831
-1.038	-6.348	-1.825
-1.035	-6.355	-1.820
-1.036	-6.365	-1.820
-1.041	-6.372	-1.823
-1.047	-6.375	-1.829
-1.054	-6.372	-1.835
-1.057	-6.364	-1.839
-1.056	-6.355	-1.840
-0.783	-6.395	-2.119
-0.777	-6.392	-2.113
-0.771	-6.395	-2.107
-0.767	-6.403	-2.102
-0.768	-6.412	-2.102
-0.773	-6.419	-2.105
-0.780	-6.422	-2.111
-0.786	-6.419	-2.117
-0.789	-6.411	-2.121
-0.788	-6.402	-2.122
-1.090	-6.479	-1.916
-1.090	-6.472	-1.910
-1.092	-6.463	-1.909
-1.095	-6.455	-1.913
-1.098	-6.452	-1.921
-1.100	-6.455	-1.930
-1.099	-6.462	-1.936
-1.097	-6.471	-1.937
-1.094	-6.478	-1.933
-1.092	-6.481	-1.924
-1.438	-6.565	-1.828
-1.438	-6.558	-1.822
-1.440	-6.549	-1.821
-1.443	-6.542	-1.826
-1.446	-6.538	-1.834
-1.448	-6.541	-1.843
-1.448	-6.548	-1.849
-1.446	-6.557	-1.849
-1.443	-6.564	-1.845
-1.440	-6.568	-1.837
-1.137	-6.588	-2.006
-1.137	-6.581	-2.001
-1.139	-6.572	-2.000
-1.141	-6.564	-2.005
-1.143	-6.561	-2.014
-1.145	-6.564	-2.023
-1.145	-6.572	-2.028
-1.143	-6.581	-2.029
-1.141	-6.588	-2.023
-1.138	-6.591	-2.015
-1.469	-6.645	-1.937
-1.469	-6.638	-1.932
-1.471	-6.628	-1.931
-1.473	-6.621	-1.937
-1.475	-6.618	-1.945
-1.477	-6.621	-1.954
-1.477	-6.628	-1.959
-1.475	-6.638	-1.960
-1.473	-6.645	-1.955
-1.471	-6.648	-1.946
-1.199	-6.681	-2.099
-1.194	-6.673	-2.102
-1.187	-6.671	-2.107
-1.179	-6.674	-2.111
-1.175	-6.682	-2.113
-1.175	-6.691	-2.113
-1.180	-6.698	-2.110
-1.187	-6.701	-2.105
-1.195	-6.698	-2.101
-1.199	-6.690	-2.098
-1.441	-6.702	-2.507
-1.436	-6.694	-2.511
-1.429	-6.692	-2.515
-1.421	-6.695	-2.520
-1.417	-6.703	-2.522
-1.417	-6.712	-2.521
-1.422	-6.719	-2.518
-1.429	-6.722	-2.513
-1.437	-6.718	-2.509
-1.441	-6.711	-2.507
-0.214	-5.122	-0.367
-0.213	-5.115	-0.361
-0.215	-5.106	-0.360
-0.218	-5.098	-0.364
-0.222	-5.095	-0.372
-0.225	-5.098	-0.381
-0.226	-5.105	-0.386
-0.224	-5.114	-0.387
-0.221	-5.122	-0.383
-0.217	-5.125	-0.375
-0.963	-5.269	-0.064
-0.963	-5.261	-0.058
-0.964	-5.252	-0.057
-0.967	-5.245	-0.061
-0.971	-5.242	-0.069
-0.974	-5.244	-0.078
-0.975	-5.251	-0.083
-0.973	-5.261	-0.084
-0.970	-5.268	-0.080
-0.966	-5.271	-0.072
-1.245	-6.788	-2.192
-1.239	-6.782	-2.195
-1.231	-6.781	-2.199
-1.224	-6.785	-2.202
-1.220	-6.793	-2.204
-1.221	-6.802	-2.203
-1.227	-6.809	-2.200
-1.235	-6.810	-2.196
-1.243	-6.806	-2.193
-1.247	-6.798	-2.191
-1.356	-6.807	-2.502
-1.352	-6.807	-2.494
-1.354	-6.807	-2.485
-1.360	-6.807	-2.478
-1.369	-6.807	-2.477
-1.378	-6.807	-2.481
-1.382	-6.807	-2.489
-1.380	-6.807	-2.499
-1.374	-6.807	-2.505
-1.365	-6.807	-2.507
-1.265	-6.911	-2.295
-1.261	-6.906	-2.288
-1.264	-6.902	-2.280
-1.271	-6.901	-2.274
-1.280	-6.903	-2.272
-1.287	-6.908	-2.276
-1.290	-6.912	-2.283
-1.288	-6.916	-2.291
-1.281	-6.917	-2.297
-1.272	-6.915	-2.298
-1.158	-7.243	-2.114
-1.154	-7.238	-2.107
-1.157	-7.235	-2.099
-1.164	-7.234	-2.093
-1.173	-7.236	-2.091
-1.180	-7.240	-2.095
-1.183	-7.245	-2.102
-1.181	-7.249	-2.110
-1.174	-7.250	-2.116
-1.165	-7.248	-2.118
-1.330	-7.019	-2.365
-1.325	-7.011	-2.368
-1.318	-7.009	-2.373
-1.310	-7.012	-2.377
-1.306	-7.019	-2.380
-1.306	-7.029	-2.380
-1.311	-7.036	-2.377
-1.318	-7.039	-2.372
-1.326	-7.036	-2.368
-1.330	-7.028	-2.365
-1.494	-7.036	-2.657
-1.494	-7.028	-2.652
-1.494	-7.019	-2.654
-1.494	-7.012	-2.660
-1.494	-7.011	-2.670
-1.494	-7.015	-2.678
-1.494	-7.023	-2.682
-1.494	-7.032	-2.681
-1.494	-7.039	-2.674
-1.494	-7.040	-2.665
-1.348	-7.141	-2.469
-1.345	-7.136	-2.462
-1.348	-7.132	-2.454
-1.355	-7.130	-2.448
-1.364	-7.131	-2.447
-1.372	-7.135	-2.451
-1.375	-7.140	-2.458
-1.372	-7.145	-2.466
-1.365	-7.146	-2.471
-1.356	-7.145	-2.472
-1.290	-7.409	-2.298
-1.287	-7.403	-2.291
-1.290	-7.399	-2.283
-1.297	-7.397	-2.277
-1.306	-7.398	-2.276
-1.313	-7.403	-2.280
-1.316	-7.408	-2.287
-1.314	-7.412	-2.295
-1.306	-7.414	-2.300
-1.297	-7.413	-2.301
-1.405	-7.241	-2.556
-1.400	-7.238	-2.549
-1.396	-7.240	-2.541
-1.394	-7.248	-2.536
-1.395	-7.257	-2.535
-1.399	-7.264	-2.539
-1.404	-7.267	-2.546
-1.408	-7.265	-2.554
-1.410	-7.257	-2.559
-1.409	-7.248	-2.560
-1.189	-7.283	-2.692
-1.184	-7.280	-2.684
-1.180	-7.283	-2.677
-1.178	-7.290	-2.671
-1.179	-7.299	-2.670
-1.183	-7.307	-2.674
-1.188	-7.310	-2.681
-1.192	-7.307	-2.689
-1.194	-7.300	-2.694
-1.193	-7.291	-2.695
-1.430	-7.374	-2.639
-1.427	-7.368	-2.632
-1.430	-7.364	-2.625
-1.437	-7.362	-2.619
-1.446	-7.364	-2.617
-1.453	-7.369	-2.620
-1.456	-7.375	-2.627
-1.453	-7.380	-2.635
-1.446	-7.381	-2.640
-1.437	-7.379	-2.642
-1.354	-7.582	-2.486
-1.351	-7.576	-2.480
-1.354	-7.572	-2.472
-1.361	-7.570	-2.466
-1.370	-7.572	-2.465
-1.377	-7.577	-2.468
-1.380	-7.583	-2.475
-1.377	-7.588	-2.482
-1.370	-7.589	-2.488
-1.361	-7.587	-2.489
-1.492	-7.486	-2.705
-1.487	-7.479	-2.708
-1.479	-7.476	-2.712
-1.472	-7.480	-2.716
-1.467	-7.488	-2.718
-1.468	-7.497	-2.718
-1.473	-7.504	-2.715
-1.481	-7.506	-2.710
-1.489	-7.503	-2.706
-1.493	-7.495	-2.704
-1.607	-7.491	-2.918
-1.602	-7.484	-2.921
-1.594	-7.482	-2.925
-1.586	-7.486	-2.929
-1.582	-7.493	-2.931
-1.583	-7.503	-2.931
-1.588	-7.510	-2.928
-1.596	-7.512	-2.923
-1.603	-7.508	-2.919
-1.608	-7.500	-2.917
-1.531	-7.604	-2.787
-1.525	-7.598	-2.790
-1.517	-7.596	-2.794
-1.509	-7.600	-2.797
-1.506	-7.609	-2.799
-1.507	-7.618	-2.798
-1.513	-7.624	-2.795
-1.521	-7.626	-2.792
-1.529	-7.622	-2.788
-1.532	-7.613	-2.787
-1.608	-7.607	-2.957
-1.602	-7.601	-2.959
-1.594	-7.599	-2.963
-1.586	-7.603	-2.967
-1.582	-7.612	-2.968
-1.584	-7.621	-2.967
-1.590	-7.627	-2.965
-1.598	-7.629	-2.961
-1.605	-7.625	-2.957
-1.609	-7.616	-2.956
-1.553	-7.743	-2.867
-1.553	-7.736	-2.861
-1.555	-7.727	-2.860
-1.558	-7.719	-2.865
-1.561	-7.716	-2.873
-1.562	-7.719	-2.882
-1.562	-7.726	-2.888
-1.560	-7.735	-2.888
-1.558	-7.742	-2.884
-1.555	-7.746	-2.875
-1.730	-7.783	-2.822
-1.730	-7.776	-2.817
-1.732	-7.767	-2.816
-1.735	-7.759	-2.820
-1.737	-7.756	-2.829
-1.739	-7.759	-2.837
-1.739	-7.766	-2.843
-1.737	-7.775	-2.844
-1.734	-7.783	-2.840
-1.731	-7.786	-2.831
-1.608	-7.846	-2.948
-1.601	-7.840	-2.950
-1.593	-7.838	-2.954
-1.585	-7.843	-2.957
-1.582	-7.851	-2.959
-1.583	-7.860	-2.958
-1.589	-7.867	-2.955
-1.598	-7.868	-2.951
-1.605	-7.863	-2.948
-1.609	-7.855	-2.947
-1.681	-7.850	-3.117
-1.675	-7.843	-3.120
-1.666	-7.842	-3.124
[...]
         <CellData>
           <DataArray type="Float32" Name="combinedRootClassID" NumberOfComponents="1" format="ascii">
 -1.300e+01 -1.300e+01 -1.300e+01 -1.300e+01 -1.300e+01 -1.300e+01 -1.300e+01 -1.300e+01 -1.300e+01 -1.300e+01 -1.300e+01 -1.300e+01 -1.300e+01 -1.300e+01 -1.300e+01 -1.300e+01 -1.300e+01 -1.300e+01 -1.300e+01 -1.300e+01 -1.300e+01 -1.300e+01 -1.300e+01 -1.300e+01 -1.300e+01 -1.300e+01 -1.300e+01 -1.300e+01 -1.300e+01 -1.300e+01 -1.300e+01 -1.300e+01 -1.300e+01 -1.300e+01 -1.300e+01 -1.300e+01 -1.300e+01 -5.000e+00 -5.000e+00 -5.000e+00 -5.000e+00 -5.000e+00 -5.000e+00 -5.000e+00 -5.000e+00 -5.000e+00 -5.000e+00 -5.000e+00 -5.000e+00 -5.000e+00 -5.000e+00 -5.000e+00 -5.000e+00 -5.000e+00 -5.000e+00 -1.300e+01 -1.300e+01 -1.300e+01 -1.300e+01 -1.300e+01 -1.300e+01 -1.300e+01 -1.300e+01 -1.300e+01 -1.300e+01 -1.300e+01 -1.300e+01 -1.300e+01 -1.300e+01 -1.300e+01 -1.300e+01 -1.300e+01 -1.300e+01 -1.300e+01 -1.300e+01 -1.300e+01 -1.300e+01 -1.300e+01 -1.300e+01 -1.300e+01 -1.300e+01 -1.300e+01 -1.300e+01 -1.300e+01 -1.300e+01 -1.300e+01 -1.300e+01 -1.300e+01 -1.300e+01 -1.300e+01 -1.300e+01 -1.300e+01 -5.000e+00 -5.000e+00 -5.000e+00 -5.000e+00 -5.000e+00 -5.000e+00 -5.000e+00 -5.000e+00 -5.000e+00 -5.000e+00 -5.000e+00 -5.000e+00 -5.000e+00 -5.000e+00 -5.000e+00 -5.000e+00 -5.000e+00 -5.000e+00 -1.300e+01 -1.300e+01 -1.300e+01 -1.300e+01 -1.300e+01 -1.300e+01 -1.300e+01 -1.300e+01 -1.300e+01 -1.300e+01 -1.300e+01 -1.300e+01 -1.300e+01 -1.300e+01 -1.300e+01 -1.300e+01 -1.300e+01 -1.300e+01 -1.300e+01 -1.300e+01 -1.300e+01 -1.300e+01 -1.300e+01 -1.300e+01 -1.300e+01 -1.300e+01 -1.300e+01 -1.300e+01 -1.300e+01 -1.300e+01 -1.300e+01 -1.300e+01 -1.300e+01 -1.300e+01 -1.300e+01 -1.300e+01 -1.300e+01 -1.300e+01 -5.000e+00 -5.000e+00 -5.000e+00 -5.000e+00 -5.000e+00 -5.000e+00 -5.000e+00 -5.000e+00 -5.000e+00 -5.000e+00 -5.000e+00 -5.000e+00 -5.000e+00 -5.000e+00 -5.000e+00 -5.000e+00 -5.000e+00 -5.000e+00 -1.300e+01 -1.300e+01 -1.300e+01 -1.300e+01 -1.300e+01 -1.300e+01 -1.300e+01 -1.300e+01 -1.300e+01 -1.300e+01 -1.300e+01 -1.300e+01 -1.300e+01 -1.300e+01 -1.300e+01 -1.300e+01 -1.300e+01 -1.300e+01 -1.300e+01 -1.300e+01 -1.300e+01 -1.300e+01 -1.300e+01 -1.300e+01 -1.300e+01 -1.300e+01 -1.300e+01 -1.300e+01 -1.300e+01 -1.300e+01 -1.300e+01 -1.300e+01 -1.300e+01 -1.300e+01 -1.300e+01 -1.300e+01 -1.300e+01 -5.000e+00 -5.000e+00 -5.000e+00 -5.000e+00 -5.000e+00 -5.000e+00 -5.000e+00 -5.000e+00 -5.000e+00 -5.000e+00 -5.000e+00 -5.000e+00 -5.000e+00 -5.000e+00 -5.000e+00 -5.000e+00 -5.000e+00 -5.000e+00 -1.100e+01 -1.100e+01 -1.100e+01 -1.100e+01 -1.100e+01 -1.100e+01 -1.100e+01 -1.100e+01 -1.100e+01 -1.100e+01 -1.100e+01 -1.100e+01 -1.100e+01 -1.100e+01 -1.100e+01 -1.100e+01 -1.100e+01 -1.100e+01 -1.100e+01 -1.100e+01 -1.100e+01 -1.100e+01 -1.100e+01 -1.100e+01 -1.100e+01 -1.100e+01 -1.100e+01 -1.100e+01 -1.100e+01 -1.100e+01 -1.100e+01 -1.100e+01 -2.000e+00 -2.000e+00 -2.000e+00 -2.000e+00 -2.000e+00 -2.000e+00 -2.000e+00 -2.000e+00 -2.000e+00 -2.000e+00 -2.000e+00 -2.000e+00 -7.000e+00 -7.000e+00 -7.000e+00 -7.000e+00 -7.000e+00 -7.000e+00 -7.000e+00 -7.000e+00 -7.000e+00 -7.000e+00 -7.000e+00 -7.000e+00 -7.000e+00 -7.000e+00 -7.000e+00 -7.000e+00 -7.000e+00 -7.000e+00 -7.000e+00 -7.000e+00 -7.000e+00 -7.000e+00 -7.000e+00 -7.000e+00 -7.000e+00 -7.000e+00 -7.000e+00 -7.000e+00 -7.000e+00 -7.000e+00 -7.000e+00 -7.000e+00 -7.000e+00 -7.000e+00 -7.000e+00 -7.000e+00 -7.000e+00 -7.000e+00 -7.000e+00 -7.000e+00 -7.000e+00 -7.000e+00 -7.000e+00 -7.000e+00 -7.000e+00 -7.000e+00 -7.000e+00 -7.000e+00 -7.000e+00 -7.000e+00 -7.000e+00 -7.000e+00 -7.000e+00 -7.000e+00 -7.000e+00 -7.000e+00 -7.000e+00 -7.000e+00 -7.000e+00 -7.000e+00 -7.000e+00 -7.000e+00 -7.000e+00 -7.000e+00 -7.000e+00 -7.000e+00 -7.000e+00 -7.000e+00 -7.000e+00 -7.000e+00 -7.000e+00 -7.000e+00 -7.000e+00 -7.000e+00 -7.000e+00 -7.000e+00 -7.000e+00 -7.000e+00 -7.000e+00 -7.000e+00 -7.000e+00 -7.000e+00 -7.000e+00 -7.000e+00 -7.000e+00 -7.000e+00 -7.000e+00 -7.000e+00 -7.000e+00 -7.000e+00 -7.000e+00 -7.000e+00 -7.000e+00 -7.000e+00 -7.000e+00 -7.000e+00 -7.000e+00 -7.000e+00 -7.000e+00 -7.000e+00 -7.000e+00 -7.000e+00 -7.000e+00 -7.000e+00 -7.000e+00 -7.000e+00 -7.000e+00 -7.000e+00 -7.000e+00 -7.000e+00 -7.000e+00 -7.000e+00 -7.000e+00 -7.000e+00 -7.000e+00 -7.000e+00 -7.000e+00 -7.000e+00 -7.000e+00 -7.000e+00 -7.000e+00 -7.000e+00 -7.000e+00 -7.000e+00 -7.000e+00 -7.000e+00 -7.000e+00 -7.000e+00 -7.000e+00 -7.000e+00 -7.000e+00 -7.000e+00 -7.000e+00 -7.000e+00 -7.000e+00 -7.000e+00 -7.000e+00 -7.000e+00 -7.000e+00 -7.000e+00 -7.000e+00 -7.000e+00 -7.000e+00 -7.000e+00 -7.000e+00 -7.000e+00 -7.000e+00 -7.000e+00 -7.000e+00 -7.000e+00 -7.000e+00 -7.000e+00 -7.000e+00 -7.000e+00 -7.000e+00 -7.000e+00 -7.000e+00 -7.000e+00 -7.000e+00 -7.000e+00 -7.000e+00 -7.000e+00 -7.000e+00 -7.000e+00 -7.000e+00 -7.000e+00 -7.000e+00 -7.000e+00 -7.000e+00 -7.000e+00 -7.000e+00 -7.000e+00 -7.000e+00 -7.000e+00 -7.000e+00 -7.000e+00 -7.000e+00 -7.000e+00 -7.000e+00 -7.000e+00 -7.000e+00 -7.000e+00 -7.000e+00 -7.000e+00 -7.000e+00 -7.000e+00 -7.000e+00 -7.000e+00 -7.000e+00 -7.000e+00 -7.000e+00 -7.000e+00 -7.000e+00 -7.000e+00 -7.000e+00 -7.000e+00 -7.000e+00 -7.000e+00 -7.000e+00 -7.000e+00 -7.000e+00 -7.000e+00 -7.000e+00 -7.000e+00 -7.000e+00 -7.000e+00 -7.000e+00 -7.000e+00 -7.000e+00 -7.000e+00 -7.000e+00 -7.000e+00 -7.000e+00 -7.000e+00 -7.000e+00 -7.000e+00 -7.000e+00 -7.000e+00 -7.000e+00 -7.000e+00 -7.000e+00 -7.000e+00 -7.000e+00 -7.000e+00 -7.000e+00 -7.000e+00 -7.000e+00 -7.000e+00 -7.000e+00 -7.000e+00 -7.000e+00 -7.000e+00 -7.000e+00 -7.000e+00 -7.000e+00 -7.000e+00 -7.000e+00 -7.000e+00 -7.000e+00 -7.000e+00 -7.000e+00 -7.000e+00 -7.000e+00 -7.000e+00 -7.000e+00 -7.000e+00 -7.000e+00 -7.000e+00 -7.000e+00 -7.000e+00 -7.000e+00 -7.000e+00 -7.000e+00 -7.000e+00 -7.000e+00 -7.000e+00 -7.000e+00 -7.000e+00 -7.000e+00 -7.000e+00 -7.000e+00 -7.000e+00 -7.000e+00 -7.000e+00 -7.000e+00 -7.000e+00 -7.000e+00 -7.000e+00 -7.000e+00 -7.000e+00 -7.000e+00 -7.000e+00 -7.000e+00 -7.000e+00 -7.000e+00 -7.000e+00 -7.000e+00 -7.000e+00 -7.000e+00 -7.000e+00 -7.000e+00 -7.000e+00 -7.000e+00 -7.000e+00 -7.000e+00 -7.000e+00 -7.000e+00 -7.000e+00 -7.000e+00 -7.000e+00 -7.000e+00 -7.000e+00 -7.000e+00 -7.000e+00 -7.000e+00 -7.000e+00 -7.000e+00 -7.000e+00 -7.000e+00 -7.000e+00 -7.000e+00 -7.000e+00 -1.500e+01 -9.000e+00 -9.000e+00 -9.000e+00 -9.000e+00 -9.000e+00 -9.000e+00 -9.000e+00 -9.000e+00 -9.000e+00 -9.000e+00 -9.000e+00 -9.000e+00 -9.000e+00 -9.000e+00 -9.000e+00 -9.000e+00 -9.000e+00 -9.000e+00 -4.000e+00 -4.000e+00 -4.000e+00 -4.000e+00 -4.000e+00 -4.000e+00 -4.000e+00 -4.000e+00 -4.000e+00 -4.000e+00 -4.000e+00 -4.000e+00 -4.000e+00 -4.000e+00 -4.000e+00 -4.000e+00 -4.000e+00 -4.000e+00 -4.000e+00 -4.000e+00 -4.000e+00 -4.000e+00 -4.000e+00 -4.000e+00 -4.000e+00 -4.000e+00 -4.000e+00 -4.000e+00 -4.000e+00 -4.000e+00 -4.000e+00 -4.000e+00 -4.000e+00 -4.000e+00 -4.000e+00 -4.000e+00 -4.000e+00 -4.000e+00 -4.000e+00 -4.000e+00 -4.000e+00 -4.000e+00 -4.000e+00 -4.000e+00
           </DataArray>
           <DataArray type="Float32" Name="nitrate/minimalNutrientConcentration" NumberOfComponents="1" format="ascii">
 6.000e+02 6.000e+02 6.000e+02 6.000e+02 6.000e+02 6.000e+02 6.000e+02 6.000e+02 6.000e+02 6.000e+02 6.000e+02 6.000e+02 6.000e+02 6.000e+02 6.000e+02 6.000e+02 6.000e+02 6.000e+02 6.000e+02 6.000e+02 6.000e+02 6.000e+02 6.000e+02 6.000e+02 6.000e+02 6.000e+02 6.000e+02 6.000e+02 6.000e+02 6.000e+02 6.000e+02 6.000e+02 6.000e+02 6.000e+02 6.000e+02 6.000e+02 6.000e+02 6.000e+02 6.000e+02 6.000e+02 6.000e+02 6.000e+02 6.000e+02 6.000e+02 6.000e+02 6.000e+02 6.000e+02 6.000e+02 6.000e+02 6.000e+02 6.000e+02 6.000e+02 6.000e+02 6.000e+02 6.000e+02 6.000e+02 6.000e+02 6.000e+02 6.000e+02 6.000e+02 6.000e+02 6.000e+02 6.000e+02 6.000e+02 6.000e+02 6.000e+02 6.000e+02 6.000e+02 6.000e+02 6.000e+02 6.000e+02 6.000e+02 6.000e+02 6.000e+02 6.000e+02 6.000e+02 6.000e+02 6.000e+02 6.000e+02 6.000e+02 6.000e+02 6.000e+02 6.000e+02 6.000e+02 6.000e+02 6.000e+02 6.000e+02 6.000e+02 6.000e+02 6.000e+02 6.000e+02 6.000e+02 6.000e+02 6.000e+02 6.000e+02 6.000e+02 6.000e+02 6.000e+02 6.000e+02 6.000e+02 6.000e+02 6.000e+02 6.000e+02 6.000e+02 6.000e+02 6.000e+02 6.000e+02 6.000e+02 6.000e+02 6.000e+02 6.000e+02 6.000e+02 6.000e+02 6.000e+02 6.000e+02 6.000e+02 6.000e+02 6.000e+02 6.000e+02 6.000e+02 6.000e+02 6.000e+02 6.000e+02 6.000e+02 6.000e+02 6.000e+02 6.000e+02 6.000e+02 6.000e+02 6.000e+02 6.000e+02 6.000e+02 6.000e+02 6.000e+02 6.000e+02 6.000e+02 6.000e+02 6.000e+02 6.000e+02 6.000e+02 6.000e+02 6.000e+02 6.000e+02 6.000e+02 6.000e+02 6.000e+02 6.000e+02 6.000e+02 6.000e+02 6.000e+02 6.000e+02 6.000e+02 6.000e+02 6.000e+02 6.000e+02 6.000e+02 6.000e+02 6.000e+02 6.000e+02 6.000e+02 6.000e+02 6.000e+02 6.000e+02 6.000e+02 6.000e+02 6.000e+02 6.000e+02 6.000e+02 6.000e+02 6.000e+02 6.000e+02 6.000e+02 6.000e+02 6.000e+02 6.000e+02 6.000e+02 6.000e+02 6.000e+02 6.000e+02 6.000e+02 6.000e+02 6.000e+02 6.000e+02 6.000e+02 6.000e+02 6.000e+02 6.000e+02 6.000e+02 6.000e+02 6.000e+02 6.000e+02 6.000e+02 6.000e+02 6.000e+02 6.000e+02 6.000e+02 6.000e+02 6.000e+02 6.000e+02 6.000e+02 6.000e+02 6.000e+02 6.000e+02 6.000e+02 6.000e+02 6.000e+02 6.000e+02 6.000e+02 6.000e+02 6.000e+02 6.000e+02 6.000e+02 6.000e+02 6.000e+02 6.000e+02 6.000e+02 6.000e+02 6.000e+02 6.000e+02 6.000e+02 6.000e+02 6.000e+02 6.000e+02 6.000e+02 6.000e+02 6.000e+02 6.000e+02 6.000e+02 6.000e+02 6.000e+02 6.000e+02 6.000e+02 6.000e+02 6.000e+02 6.000e+02 6.000e+02 6.000e+02 6.000e+02 6.000e+02 6.000e+02 6.000e+02 6.000e+02 6.000e+02 6.000e+02 6.000e+02 6.000e+02 6.000e+02 6.000e+02 6.000e+02 6.000e+02 6.000e+02 6.000e+02 6.000e+02 6.000e+02 6.000e+02 6.000e+02 6.000e+02 6.000e+02 6.000e+02 6.000e+02 6.000e+02 6.000e+02 6.000e+02 6.000e+02 6.000e+02 6.000e+02 6.000e+02 6.000e+02 6.000e+02 6.000e+02 6.000e+02 6.000e+02 6.000e+02 6.000e+02 6.000e+02 6.000e+02 6.000e+02 6.000e+02 6.000e+02 6.000e+02 6.000e+02 6.000e+02 6.000e+02 6.000e+02 6.000e+02 6.000e+02 6.000e+02 6.000e+02 6.000e+02 6.000e+02 6.000e+02 6.000e+02 6.000e+02 6.000e+02 6.000e+02 6.000e+02 6.000e+02 6.000e+02 6.000e+02 6.000e+02 6.000e+02 6.000e+02 6.000e+02 6.000e+02 6.000e+02 6.000e+02 6.000e+02 6.000e+02 6.000e+02 6.000e+02 6.000e+02 6.000e+02 6.000e+02 6.000e+02 6.000e+02 6.000e+02 6.000e+02 6.000e+02 6.000e+02 6.000e+02 6.000e+02 6.000e+02 6.000e+02 6.000e+02 6.000e+02 6.000e+02 6.000e+02 6.000e+02 6.000e+02 6.000e+02 6.000e+02 6.000e+02 6.000e+02 6.000e+02 6.000e+02 6.000e+02 6.000e+02 6.000e+02 6.000e+02 6.000e+02 6.000e+02 6.000e+02 6.000e+02 6.000e+02 6.000e+02 6.000e+02 6.000e+02 6.000e+02 6.000e+02 6.000e+02 6.000e+02 6.000e+02 6.000e+02 6.000e+02 6.000e+02 6.000e+02 6.000e+02 6.000e+02 6.000e+02 6.000e+02 6.000e+02 6.000e+02 6.000e+02 6.000e+02 6.000e+02 6.000e+02 6.000e+02 6.000e+02 6.000e+02 6.000e+02 6.000e+02 6.000e+02 6.000e+02 6.000e+02 6.000e+02 6.000e+02 6.000e+02 6.000e+02 6.000e+02 6.000e+02 6.000e+02 6.000e+02 6.000e+02 6.000e+02 6.000e+02 6.000e+02 6.000e+02 6.000e+02 6.000e+02 6.000e+02 6.000e+02 6.000e+02 6.000e+02 6.000e+02 6.000e+02 6.000e+02 6.000e+02 6.000e+02 6.000e+02 6.000e+02 6.000e+02 6.000e+02 6.000e+02 6.000e+02 6.000e+02 6.000e+02 6.000e+02 6.000e+02 6.000e+02 6.000e+02 6.000e+02 6.000e+02 6.000e+02 6.000e+02 6.000e+02 6.000e+02 6.000e+02 6.000e+02 6.000e+02 6.000e+02 6.000e+02 6.000e+02 6.000e+02 6.000e+02 6.000e+02 6.000e+02 6.000e+02 6.000e+02 6.000e+02 6.000e+02 6.000e+02 6.000e+02 6.000e+02 6.000e+02 6.000e+02 6.000e+02 6.000e+02 6.000e+02 6.000e+02 6.000e+02 6.000e+02 6.000e+02 6.000e+02 6.000e+02 6.000e+02 6.000e+02 6.000e+02 6.000e+02 6.000e+02 6.000e+02 6.000e+02 6.000e+02 6.000e+02 6.000e+02 6.000e+02 6.000e+02 6.000e+02 6.000e+02 6.000e+02 6.000e+02 6.000e+02 6.000e+02 6.000e+02 6.000e+02 6.000e+02 6.000e+02 6.000e+02 6.000e+02 6.000e+02 6.000e+02 6.000e+02 6.000e+02 6.000e+02 6.000e+02 6.000e+02 6.000e+02 6.000e+02 6.000e+02 6.000e+02 6.000e+02 6.000e+02 6.000e+02 6.000e+02 6.000e+02 6.000e+02 6.000e+02 6.000e+02 6.000e+02 6.000e+02 6.000e+02 6.000e+02 6.000e+02 6.000e+02 6.000e+02 6.000e+02 6.000e+02 6.000e+02 6.000e+02 6.000e+02 6.000e+02 6.000e+02 6.000e+02 6.000e+02 6.000e+02 6.000e+02 6.000e+02 6.000e+02 6.000e+02 6.000e+02 6.000e+02 6.000e+02 6.000e+02 6.000e+02 6.000e+02 6.000e+02 6.000e+02 6.000e+02 6.000e+02 6.000e+02 6.000e+02 6.000e+02 6.000e+02 6.000e+02 6.000e+02 6.000e+02 6.000e+02 6.000e+02 6.000e+02 6.000e+02 6.000e+02 6.000e+02 6.000e+02 6.000e+02 6.000e+02 6.000e+02 6.000e+02 6.000e+02 6.000e+02 6.000e+02 6.000e+02 6.000e+02 6.000e+02 6.000e+02 6.000e+02 6.000e+02 6.000e+02 6.000e+02 6.000e+02 6.000e+02 6.000e+02 6.000e+02 6.000e+02 6.000e+02 6.000e+02 6.000e+02 6.000e+02 6.000e+02 6.000e+02 6.000e+02 6.000e+02 6.000e+02 6.000e+02 6.000e+02 6.000e+02 6.000e+02 6.000e+02 6.000e+02 6.000e+02 6.000e+02 6.000e+02 6.000e+02 6.000e+02 6.000e+02 6.000e+02 6.000e+02 6.000e+02 6.000e+02 6.000e+02 6.000e+02 6.000e+02 6.000e+02 6.000e+02 6.000e+02 6.000e+02 6.000e+02 6.000e+02 6.000e+02 6.000e+02 6.000e+02 6.000e+02 6.000e+02 6.000e+02 6.000e+02 6.000e+02 6.000e+02 6.000e+02 6.000e+02 6.000e+02 6.000e+02 6.000e+02 6.000e+02 6.000e+02 6.000e+02 6.000e+02 6.000e+02 6.000e+02 6.000e+02 6.000e+02 6.000e+02 6.000e+02 6.000e+02 6.000e+02 6.000e+02 6.000e+02 6.000e+02 6.000e+02 6.000e+02 6.000e+02 6.000e+02 6.000e+02 6.000e+02 6.000e+02 6.000e+02 6.000e+02 6.000e+02 6.000e+02 6.000e+02 6.000e+02 6.000e+02 6.000e+02
           </DataArray>
           <DataArray type="Float32" Name="nitrate/optimalNutrientConcentration" NumberOfComponents="1" format="ascii">
 1.200e+03 1.200e+03 1.200e+03 1.200e+03 1.200e+03 1.200e+03 1.200e+03 1.200e+03 1.200e+03 1.200e+03 1.200e+03 1.200e+03 1.200e+03 1.200e+03 1.200e+03 1.200e+03 1.200e+03 1.200e+03 1.200e+03 1.200e+03 1.200e+03 1.200e+03 1.200e+03 1.200e+03 1.200e+03 1.200e+03 1.200e+03 1.200e+03 1.200e+03 1.200e+03 1.200e+03 1.200e+03 1.200e+03 1.200e+03 1.200e+03 1.200e+03 1.200e+03 1.200e+03 1.200e+03 1.200e+03 1.200e+03 1.200e+03 1.200e+03 1.200e+03 1.200e+03 1.200e+03 1.200e+03 1.200e+03 1.200e+03 1.200e+03 1.200e+03 1.200e+03 1.200e+03 1.200e+03 1.200e+03 1.200e+03 1.200e+03 1.200e+03 1.200e+03 1.200e+03 1.200e+03 1.200e+03 1.200e+03 1.200e+03 1.200e+03 1.200e+03 1.200e+03 1.200e+03 1.200e+03 1.200e+03 1.200e+03 1.200e+03 1.200e+03 1.200e+03 1.200e+03 1.200e+03 1.200e+03 1.200e+03 1.200e+03 1.200e+03 1.200e+03 1.200e+03 1.200e+03 1.200e+03 1.200e+03 1.200e+03 1.200e+03 1.200e+03 1.200e+03 1.200e+03 1.200e+03 1.200e+03 1.200e+03 1.200e+03 1.200e+03 1.200e+03 1.200e+03 1.200e+03 1.200e+03 1.200e+03 1.200e+03 1.200e+03 1.200e+03 1.200e+03 1.200e+03 1.200e+03 1.200e+03 1.200e+03 1.200e+03 1.200e+03 1.200e+03 1.200e+03 1.200e+03 1.200e+03 1.200e+03 1.200e+03 1.200e+03 1.200e+03 1.200e+03 1.200e+03 1.200e+03 1.200e+03 1.200e+03 1.200e+03 1.200e+03 1.200e+03 1.200e+03 1.200e+03 1.200e+03 1.200e+03 1.200e+03 1.200e+03 1.200e+03 1.200e+03 1.200e+03 1.200e+03 1.200e+03 1.200e+03 1.200e+03 1.200e+03 1.200e+03 1.200e+03 1.200e+03 1.200e+03 1.200e+03 1.200e+03 1.200e+03 1.200e+03 1.200e+03 1.200e+03 1.200e+03 1.200e+03 1.200e+03 1.200e+03 1.200e+03 1.200e+03 1.200e+03 1.200e+03 1.200e+03 1.200e+03 1.200e+03 1.200e+03 1.200e+03 1.200e+03 1.200e+03 1.200e+03 1.200e+03 1.200e+03 1.200e+03 1.200e+03 1.200e+03 1.200e+03 1.200e+03 1.200e+03 1.200e+03 1.200e+03 1.200e+03 1.200e+03 1.200e+03 1.200e+03 1.200e+03 1.200e+03 1.200e+03 1.200e+03 1.200e+03 1.200e+03 1.200e+03 1.200e+03 1.200e+03 1.200e+03 1.200e+03 1.200e+03 1.200e+03 1.200e+03 1.200e+03 1.200e+03 1.200e+03 1.200e+03 1.200e+03 1.200e+03 1.200e+03 1.200e+03 1.200e+03 1.200e+03 1.200e+03 1.200e+03 1.200e+03 1.200e+03 1.200e+03 1.200e+03 1.200e+03 1.200e+03 1.200e+03 1.200e+03 1.200e+03 1.200e+03 1.200e+03 1.200e+03 1.200e+03 1.200e+03 1.200e+03 1.200e+03 1.200e+03 1.200e+03 1.200e+03 1.200e+03 1.200e+03 1.200e+03 1.200e+03 1.200e+03 1.200e+03 1.200e+03 1.200e+03 1.200e+03 1.200e+03 1.200e+03 1.200e+03 1.200e+03 1.200e+03 1.200e+03 1.200e+03 1.200e+03 1.200e+03 1.200e+03 1.200e+03 1.200e+03 1.200e+03 1.200e+03 1.200e+03 1.200e+03 1.200e+03 1.200e+03 1.200e+03 1.200e+03 1.200e+03 1.200e+03 1.200e+03 1.200e+03 1.200e+03 1.200e+03 1.200e+03 1.200e+03 1.200e+03 1.200e+03 1.200e+03 1.200e+03 1.200e+03 1.200e+03 1.200e+03 1.200e+03 1.200e+03 1.200e+03 1.200e+03 1.200e+03 1.200e+03 1.200e+03 1.200e+03 1.200e+03 1.200e+03 1.200e+03 1.200e+03 1.200e+03 1.200e+03 1.200e+03 1.200e+03 1.200e+03 1.200e+03 1.200e+03 1.200e+03 1.200e+03 1.200e+03 1.200e+03 1.200e+03 1.200e+03 1.200e+03 1.200e+03 1.200e+03 1.200e+03 1.200e+03 1.200e+03 1.200e+03 1.200e+03 1.200e+03 1.200e+03 1.200e+03 1.200e+03 1.200e+03 1.200e+03 1.200e+03 1.200e+03 1.200e+03 1.200e+03 1.200e+03 1.200e+03 1.200e+03 1.200e+03 1.200e+03 1.200e+03 1.200e+03 1.200e+03 1.200e+03 1.200e+03 1.200e+03 1.200e+03 1.200e+03 1.200e+03 1.200e+03 1.200e+03 1.200e+03 1.200e+03 1.200e+03 1.200e+03 1.200e+03 1.200e+03 1.200e+03 1.200e+03 1.200e+03 1.200e+03 1.200e+03 1.200e+03 1.200e+03 1.200e+03 1.200e+03 1.200e+03 1.200e+03 1.200e+03 1.200e+03 1.200e+03 1.200e+03 1.200e+03 1.200e+03 1.200e+03 1.200e+03 1.200e+03 1.200e+03 1.200e+03 1.200e+03 1.200e+03 1.200e+03 1.200e+03 1.200e+03 1.200e+03 1.200e+03 1.200e+03 1.200e+03 1.200e+03 1.200e+03 1.200e+03 1.200e+03 1.200e+03 1.200e+03 1.200e+03 1.200e+03 1.200e+03 1.200e+03 1.200e+03 1.200e+03 1.200e+03 1.200e+03 1.200e+03 1.200e+03 1.200e+03 1.200e+03 1.200e+03 1.200e+03 1.200e+03 1.200e+03 1.200e+03 1.200e+03 1.200e+03 1.200e+03 1.200e+03 1.200e+03 1.200e+03 1.200e+03 1.200e+03 1.200e+03 1.200e+03 1.200e+03 1.200e+03 1.200e+03 1.200e+03 1.200e+03 1.200e+03 1.200e+03 1.200e+03 1.200e+03 1.200e+03 1.200e+03 1.200e+03 1.200e+03 1.200e+03 1.200e+03 1.200e+03 1.200e+03 1.200e+03 1.200e+03 1.200e+03 1.200e+03 1.200e+03 1.200e+03 1.200e+03 1.200e+03 1.200e+03 1.200e+03 1.200e+03 1.200e+03 1.200e+03 1.200e+03 1.200e+03 1.200e+03 1.200e+03 1.200e+03 1.200e+03 1.200e+03 1.200e+03 1.200e+03 1.200e+03 1.200e+03 1.200e+03 1.200e+03 1.200e+03 1.200e+03 1.200e+03 1.200e+03 1.200e+03 1.200e+03 1.200e+03 1.200e+03 1.200e+03 1.200e+03 1.200e+03 1.200e+03 1.200e+03 1.200e+03 1.200e+03 1.200e+03 1.200e+03 1.200e+03 1.200e+03 1.200e+03 1.200e+03 1.200e+03 1.200e+03 1.200e+03 1.200e+03 1.200e+03 1.200e+03 1.200e+03 1.200e+03 1.200e+03 1.200e+03 1.200e+03 1.200e+03 1.200e+03 1.200e+03 1.200e+03 1.200e+03 1.200e+03 1.200e+03 1.200e+03 1.200e+03 1.200e+03 1.200e+03 1.200e+03 1.200e+03 1.200e+03 1.200e+03 1.200e+03 1.200e+03 1.200e+03 1.200e+03 1.200e+03 1.200e+03 1.200e+03 1.200e+03 1.200e+03 1.200e+03 1.200e+03 1.200e+03 1.200e+03 1.200e+03 1.200e+03 1.200e+03 1.200e+03 1.200e+03 1.200e+03 1.200e+03 1.200e+03 1.200e+03 1.200e+03 1.200e+03 1.200e+03 1.200e+03 1.200e+03 1.200e+03 1.200e+03 1.200e+03 1.200e+03 1.200e+03 1.200e+03 1.200e+03 1.200e+03 1.200e+03 1.200e+03 1.200e+03 1.200e+03 1.200e+03 1.200e+03 1.200e+03 1.200e+03 1.200e+03 1.200e+03 1.200e+03 1.200e+03 1.200e+03 1.200e+03 1.200e+03 1.200e+03 1.200e+03 1.200e+03 1.200e+03 1.200e+03 1.200e+03 1.200e+03 1.200e+03 1.200e+03 1.200e+03 1.200e+03 1.200e+03 1.200e+03 1.200e+03 1.200e+03 1.200e+03 1.200e+03 1.200e+03 1.200e+03 1.200e+03 1.200e+03 1.200e+03 1.200e+03 1.200e+03 1.200e+03 1.200e+03 1.200e+03 1.200e+03 1.200e+03 1.200e+03 1.200e+03 1.200e+03 1.200e+03 1.200e+03 1.200e+03 1.200e+03 1.200e+03 1.200e+03 1.200e+03 1.200e+03 1.200e+03 1.200e+03 1.200e+03 1.200e+03 1.200e+03 1.200e+03 1.200e+03 1.200e+03 1.200e+03 1.200e+03 1.200e+03 1.200e+03 1.200e+03 1.200e+03 1.200e+03 1.200e+03 1.200e+03 1.200e+03 1.200e+03 1.200e+03 1.200e+03 1.200e+03 1.200e+03 1.200e+03 1.200e+03 1.200e+03 1.200e+03 1.200e+03 1.200e+03 1.200e+03 1.200e+03 1.200e+03 1.200e+03 1.200e+03 1.200e+03 1.200e+03 1.200e+03 1.200e+03 1.200e+03 1.200e+03 1.200e+03 1.200e+03 1.200e+03 1.200e+03 1.200e+03 1.200e+03 1.200e+03 1.200e+03 1.200e+03 1.200e+03 1.200e+03 1.200e+03
           </DataArray>