<?xml version="1.0"?>
<VTKFile type="UnstructuredGrid" version="0.1" byte_order="LittleEndian">
   <UnstructuredGrid>
      <Piece NumberOfPoints="22610" NumberOfCells="1605">
         <Points>
            <DataArray type="Float32" Name="Position" NumberOfComponents="3" format="ascii">
0.125	-4.999	0.063
0.132	-4.996	0.069
0.138	-4.999	0.075
0.142	-5.006	0.079
0.142	-5.016	0.079
0.138	-5.023	0.075
0.131	-5.026	0.070
0.124	-5.023	0.064
0.121	-5.015	0.060
0.121	-5.006	0.060
0.668	-5.022	-0.532
0.675	-5.019	-0.526
0.681	-5.022	-0.520
0.684	-5.030	-0.515
0.683	-5.039	-0.515
0.679	-5.046	-0.518
0.672	-5.049	-0.524
0.666	-5.046	-0.530
0.663	-5.039	-0.535
0.664	-5.029	-0.535
1.285	-5.172	-1.102
1.292	-5.169	-1.096
1.297	-5.172	-1.089
1.299	-5.179	-1.084
1.298	-5.188	-1.083
1.293	-5.196	-1.086
1.287	-5.198	-1.092
1.282	-5.195	-1.099
1.279	-5.188	-1.104
1.281	-5.179	-1.105
1.832	-5.327	-1.531
1.838	-5.324	-1.524
1.843	-5.327	-1.517
1.845	-5.335	-1.512
1.843	-5.344	-1.510
1.839	-5.351	-1.514
1.833	-5.354	-1.520
1.828	-5.351	-1.528
1.826	-5.343	-1.533
1.827	-5.334	-1.534
0.257	-5.026	0.130
0.263	-5.023	0.137
0.269	-5.026	0.143
0.272	-5.034	0.148
0.272	-5.043	0.148
0.268	-5.051	0.144
0.262	-5.053	0.137
0.256	-5.050	0.131
0.253	-5.043	0.126
0.253	-5.034	0.126
0.883	-5.045	-0.438
0.889	-5.042	-0.431
0.895	-5.045	-0.425
0.898	-5.052	-0.421
0.898	-5.062	-0.421
0.894	-5.069	-0.424
0.888	-5.072	-0.431
0.882	-5.069	-0.437
0.878	-5.061	-0.441
0.879	-5.052	-0.441
1.489	-5.069	-1.030
1.495	-5.066	-1.024
1.502	-5.069	-1.018
1.506	-5.077	-1.014
1.505	-5.086	-1.014
1.501	-5.094	-1.017
1.494	-5.096	-1.023
1.488	-5.093	-1.029
1.484	-5.086	-1.033
1.485	-5.077	-1.033
1.539	-5.083	-1.075
1.543	-5.083	-1.067
1.542	-5.083	-1.058
1.535	-5.083	-1.051
1.526	-5.083	-1.050
1.518	-5.083	-1.054
1.514	-5.083	-1.062
1.515	-5.083	-1.071
1.522	-5.083	-1.078
1.531	-5.083	-1.079
1.374	-5.559	0.688
1.378	-5.559	0.696
1.377	-5.560	0.705
1.371	-5.560	0.712
1.362	-5.561	0.714
1.353	-5.560	0.710
1.349	-5.560	0.702
1.350	-5.559	0.692
1.356	-5.559	0.686
1.365	-5.558	0.684
1.375	-6.377	0.627
1.380	-6.378	0.634
1.379	-6.379	0.644
1.374	-6.380	0.651
1.365	-6.381	0.653
1.356	-6.381	0.649
1.351	-6.380	0.642
1.352	-6.379	0.632
1.358	-6.377	0.625
1.367	-6.377	0.623
1.384	-6.919	0.531
1.393	-6.915	0.531
1.402	-6.917	0.531
1.408	-6.923	0.531
1.410	-6.932	0.531
1.406	-6.941	0.531
1.397	-6.945	0.531
1.388	-6.943	0.531
1.382	-6.937	0.531
1.380	-6.928	0.531
1.468	-5.630	0.751
1.475	-5.627	0.757
1.481	-5.630	0.763
1.485	-5.637	0.767
1.485	-5.647	0.767
1.480	-5.654	0.764
1.474	-5.657	0.758
1.467	-5.654	0.752
1.464	-5.646	0.748
1.464	-5.637	0.748
2.063	-5.656	0.107
2.069	-5.654	0.112
2.076	-5.657	0.118
2.080	-5.664	0.122
2.080	-5.673	0.122
2.075	-5.681	0.119
2.068	-5.684	0.113
2.062	-5.681	0.107
2.058	-5.673	0.104
2.058	-5.664	0.103
2.541	-5.699	-0.529
2.549	-5.697	-0.524
2.556	-5.700	-0.519
2.560	-5.707	-0.515
2.560	-5.716	-0.515
2.555	-5.724	-0.518
2.548	-5.727	-0.523
2.541	-5.724	-0.528
2.536	-5.716	-0.532
2.537	-5.707	-0.532
2.692	-5.705	-0.748
2.699	-5.702	-0.743
2.707	-5.705	-0.738
2.711	-5.712	-0.735
2.711	-5.722	-0.735
2.706	-5.729	-0.738
2.699	-5.732	-0.743
2.692	-5.729	-0.748
2.687	-5.721	-0.751
2.688	-5.712	-0.751
1.596	-5.729	0.808
1.598	-5.731	0.817
1.595	-5.730	0.825
1.587	-5.728	0.830
1.579	-5.724	0.830
1.572	-5.721	0.824
1.570	-5.720	0.815
1.574	-5.720	0.806
1.581	-5.723	0.801
1.590	-5.726	0.802
1.312	-6.442	0.742
1.314	-6.444	0.750
1.310	-6.443	0.759
1.303	-6.441	0.764
1.294	-6.437	0.763
1.288	-6.433	0.757
1.287	-6.432	0.748
1.290	-6.432	0.740
1.298	-6.435	0.735
1.306	-6.438	0.736
0.981	-7.139	0.626
0.982	-7.141	0.635
0.978	-7.141	0.643
0.971	-7.138	0.648
0.962	-7.134	0.647
0.957	-7.129	0.641
0.956	-7.127	0.632
0.960	-7.127	0.623
0.967	-7.130	0.619
0.976	-7.134	0.620
0.824	-7.413	0.548
0.825	-7.416	0.557
0.821	-7.416	0.565
0.813	-7.413	0.570
0.805	-7.408	0.569
0.800	-7.404	0.563
0.800	-7.401	0.554
0.804	-7.401	0.546
0.811	-7.404	0.541
0.819	-7.409	0.542
1.701	-5.803	0.862
1.698	-5.796	0.867
1.694	-5.794	0.875
1.690	-5.798	0.883
1.688	-5.806	0.887
1.688	-5.815	0.886
1.690	-5.822	0.881
1.695	-5.824	0.873
1.699	-5.820	0.865
1.701	-5.813	0.861
2.435	-5.816	1.244
2.433	-5.809	1.251
2.430	-5.808	1.259
2.427	-5.812	1.267
2.425	-5.821	1.270
2.425	-5.830	1.269
2.427	-5.836	1.262
2.431	-5.838	1.254
2.434	-5.833	1.246
2.436	-5.825	1.243
3.270	-5.859	1.482
3.268	-5.853	1.490
3.266	-5.853	1.499
3.264	-5.858	1.506
3.263	-5.867	1.509
3.263	-5.876	1.506
3.265	-5.881	1.499
3.267	-5.881	1.490
3.269	-5.876	1.483
3.270	-5.867	1.480
3.611	-5.882	1.580
3.619	-5.882	1.584
3.628	-5.882	1.582
3.635	-5.882	1.576
3.636	-5.882	1.567
3.632	-5.882	1.558
3.624	-5.882	1.554
3.615	-5.882	1.556
3.608	-5.882	1.562
3.607	-5.882	1.571
1.815	-5.896	0.918
1.818	-5.899	0.926
1.817	-5.900	0.935
1.810	-5.900	0.941
1.801	-5.899	0.943
1.793	-5.896	0.939
1.789	-5.893	0.931
1.791	-5.891	0.922
1.798	-5.891	0.915
1.807	-5.893	0.914
1.615	-6.728	0.721
1.619	-6.731	0.729
1.617	-6.732	0.738
1.610	-6.732	0.745
1.601	-6.730	0.746
1.593	-6.726	0.742
1.590	-6.724	0.734
1.592	-6.722	0.725
1.599	-6.723	0.718
1.608	-6.725	0.717
1.386	-7.429	0.569
1.389	-7.432	0.577
1.387	-7.433	0.586
1.380	-7.432	0.592
1.371	-7.430	0.593
1.364	-7.426	0.589
1.361	-7.423	0.580
1.363	-7.422	0.571
1.370	-7.423	0.565
1.379	-7.426	0.564
1.922	-5.981	0.970
1.919	-5.973	0.974
1.914	-5.969	0.980
1.909	-5.971	0.988
1.905	-5.978	0.993
1.904	-5.987	0.993
1.907	-5.995	0.989
1.912	-5.999	0.983
1.917	-5.997	0.975
1.921	-5.990	0.970
2.548	-6.005	1.426
2.545	-5.997	1.430
2.540	-5.993	1.436
2.535	-5.994	1.443
2.530	-6.001	1.448
2.529	-6.010	1.449
2.532	-6.018	1.446
2.537	-6.022	1.440
2.543	-6.021	1.432
2.547	-6.014	1.427
3.154	-6.017	1.948
3.152	-6.009	1.951
3.146	-6.004	1.957
3.140	-6.005	1.964
3.136	-6.011	1.969
3.134	-6.020	1.971
3.136	-6.028	1.968
3.141	-6.033	1.962
3.148	-6.032	1.955
3.152	-6.026	1.950
3.351	-6.026	2.127
3.349	-6.018	2.130
3.344	-6.013	2.136
3.338	-6.013	2.143
3.333	-6.019	2.148
3.331	-6.028	2.149
3.333	-6.037	2.147
3.338	-6.042	2.141
3.345	-6.041	2.134
3.350	-6.035	2.129
2.016	-6.062	1.027
2.023	-6.060	1.032
2.029	-6.063	1.039
2.032	-6.070	1.043
2.030	-6.079	1.045
2.025	-6.086	1.043
2.017	-6.089	1.037
2.011	-6.086	1.031
2.009	-6.078	1.026
2.011	-6.069	1.025
2.553	-6.276	0.404
2.560	-6.273	0.409
2.566	-6.276	0.416
2.568	-6.283	0.421
2.566	-6.292	0.423
2.560	-6.299	0.420
2.554	-6.302	0.415
2.548	-6.299	0.408
2.546	-6.292	0.403
2.548	-6.283	0.401
3.211	-6.542	-0.140
3.218	-6.540	-0.134
3.223	-6.542	-0.126
3.224	-6.550	-0.121
3.222	-6.558	-0.119
3.217	-6.566	-0.122
3.210	-6.568	-0.128
3.206	-6.565	-0.136
3.204	-6.558	-0.141
3.206	-6.549	-0.143
2.134	-6.164	1.073
2.133	-6.157	1.078
2.129	-6.153	1.086
2.124	-6.156	1.093
2.120	-6.163	1.098
2.118	-6.172	1.097
2.119	-6.180	1.092
2.123	-6.183	1.084
2.128	-6.180	1.076
2.132	-6.173	1.072
2.873	-6.335	1.504
2.873	-6.327	1.508
2.869	-6.323	1.516
2.863	-6.325	1.523
2.857	-6.331	1.527
2.854	-6.339	1.527
2.855	-6.347	1.522
2.859	-6.352	1.515
2.865	-6.350	1.508
2.870	-6.344	1.503
3.255	-6.543	1.915
3.264	-6.538	1.915
3.273	-6.540	1.915
3.279	-6.546	1.915
3.281	-6.556	1.915
3.276	-6.564	1.915
3.268	-6.568	1.915
3.259	-6.567	1.915
3.253	-6.560	1.915
3.251	-6.551	1.915
2.225	-6.253	1.125
2.232	-6.251	1.130
2.239	-6.254	1.136
2.242	-6.261	1.140
2.240	-6.270	1.142
2.235	-6.278	1.139
2.228	-6.280	1.134
2.222	-6.277	1.128
2.218	-6.269	1.123
2.220	-6.260	1.122
2.770	-6.413	0.455
2.777	-6.411	0.460
2.783	-6.414	0.467
2.786	-6.421	0.471
2.785	-6.430	0.472
2.779	-6.437	0.470
2.773	-6.440	0.464
2.767	-6.437	0.458
2.764	-6.430	0.453
2.765	-6.420	0.452
3.204	-6.546	0.035
3.211	-6.543	0.041
3.217	-6.546	0.048
3.221	-6.554	0.051
3.221	-6.563	0.051
3.217	-6.570	0.047
3.210	-6.573	0.041
3.204	-6.570	0.035
3.200	-6.562	0.031
3.200	-6.553	0.031
2.346	-6.365	1.170
2.348	-6.367	1.179
2.345	-6.368	1.187
2.338	-6.366	1.193
2.329	-6.363	1.193
2.322	-6.360	1.188
2.320	-6.358	1.180
2.323	-6.357	1.171
2.330	-6.359	1.165
2.339	-6.362	1.165
2.086	-7.127	1.047
2.088	-7.130	1.056
2.085	-7.130	1.065
2.078	-7.129	1.070
2.069	-7.125	1.071
2.062	-7.122	1.065
2.060	-7.120	1.057
2.063	-7.119	1.048
2.070	-7.121	1.042
2.079	-7.124	1.042
1.800	-7.867	0.912
1.802	-7.869	0.921
1.799	-7.869	0.930
1.792	-7.868	0.935
1.783	-7.864	0.935
1.776	-7.861	0.930
1.774	-7.858	0.921
1.777	-7.858	0.913
1.784	-7.860	0.907
1.793	-7.863	0.907
0.400	-5.064	0.190
0.398	-5.057	0.195
0.394	-5.055	0.203
0.390	-5.059	0.211
0.387	-5.067	0.215
0.388	-5.076	0.214
0.390	-5.083	0.208
0.394	-5.085	0.200
0.398	-5.082	0.193
0.400	-5.074	0.189
1.180	-5.102	0.570
1.178	-5.094	0.575
1.174	-5.092	0.583
1.170	-5.095	0.591
1.167	-5.103	0.595
1.166	-5.112	0.594
1.168	-5.119	0.589
1.172	-5.122	0.581
1.176	-5.118	0.573
1.179	-5.111	0.569
1.947	-5.277	0.995
1.945	-5.269	1.000
1.941	-5.265	1.007
1.936	-5.267	1.014
1.931	-5.273	1.019
1.929	-5.282	1.019
1.931	-5.290	1.014
1.935	-5.294	1.007
1.940	-5.293	1.000
1.945	-5.286	0.995
2.184	-5.324	1.208
2.183	-5.315	1.211
2.178	-5.310	1.217
2.172	-5.311	1.224
2.166	-5.317	1.229
2.164	-5.325	1.230
2.165	-5.334	1.227
2.170	-5.339	1.220
2.176	-5.338	1.213
2.181	-5.332	1.209
2.434	-6.448	1.218
2.442	-6.446	1.222
2.449	-6.449	1.228
2.451	-6.457	1.233
2.448	-6.465	1.236
2.442	-6.472	1.234
2.434	-6.474	1.230
2.428	-6.470	1.224
2.425	-6.463	1.219
2.428	-6.454	1.217
2.898	-6.757	0.540
2.906	-6.755	0.545
2.913	-6.758	0.551
2.915	-6.766	0.556
2.913	-6.774	0.557
2.907	-6.781	0.556
2.899	-6.783	0.551
2.893	-6.780	0.545
2.890	-6.773	0.541
2.892	-6.764	0.539
3.402	-6.982	-0.162
3.410	-6.980	-0.157
3.417	-6.983	-0.152
3.420	-6.991	-0.148
3.418	-7.000	-0.146
3.413	-7.007	-0.148
3.405	-7.009	-0.153
3.398	-7.006	-0.158
3.395	-6.998	-0.162
3.396	-6.989	-0.164
3.476	-7.010	-0.288
3.484	-7.007	-0.284
3.491	-7.010	-0.279
3.495	-7.018	-0.275
3.493	-7.027	-0.274
3.488	-7.034	-0.275
3.480	-7.037	-0.280
3.473	-7.034	-0.284
3.469	-7.026	-0.288
3.470	-7.017	-0.290
2.552	-6.566	1.261
2.553	-6.569	1.270
2.549	-6.568	1.279
2.541	-6.565	1.283
2.533	-6.560	1.282
[...]
         <CellData>
           <DataArray type="Float32" Name="combinedRootClassID" NumberOfComponents="1" format="ascii">
 -1.300e+01 -1.300e+01 -1.300e+01 -1.300e+01 -1.300e+01 -1.300e+01 -1.300e+01 -1.300e+01 -1.300e+01 -1.300e+01 -1.300e+01 -1.300e+01 -1.300e+01 -1.300e+01 -1.300e+01 -1.300e+01 -1.300e+01 -1.300e+01 -1.300e+01 -1.300e+01 -1.300e+01 -1.300e+01 -1.300e+01 -1.300e+01 -1.300e+01 -1.300e+01 -1.300e+01 -1.300e+01 -1.300e+01 -1.300e+01 -1.300e+01 -1.300e+01 -1.300e+01 -1.300e+01 -1.300e+01 -1.300e+01 -1.300e+01 -1.300e+01 -1.300e+01 -1.300e+01 -1.300e+01 -1.300e+01 -1.300e+01 -1.300e+01 -1.300e+01 -1.300e+01 -1.300e+01 -1.300e+01 -1.300e+01 -1.300e+01 -1.300e+01 -1.300e+01 -1.300e+01 -1.300e+01 -1.300e+01 -1.300e+01 -1.300e+01 -1.300e+01 -1.300e+01 -1.300e+01 -1.300e+01 -1.300e+01 -1.300e+01 -1.300e+01 -1.300e+01 -1.300e+01 -1.300e+01 -1.300e+01 -1.300e+01 -1.300e+01 -1.300e+01 -1.300e+01 -1.300e+01 -1.300e+01 -1.300e+01 -1.300e+01 -1.300e+01 -1.300e+01 -1.300e+01 -1.300e+01 -1.300e+01 -1.300e+01 -1.300e+01 -1.300e+01 -1.300e+01 -1.300e+01 -1.300e+01 -1.300e+01 -1.300e+01 -1.300e+01 -1.300e+01 -1.300e+01 -1.300e+01 -1.300e+01 -1.300e+01 -1.300e+01 -1.300e+01 -1.300e+01 -1.300e+01 -1.300e+01 -1.300e+01 -1.300e+01 -1.300e+01 -1.300e+01 -1.300e+01 -1.300e+01 -1.300e+01 -1.300e+01 -1.300e+01 -1.300e+01 -1.300e+01 -1.300e+01 -1.300e+01 -1.300e+01 -1.300e+01 -1.300e+01 -1.300e+01 -1.300e+01 -1.300e+01 -1.300e+01 -1.300e+01 -1.300e+01 -1.300e+01 -1.300e+01 -1.300e+01 -1.300e+01 -1.300e+01 -1.300e+01 -1.300e+01 -1.300e+01 -1.300e+01 -1.300e+01 -1.300e+01 -1.300e+01 -1.300e+01 -1.300e+01 -1.300e+01 -1.300e+01 -1.300e+01 -1.300e+01 -1.300e+01 -1.300e+01 -1.300e+01 -1.300e+01 -1.300e+01 -1.300e+01 -1.300e+01 -1.300e+01 -1.300e+01 -1.300e+01 -1.300e+01 -1.300e+01 -1.300e+01 -1.300e+01 -1.300e+01 -1.300e+01 -5.000e+00 -5.000e+00 -5.000e+00 -5.000e+00 -5.000e+00 -5.000e+00 -5.000e+00 -5.000e+00 -5.000e+00 -5.000e+00 -5.000e+00 -5.000e+00 -5.000e+00 -5.000e+00 -5.000e+00 -5.000e+00 -5.000e+00 -5.000e+00 -5.000e+00 -5.000e+00 -5.000e+00 -5.000e+00 -5.000e+00 -5.000e+00 -5.000e+00 -5.000e+00 -5.000e+00 -5.000e+00 -1.300e+01 -1.300e+01 -1.300e+01 -1.300e+01 -1.300e+01 -1.300e+01 -1.300e+01 -1.300e+01 -1.300e+01 -1.300e+01 -1.300e+01 -1.300e+01 -1.300e+01 -1.300e+01 -1.300e+01 -1.300e+01 -1.300e+01 -1.300e+01 -1.300e+01 -1.300e+01 -1.300e+01 -1.300e+01 -1.300e+01 -1.300e+01 -1.300e+01 -1.300e+01 -1.300e+01 -1.300e+01 -1.300e+01 -1.300e+01 -1.300e+01 -1.300e+01 -1.300e+01 -1.300e+01 -1.300e+01 -1.300e+01 -1.300e+01 -1.300e+01 -1.300e+01 -1.300e+01 -1.300e+01 -1.300e+01 -1.300e+01 -1.300e+01 -1.300e+01 -1.300e+01 -1.300e+01 -1.300e+01 -1.300e+01 -1.300e+01 -1.300e+01 -1.300e+01 -1.300e+01 -1.300e+01 -1.300e+01 -1.300e+01 -1.300e+01 -1.300e+01 -1.300e+01 -1.300e+01 -1.300e+01 -1.300e+01 -1.300e+01 -1.300e+01 -1.300e+01 -1.300e+01 -1.300e+01 -1.300e+01 -1.300e+01 -1.300e+01 -1.300e+01 -1.300e+01 -1.300e+01 -1.300e+01 -1.300e+01 -1.300e+01 -1.300e+01 -1.300e+01 -1.300e+01 -1.300e+01 -1.300e+01 -1.300e+01 -1.300e+01 -1.300e+01 -1.300e+01 -1.300e+01 -1.300e+01 -1.300e+01 -1.300e+01 -1.300e+01 -1.300e+01 -1.300e+01 -1.300e+01 -1.300e+01 -1.300e+01 -1.300e+01 -1.300e+01 -1.300e+01 -1.300e+01 -1.300e+01 -1.300e+01 -1.300e+01 -1.300e+01 -1.300e+01 -1.300e+01 -1.300e+01 -1.300e+01 -1.300e+01 -1.300e+01 -1.300e+01 -1.300e+01 -1.300e+01 -1.300e+01 -1.300e+01 -1.300e+01 -1.300e+01 -1.300e+01 -1.300e+01 -1.300e+01 -1.300e+01 -1.300e+01 -1.300e+01 -1.300e+01 -1.300e+01 -1.300e+01 -1.300e+01 -1.300e+01 -1.300e+01 -1.300e+01 -1.300e+01 -1.300e+01 -1.300e+01 -1.300e+01 -1.300e+01 -1.300e+01 -1.300e+01 -1.300e+01 -1.300e+01 -1.300e+01 -1.300e+01 -1.300e+01 -1.300e+01 -1.300e+01 -1.300e+01 -1.300e+01 -1.300e+01 -1.300e+01 -1.300e+01 -1.300e+01 -1.300e+01 -1.300e+01 -1.300e+01 -1.300e+01 -1.300e+01 -1.300e+01 -1.300e+01 -1.300e+01 -1.300e+01 -1.300e+01 -5.000e+00 -5.000e+00 -5.000e+00 -5.000e+00 -5.000e+00 -5.000e+00 -5.000e+00 -5.000e+00 -5.000e+00 -5.000e+00 -5.000e+00 -5.000e+00 -5.000e+00 -5.000e+00 -5.000e+00 -5.000e+00 -5.000e+00 -5.000e+00 -5.000e+00 -5.000e+00 -5.000e+00 -5.000e+00 -5.000e+00 -5.000e+00 -5.000e+00 -5.000e+00 -5.000e+00 -5.000e+00 -1.300e+01 -1.300e+01 -1.300e+01 -1.300e+01 -1.300e+01 -1.300e+01 -1.300e+01 -1.300e+01 -1.300e+01 -1.300e+01 -1.300e+01 -1.300e+01 -1.300e+01 -1.300e+01 -1.300e+01 -1.300e+01 -1.300e+01 -1.300e+01 -1.300e+01 -1.300e+01 -1.300e+01 -1.300e+01 -1.300e+01 -1.300e+01 -1.300e+01 -1.300e+01 -1.300e+01 -1.300e+01 -1.300e+01 -1.300e+01 -1.300e+01 -1.300e+01 -1.300e+01 -1.300e+01 -1.300e+01 -1.300e+01 -1.300e+01 -1.300e+01 -1.300e+01 -1.300e+01 -1.300e+01 -1.300e+01 -1.300e+01 -1.300e+01 -1.300e+01 -1.300e+01 -1.300e+01 -1.300e+01 -1.300e+01 -1.300e+01 -1.300e+01 -1.300e+01 -1.300e+01 -1.300e+01 -1.300e+01 -1.300e+01 -1.300e+01 -1.300e+01 -1.300e+01 -1.300e+01 -1.300e+01 -1.300e+01 -1.300e+01 -1.300e+01 -1.300e+01 -1.300e+01 -1.300e+01 -1.300e+01 -1.300e+01 -1.300e+01 -1.300e+01 -1.300e+01 -1.300e+01 -1.300e+01 -1.300e+01 -1.300e+01 -1.300e+01 -1.300e+01 -1.300e+01 -1.300e+01 -1.300e+01 -1.300e+01 -1.300e+01 -1.300e+01 -1.300e+01 -1.300e+01 -1.300e+01 -1.300e+01 -1.300e+01 -1.300e+01 -1.300e+01 -1.300e+01 -1.300e+01 -1.300e+01 -1.300e+01 -1.300e+01 -1.300e+01 -1.300e+01 -1.300e+01 -1.300e+01 -1.300e+01 -1.300e+01 -1.300e+01 -1.300e+01 -1.300e+01 -1.300e+01 -1.300e+01 -1.300e+01 -1.300e+01 -1.300e+01 -1.300e+01 -1.300e+01 -1.300e+01 -1.300e+01 -1.300e+01 -1.300e+01 -1.300e+01 -1.300e+01 -1.300e+01 -1.300e+01 -1.300e+01 -1.300e+01 -1.300e+01 -1.300e+01 -1.300e+01 -1.300e+01 -1.300e+01 -1.300e+01 -1.300e+01 -1.300e+01 -1.300e+01 -1.300e+01 -1.300e+01 -1.300e+01 -1.300e+01 -1.300e+01 -1.300e+01 -1.300e+01 -1.300e+01 -1.300e+01 -1.300e+01 -1.300e+01 -1.300e+01 -1.300e+01 -1.300e+01 -1.300e+01 -1.300e+01 -1.300e+01 -1.300e+01 -1.300e+01 -1.300e+01 -1.300e+01 -1.300e+01 -5.000e+00 -5.000e+00 -5.000e+00 -5.000e+00 -5.000e+00 -5.000e+00 -5.000e+00 -5.000e+00 -5.000e+00 -5.000e+00 -5.000e+00 -5.000e+00 -5.000e+00 -5.000e+00 -5.000e+00 -5.000e+00 -5.000e+00 -5.000e+00 -5.000e+00 -5.000e+00 -5.000e+00 -5.000e+00 -5.000e+00 -5.000e+00 -5.000e+00 -5.000e+00 -5.000e+00 -5.000e+00 -1.300e+01 -1.300e+01 -1.300e+01 -1.300e+01 -1.300e+01 -1.300e+01 -1.300e+01 -1.300e+01 -1.300e+01 -1.300e+01 -1.300e+01 -1.300e+01 -1.300e+01 -1.300e+01 -1.300e+01 -1.300e+01 -1.300e+01 -1.300e+01 -1.300e+01 -1.300e+01 -1.300e+01 -1.300e+01 -1.300e+01 -1.300e+01 -1.300e+01 -1.300e+01 -1.300e+01 -1.300e+01 -1.300e+01 -1.300e+01 -1.300e+01 -1.300e+01 -1.300e+01 -1.300e+01 -1.300e+01 -1.300e+01 -1.300e+01 -1.300e+01 -1.300e+01 -1.300e+01 -1.300e+01 -1.300e+01 -1.300e+01 -1.300e+01 -1.300e+01 -1.300e+01 -1.300e+01 -1.300e+01 -1.300e+01 -1.300e+01 -1.300e+01 -1.300e+01 -1.300e+01 -1.300e+01 -1.300e+01 -1.300e+01 -1.300e+01 -1.300e+01 -1.300e+01 -1.300e+01 -1.300e+01 -1.300e+01 -1.300e+01 -1.300e+01 -1.300e+01 -1.300e+01 -1.300e+01 -1.300e+01 -1.300e+01 -1.300e+01 -1.300e+01 -1.300e+01 -1.300e+01 -1.300e+01 -1.300e+01 -1.300e+01 -1.300e+01 -1.300e+01 -1.300e+01 -1.300e+01 -1.300e+01 -1.300e+01 -1.300e+01 -1.300e+01 -1.300e+01 -1.300e+01 -1.300e+01 -1.300e+01 -1.300e+01 -1.300e+01 -1.300e+01 -1.300e+01 -1.300e+01 -1.300e+01 -1.300e+01 -1.300e+01 -1.300e+01 -1.300e+01 -1.300e+01 -1.300e+01 -1.300e+01 -1.300e+01 -1.300e+01 -1.300e+01 -1.300e+01 -1.300e+01 -1.300e+01 -1.300e+01 -1.300e+01 -1.300e+01 -1.300e+01 -1.300e+01 -1.300e+01 -1.300e+01 -1.300e+01 -1.300e+01 -1.300e+01 -1.300e+01 -1.300e+01 -1.300e+01 -1.300e+01 -1.300e+01 -1.300e+01 -1.300e+01 -1.300e+01 -1.300e+01 -1.300e+01 -1.300e+01 -1.300e+01 -1.300e+01 -1.300e+01 -1.300e+01 -1.300e+01 -1.300e+01 -1.300e+01 -1.300e+01 -1.300e+01 -1.300e+01 -1.300e+01 -1.300e+01 -1.300e+01 -1.300e+01 -1.300e+01 -1.300e+01 -1.300e+01 -1.300e+01 -1.300e+01 -1.300e+01 -1.300e+01 -1.300e+01 -1.300e+01 -1.300e+01 -1.300e+01 -1.300e+01 -5.000e+00 -5.000e+00 -5.000e+00 -5.000e+00 -5.000e+00 -5.000e+00 -5.000e+00 -5.000e+00 -5.000e+00 -5.000e+00 -5.000e+00 -5.000e+00 -5.000e+00 -5.000e+00 -5.000e+00 -5.000e+00 -5.000e+00 -5.000e+00 -5.000e+00 -5.000e+00 -5.000e+00 -5.000e+00 -5.000e+00 -5.000e+00 -5.000e+00 -5.000e+00 -5.000e+00 -5.000e+00 -1.900e+01 -1.900e+01 -1.900e+01 -1.900e+01 -1.900e+01 -1.900e+01 -1.900e+01 -1.900e+01 -1.900e+01 -1.900e+01 -1.900e+01 -1.900e+01 -1.900e+01 -1.900e+01 -1.900e+01 -1.900e+01 -1.900e+01 -1.900e+01 -1.900e+01 -1.900e+01 -1.100e+01 -1.100e+01 -1.100e+01 -1.100e+01 -1.100e+01 -1.100e+01 -1.100e+01 -1.100e+01 -1.100e+01 -1.100e+01 -1.100e+01 -1.100e+01 -1.100e+01 -1.100e+01 -1.100e+01 -1.100e+01 -1.100e+01 -1.100e+01 -1.900e+01 -1.900e+01 -1.900e+01 -1.900e+01 -1.900e+01 -1.900e+01 -1.900e+01 -1.900e+01 -1.900e+01 -1.900e+01 -1.900e+01 -1.900e+01 -1.900e+01 -1.900e+01 -1.900e+01 -1.900e+01 -1.900e+01 -1.900e+01 -1.900e+01 -1.900e+01 -1.100e+01 -1.100e+01 -1.100e+01 -1.100e+01 -1.100e+01 -1.100e+01 -1.100e+01 -1.100e+01 -1.100e+01 -1.100e+01 -1.100e+01 -1.100e+01 -1.100e+01 -1.100e+01 -1.100e+01 -1.100e+01 -1.100e+01 -1.100e+01 -1.900e+01 -1.900e+01 -1.900e+01 -1.900e+01 -1.900e+01 -1.900e+01 -1.900e+01 -1.900e+01 -1.900e+01 -1.900e+01 -1.900e+01 -1.900e+01 -1.900e+01 -1.900e+01 -1.900e+01 -1.900e+01 -1.900e+01 -1.900e+01 -1.900e+01 -1.900e+01 -1.100e+01 -1.100e+01 -1.100e+01 -1.100e+01 -1.100e+01 -1.100e+01 -1.100e+01 -1.100e+01 -1.100e+01 -1.100e+01 -1.100e+01 -1.100e+01 -1.100e+01 -1.100e+01 -1.100e+01 -1.100e+01 -1.100e+01 -1.100e+01 -1.900e+01 -1.900e+01 -1.900e+01 -1.900e+01 -1.900e+01 -1.900e+01 -1.900e+01 -1.900e+01 -1.900e+01 -1.900e+01 -1.900e+01 -1.900e+01 -1.900e+01 -1.900e+01 -1.900e+01 -1.900e+01 -1.900e+01 -1.900e+01 -1.900e+01 -1.900e+01 -1.100e+01 -1.100e+01 -1.100e+01 -1.100e+01 -1.100e+01 -1.100e+01 -1.100e+01 -1.100e+01 -1.100e+01 -1.100e+01 -1.100e+01 -1.100e+01 -1.100e+01 -1.100e+01 -1.100e+01 -1.100e+01 -1.100e+01 -1.100e+01 -2.000e+01 -2.000e+01 -2.000e+01 -2.000e+01 -2.000e+01 -2.000e+01 -2.000e+01 -2.000e+01 -2.000e+01 -2.000e+01 -2.000e+01 -2.000e+01 -2.000e+01 -2.000e+01 -2.000e+01 -2.000e+01 -2.000e+01 -2.000e+00 -2.000e+00 -2.000e+00 -2.000e+00 -2.000e+00 -2.000e+00 -2.000e+00 -2.000e+00 -2.000e+00 -2.000e+00 -2.000e+00 -2.000e+00 -1.500e+01 -1.500e+01 -7.000e+00 -7.000e+00 -7.000e+00 -7.000e+00 -7.000e+00 -7.000e+00 -7.000e+00 -1.500e+01 -1.500e+01 -1.500e+01 -7.000e+00 -7.000e+00 -7.000e+00 -7.000e+00 -7.000e+00 -7.000e+00 -7.000e+00 -1.500e+01 -1.500e+01 -7.000e+00 -7.000e+00 -7.000e+00 -7.000e+00 -7.000e+00 -7.000e+00 -7.000e+00 -7.000e+00 -7.000e+00 -7.000e+00 -7.000e+00 -7.000e+00 -7.000e+00 -7.000e+00 -7.000e+00 -7.000e+00 -7.000e+00 -7.000e+00 -7.000e+00 -7.000e+00 -7.000e+00 -7.000e+00 -7.000e+00 -7.000e+00 -7.000e+00 -7.000e+00 -7.000e+00 -7.000e+00 -7.000e+00 -7.000e+00 -7.000e+00 -7.000e+00 -7.000e+00 -7.000e+00 -7.000e+00 -7.000e+00 -1.500e+01 -1.500e+01 -7.000e+00 -7.000e+00 -7.000e+00 -7.000e+00 -7.000e+00 -7.000e+00 -7.000e+00 -7.000e+00 -7.000e+00 -7.000e+00 -7.000e+00 -7.000e+00 -7.000e+00 -7.000e+00 -7.000e+00 -7.000e+00 -7.000e+00 -7.000e+00 -7.000e+00 -7.000e+00 -7.000e+00 -7.000e+00 -7.000e+00 -7.000e+00 -7.000e+00 -7.000e+00 -7.000e+00 -7.000e+00 -1.500e+01 -7.000e+00 -7.000e+00 -7.000e+00 -7.000e+00 -7.000e+00 -7.000e+00 -7.000e+00 -7.000e+00 -7.000e+00 -7.000e+00 -7.000e+00 -7.000e+00 -7.000e+00 -7.000e+00 -7.000e+00 -7.000e+00 -7.000e+00 -7.000e+00 -7.000e+00 -7.000e+00 -7.000e+00 -7.000e+00 -7.000e+00 -7.000e+00 -7.000e+00 -7.000e+00 -7.000e+00 -7.000e+00 -7.000e+00 -7.000e+00 -7.000e+00 -7.000e+00 -7.000e+00 -7.000e+00 -7.000e+00 -7.000e+00 -7.000e+00 -7.000e+00 -7.000e+00 -7.000e+00 -7.000e+00 -7.000e+00 -7.000e+00 -1.500e+01 -1.500e+01 -7.000e+00 -7.000e+00 -7.000e+00 -7.000e+00 -7.000e+00 -7.000e+00 -7.000e+00 -7.000e+00 -7.000e+00 -7.000e+00 -7.000e+00 -7.000e+00 -7.000e+00 -7.000e+00 -7.000e+00 -7.000e+00 -7.000e+00 -1.500e+01 -7.000e+00 -7.000e+00 -7.000e+00 -7.000e+00 -7.000e+00 -7.000e+00 -7.000e+00 -7.000e+00 -7.000e+00 -7.000e+00 -7.000e+00 -7.000e+00 -7.000e+00 -7.000e+00 -7.000e+00 -1.500e+01 -7.000e+00 -7.000e+00 -7.000e+00 -7.000e+00 -7.000e+00 -7.000e+00 -1.500e+01 -1.500e+01 -7.000e+00 -7.000e+00 -7.000e+00 -7.000e+00 -7.000e+00 -7.000e+00 -7.000e+00 -7.000e+00 -7.000e+00 -7.000e+00 -7.000e+00 -7.000e+00 -1.500e+01 -1.500e+01 -7.000e+00 -7.000e+00 -7.000e+00 -7.000e+00 -7.000e+00 -7.000e+00 -7.000e+00 -7.000e+00 -7.000e+00 -7.000e+00 -7.000e+00 -7.000e+00 -7.000e+00 -7.000e+00 -7.000e+00 -7.000e+00 -1.500e+01 -7.000e+00 -7.000e+00 -7.000e+00 -7.000e+00 -7.000e+00 -7.000e+00 -1.500e+01 -7.000e+00 -7.000e+00 -7.000e+00 -7.000e+00 -7.000e+00 -7.000e+00 -7.000e+00 -7.000e+00 -7.000e+00 -7.000e+00 -7.000e+00 -1.500e+01 -7.000e+00 -7.000e+00 -7.000e+00 -7.000e+00 -7.000e+00 -7.000e+00 -7.000e+00 -7.000e+00 -7.000e+00 -7.000e+00 -7.000e+00 -7.000e+00 -7.000e+00 -7.000e+00 -7.000e+00 -7.000e+00 -7.000e+00 -7.000e+00 -7.000e+00 -7.000e+00 -7.000e+00 -7.000e+00 -7.000e+00 -7.000e+00 -7.000e+00 -7.000e+00 -7.000e+00 -7.000e+00 -7.000e+00 -7.000e+00 -7.000e+00 -7.000e+00 -7.000e+00 -7.000e+00 -1.500e+01 -1.500e+01 -1.500e+01 -7.000e+00 -7.000e+00 -7.000e+00 -7.000e+00 -7.000e+00 -7.000e+00 -7.000e+00 -7.000e+00 -7.000e+00 -7.000e+00 -7.000e+00 -7.000e+00 -1.500e+01 -7.000e+00 -7.000e+00 -7.000e+00 -7.000e+00 -7.000e+00 -7.000e+00 -7.000e+00 -7.000e+00 -7.000e+00 -7.000e+00 -7.000e+00 -7.000e+00 -7.000e+00 -7.000e+00 -7.000e+00 -7.000e+00 -7.000e+00 -7.000e+00 -7.000e+00 -7.000e+00 -7.000e+00 -7.000e+00 -7.000e+00 -7.000e+00 -7.000e+00 -7.000e+00 -7.000e+00 -7.000e+00 -7.000e+00 -7.000e+00 -7.000e+00 -7.000e+00 -7.000e+00 -7.000e+00 -7.000e+00 -7.000e+00 -7.000e+00 -7.000e+00 -7.000e+00 -7.000e+00 -7.000e+00 -7.000e+00 -7.000e+00 -7.000e+00 -7.000e+00 -7.000e+00 -7.000e+00 -7.000e+00 -7.000e+00 -7.000e+00 -1.500e+01 -7.000e+00 -7.000e+00 -7.000e+00 -7.000e+00 -7.000e+00 -7.000e+00 -7.000e+00 -7.000e+00 -7.000e+00 -7.000e+00 -7.000e+00 -7.000e+00 -7.000e+00 -7.000e+00 -7.000e+00 -7.000e+00 -7.000e+00 -7.000e+00 -7.000e+00 -7.000e+00 -7.000e+00 -7.000e+00 -7.000e+00 -7.000e+00 -7.000e+00 -7.000e+00 -7.000e+00 -7.000e+00 -7.000e+00 -7.000e+00 -7.000e+00 -7.000e+00 -7.000e+00 -7.000e+00 -7.000e+00 -7.000e+00 -7.000e+00 -7.000e+00 -7.000e+00 -7.000e+00 -7.000e+00 -7.000e+00 -7.000e+00 -7.000e+00 -7.000e+00 -7.000e+00 -7.000e+00 -7.000e+00 -7.000e+00 -7.000e+00 -7.000e+00 -7.000e+00 -7.000e+00 -7.000e+00 -7.000e+00 -7.000e+00 -7.000e+00 -7.000e+00 -7.000e+00 -7.000e+00 -7.000e+00 -7.000e+00 -7.000e+00 -7.000e+00 -7.000e+00 -7.000e+00 -7.000e+00 -7.000e+00 -7.000e+00 -7.000e+00 -7.000e+00 -7.000e+00 -7.000e+00 -7.000e+00 -7.000e+00 -7.000e+00 -7.000e+00 -7.000e+00 -7.000e+00 -7.000e+00 -7.000e+00 -7.000e+00 -7.000e+00 -7.000e+00 -7.000e+00 -7.000e+00 -7.000e+00 -7.000e+00 -7.000e+00 -7.000e+00 -7.000e+00 -7.000e+00 -7.000e+00 -7.000e+00 -7.000e+00 -7.000e+00 -7.000e+00 -7.000e+00 -7.000e+00 -7.000e+00 -7.000e+00 -7.000e+00 -7.000e+00 -7.000e+00 -7.000e+00 -7.000e+00 -7.000e+00 -7.000e+00 -1.500e+01 -1.500e+01 -7.000e+00 -7.000e+00 -7.000e+00 -7.000e+00 -7.000e+00 -7.000e+00 -7.000e+00 -7.000e+00 -7.000e+00 -7.000e+00 -7.000e+00 -7.000e+00 -7.000e+00 -7.000e+00 -7.000e+00 -7.000e+00 -7.000e+00 -7.000e+00 -7.000e+00 -7.000e+00 -7.000e+00 -7.000e+00 -7.000e+00 -7.000e+00 -7.000e+00 -7.000e+00 -7.000e+00 -7.000e+00 -7.000e+00 -7.000e+00 -7.000e+00 -7.000e+00 -7.000e+00 -7.000e+00 -7.000e+00 -7.000e+00 -7.000e+00 -7.000e+00 -7.000e+00 -7.000e+00 -7.000e+00 -7.000e+00 -7.000e+00 -7.000e+00 -7.000e+00 -7.000e+00 -7.000e+00 -7.000e+00 -1.500e+01 -1.500e+01 -7.000e+00 -7.000e+00 -7.000e+00 -7.000e+00 -7.000e+00 -7.000e+00 -7.000e+00 -7.000e+00 -7.000e+00 -7.000e+00 -7.000e+00 -7.000e+00 -7.000e+00 -7.000e+00 -7.000e+00 -7.000e+00 -7.000e+00 -7.000e+00 -7.000e+00 -7.000e+00 -7.000e+00 -7.000e+00 -7.000e+00 -7.000e+00 -7.000e+00 -7.000e+00 -7.000e+00 -7.000e+00 -7.000e+00 -7.000e+00 -7.000e+00 -7.000e+00 -7.000e+00 -7.000e+00 -7.000e+00 -7.000e+00 -7.000e+00 -7.000e+00 -7.000e+00 -7.000e+00 -7.000e+00 -7.000e+00 -7.000e+00 -7.000e+00 -7.000e+00 -7.000e+00 -7.000e+00 -7.000e+00 -7.000e+00 -7.000e+00 -7.000e+00 -7.000e+00 -7.000e+00 -7.000e+00 -7.000e+00 -7.000e+00 -7.000e+00 -7.000e+00 -7.000e+00 -7.000e+00 -7.000e+00 -7.000e+00 -7.000e+00 -7.000e+00 -7.000e+00 -7.000e+00 -7.000e+00 -7.000e+00 -7.000e+00 -7.000e+00 -7.000e+00 -7.000e+00 -7.000e+00 -7.000e+00 -7.000e+00 -7.000e+00 -7.000e+00 -7.000e+00 -7.000e+00 -7.000e+00 -7.000e+00 -7.000e+00 -7.000e+00 -7.000e+00 -7.000e+00 -7.000e+00 -1.500e+01 -1.500e+01 -7.000e+00 -7.000e+00 -7.000e+00 -7.000e+00 -7.000e+00 -7.000e+00 -7.000e+00 -7.000e+00 -7.000e+00 -7.000e+00 -7.000e+00 -7.000e+00 -7.000e+00 -7.000e+00 -7.000e+00 -7.000e+00 -7.000e+00 -7.000e+00 -7.000e+00 -7.000e+00 -7.000e+00 -7.000e+00 -7.000e+00 -7.000e+00 -7.000e+00 -7.000e+00 -7.000e+00 -7.000e+00 -7.000e+00 -7.000e+00 -7.000e+00 -7.000e+00 -7.000e+00 -7.000e+00 -7.000e+00 -7.000e+00 -7.000e+00 -1.700e+01 -1.700e+01 -1.700e+01 -1.700e+01 -9.000e+00 -9.000e+00 -9.000e+00 -9.000e+00 -9.000e+00 -9.000e+00 -9.000e+00 -9.000e+00 -9.000e+00 -9.000e+00 -9.000e+00 -9.000e+00 -9.000e+00 -9.000e+00 -9.000e+00 -9.000e+00 -9.000e+00 -9.000e+00 -9.000e+00 -9.000e+00 -9.000e+00 -4.000e+00 -4.000e+00 -4.000e+00 -4.000e+00 -4.000e+00 -4.000e+00 -4.000e+00 -4.000e+00 -4.000e+00 -4.000e+00 -4.000e+00 -4.000e+00 -4.000e+00 -4.000e+00 -4.000e+00 -4.000e+00 -4.000e+00 -4.000e+00 -4.000e+00 -4.000e+00 -4.000e+00 -4.000e+00 -4.000e+00 -4.000e+00 -4.000e+00 -4.000e+00 -4.000e+00 -4.000e+00 -4.000e+00 -4.000e+00 -4.000e+00 -4.000e+00 -4.000e+00 -4.000e+00 -4.000e+00 -4.000e+00 -4.000e+00 -4.000e+00 -4.000e+00 -4.000e+00 -4.000e+00 -4.000e+00 -4.000e+00 -4.000e+00 -4.000e+00 -4.000e+00 -4.000e+00 -4.000e+00 -4.000e+00 -4.000e+00 -4.000e+00 -4.000e+00 -4.000e+00 -4.000e+00
           </DataArray>
           <DataArray type="Float32" Name="nitrate/minimalNutrientConcentration" NumberOfComponents="1" format="ascii">