<?xml version="1.0"?>
<VTKFile type="UnstructuredGrid" version="0.1" byte_order="LittleEndian">
   <UnstructuredGrid>
      <Piece NumberOfPoints="90" NumberOfCells="7">
         <Points>
            <DataArray type="Float32" Name="Position" NumberOfComponents="3" format="ascii">
-0.142	-5.000	0.142
-0.031	-5.000	0.198
0.091	-5.000	0.178
0.178	-5.000	0.091
0.198	-5.000	-0.031
0.142	-5.000	-0.142
0.031	-5.000	-0.198
-0.091	-5.000	-0.178
-0.178	-5.000	-0.091
-0.198	-5.000	0.031
-0.141	-4.040	0.142
-0.031	-4.040	0.198
0.091	-4.040	0.178
0.179	-4.040	0.091
0.198	-4.040	-0.031
0.142	-4.040	-0.142
0.032	-4.040	-0.198
-0.090	-4.040	-0.178
-0.178	-4.040	-0.091
-0.197	-4.040	0.031
-0.143	-3.560	0.141
-0.033	-3.560	0.197
0.089	-3.559	0.177
0.176	-3.559	0.090
0.196	-3.560	-0.032
0.140	-3.560	-0.142
0.029	-3.560	-0.198
-0.093	-3.561	-0.179
-0.180	-3.561	-0.092
-0.199	-3.560	0.030
-0.144	-3.000	0.139
-0.034	-3.000	0.195
0.089	-3.000	0.176
0.176	-3.000	0.089
0.196	-3.000	-0.033
0.140	-3.000	-0.144
0.029	-3.000	-0.200
-0.093	-3.000	-0.181
-0.180	-3.000	-0.093
-0.200	-3.000	0.029
0.034	-5.006	-0.028
0.045	-5.001	-0.003
0.038	-4.996	0.024
0.017	-4.993	0.041
-0.011	-4.992	0.043
-0.034	-4.994	0.028
-0.045	-4.999	0.003
-0.038	-5.004	-0.024
-0.017	-5.007	-0.041
0.011	-5.008	-0.043
0.017	-5.931	0.146
0.028	-5.926	0.172
0.021	-5.922	0.198
0.000	-5.918	0.216
-0.027	-5.918	0.219
-0.051	-5.921	0.204
-0.062	-5.925	0.179
-0.056	-5.930	0.152
-0.035	-5.933	0.134
-0.007	-5.933	0.132
0.027	-6.395	0.219
0.038	-6.390	0.244
0.032	-6.385	0.271
0.011	-6.383	0.289
-0.017	-6.384	0.292
-0.041	-6.387	0.278
-0.052	-6.392	0.253
-0.046	-6.397	0.226
-0.025	-6.399	0.208
0.003	-6.399	0.205
0.055	-6.855	0.318
0.066	-6.850	0.343
0.060	-6.845	0.369
0.039	-6.843	0.388
0.011	-6.843	0.390
-0.013	-6.847	0.377
-0.024	-6.852	0.352
-0.018	-6.857	0.325
0.003	-6.860	0.307
0.031	-6.859	0.304
0.069	-7.320	0.396
0.080	-7.315	0.421
0.074	-7.311	0.448
0.053	-7.308	0.466
0.026	-7.309	0.469
0.002	-7.312	0.455
-0.009	-7.316	0.430
-0.003	-7.321	0.404
0.017	-7.323	0.385
0.045	-7.323	0.382
		    </DataArray>
         </Points>
         <Cells>
            <DataArray type="Int32" Name="connectivity" NumberOfComponents="1" format="ascii">
 0 10 1 11 2 12 3 13 4 14 5 15 6 16 7 17 8 18 9 19 0 10
 10 20 11 21 12 22 13 23 14 24 15 25 16 26 17 27 18 28 19 29 10 20
 20 30 21 31 22 32 23 33 24 34 25 35 26 36 27 37 28 38 29 39 20 30
 40 50 41 51 42 52 43 53 44 54 45 55 46 56 47 57 48 58 49 59 40 50
 50 60 51 61 52 62 53 63 54 64 55 65 56 66 57 67 58 68 59 69 50 60
 60 70 61 71 62 72 63 73 64 74 65 75 66 76 67 77 68 78 69 79 60 70
 70 80 71 81 72 82 73 83 74 84 75 85 76 86 77 87 78 88 79 89 70 80

            </DataArray>
            <DataArray type="Int32" Name="offsets" NumberOfComponents="1" format="ascii">
 22 44 66 88 110 132 154
            </DataArray>
            <DataArray type="UInt8"  Name="types" NumberOfComponents="1" format="ascii">
6 6 6 6 6 6 6
            </DataArray>
         </Cells>
         <CellData>
           <DataArray type="Float32" Name="combinedRootClassID" NumberOfComponents="1" format="ascii">
 -2.000e+00 -2.000e+00 -2.000e+00 -4.000e+00 -4.000e+00 -4.000e+00 -4.000e+00
           </DataArray>
           <DataArray type="Float32" Name="nitrate/minimalNutrientConcentration" NumberOfComponents="1" format="ascii">
 6.000e+02 6.000e+02 6.000e+02 6.000e+02 6.000e+02 6.000e+02 6.000e+02
           </DataArray>
           <DataArray type="Float32" Name="nitrate/optimalNutrientConcentration" NumberOfComponents="1" format="ascii">
 1.200e+03 1.200e+03 1.200e+03 1.200e+03 1.200e+03 1.200e+03 1.200e+03
           </DataArray>
           <DataArray type="Float32" Name="nitrate/radiusDepletionZone" NumberOfComponents="1" format="ascii">
 1.103e+00 4.359e-01 7.339e-01 8.193e-01 1.631e+00 7.202e-01 3.788e-01
           </DataArray>
           <DataArray type="Float32" Name="nitrate/rootSegmentMinimalNutrientContent" NumberOfComponents="1" format="ascii">
 6.819e+00 3.403e+00 3.969e+00 3.402e-01 1.695e-01 1.693e-01 1.692e-01
           </DataArray>
           <DataArray type="Float32" Name="nitrate/rootSegmentNutrientUptake" NumberOfComponents="1" format="ascii">
 6.550e-01 2.371e-01 8.375e-02 3.793e-01 1.157e-01 6.929e-02 1.985e-02
           </DataArray>
           <DataArray type="Float32" Name="nitrate/rootSegmentOptimalNutrientContent" NumberOfComponents="1" format="ascii">
 1.364e+01 6.806e+00 7.939e+00 6.803e-01 3.390e-01 3.386e-01 3.384e-01
           </DataArray>
           <DataArray type="Float32" Name="parentRootClassID" NumberOfComponents="1" format="ascii">
 -3.000e+00 -3.000e+00 -3.000e+00 -3.000e+00 -3.000e+00 -3.000e+00 -3.000e+00
           </DataArray>
           <DataArray type="Float32" Name="plantID" NumberOfComponents="1" format="ascii">
 2.000e+00 2.000e+00 2.000e+00 2.000e+00 2.000e+00 2.000e+00 2.000e+00
           </DataArray>
           <DataArray type="Float32" Name="plantTypeID" NumberOfComponents="1" format="ascii">
 0.000e+00 0.000e+00 0.000e+00 0.000e+00 0.000e+00 0.000e+00 0.000e+00
           </DataArray>
           <DataArray type="Float32" Name="rootCircumference" NumberOfComponents="1" format="ascii">
 1.258e+00 1.257e+00 1.257e+00 2.835e-01 2.830e-01 2.829e-01 2.828e-01
           </DataArray>
           <DataArray type="Float32" Name="rootClassID" NumberOfComponents="1" format="ascii">
 -2.000e+00 -2.000e+00 -2.000e+00 -4.000e+00 -4.000e+00 -4.000e+00 -4.000e+00
           </DataArray>
           <DataArray type="Float32" Name="rootDiameter" NumberOfComponents="1" format="ascii">
 4.004e-01 4.001e-01 4.000e-01 9.025e-02 9.009e-02 9.004e-02 9.001e-02
           </DataArray>
           <DataArray type="Float32" Name="rootLength2Base" NumberOfComponents="1" format="ascii">
 0.000e+00 9.600e-01 1.440e+00 0.000e+00 9.428e-01 1.414e+00 1.886e+00
           </DataArray>
           <DataArray type="Float32" Name="rootPotentialSecondaryGrowth" NumberOfComponents="1" format="ascii">
 4.004e-01 4.001e-01 4.000e-01 9.025e-02 9.009e-02 9.004e-02 9.001e-02
           </DataArray>
           <DataArray type="Float32" Name="rootSegmentAge" NumberOfComponents="1" format="ascii">
 1.000e+00 4.000e-01 2.000e-01 1.000e+00 6.000e-01 4.000e-01 2.000e-01
           </DataArray>
           <DataArray type="Float32" Name="rootSegmentDryWeight" NumberOfComponents="1" format="ascii">
 1.136e-02 5.672e-03 6.616e-03 5.669e-04 2.825e-04 2.821e-04 2.820e-04
           </DataArray>
           <DataArray type="Float32" Name="rootSegmentLength" NumberOfComponents="1" format="ascii">
 9.600e-01 4.800e-01 5.600e-01 9.428e-01 4.714e-01 4.714e-01 4.714e-01
           </DataArray>
           <DataArray type="Float32" Name="rootSegmentLengthDuration" NumberOfComponents="1" format="ascii">
 6.387e-01 1.440e-01 5.600e-02 7.542e-01 2.357e-01 1.414e-01 4.714e-02
           </DataArray>
           <DataArray type="Float32" Name="rootSegmentSurfaceArea" NumberOfComponents="1" format="ascii">
 1.208e+00 6.033e-01 7.037e-01 2.673e-01 1.334e-01 1.333e-01 1.333e-01
           </DataArray>
           <DataArray type="Float32" Name="rootSegmentVolume" NumberOfComponents="1" format="ascii">
 1.209e-01 6.034e-02 7.038e-02 6.031e-03 3.005e-03 3.002e-03 3.000e-03
           </DataArray>
           <DataArray type="Float32" Name="spatialRootDensity" NumberOfComponents="1" format="ascii">
 3.376e-01 2.251e-01 0.000e+00 3.438e-01 2.292e-01 0.000e+00 0.000e+00
           </DataArray>
         </CellData>
      </Piece>
   </UnstructuredGrid>
</VTKFile>
