<?xml version="1.0"?>
<VTKFile type="UnstructuredGrid" version="0.1" byte_order="LittleEndian">
   <UnstructuredGrid>
      <Piece NumberOfPoints="34050" NumberOfCells="2433">
         <Points>
            <DataArray type="Float32" Name="Position" NumberOfComponents="3" format="ascii">
-0.067	-5.033	-0.121
-0.067	-5.026	-0.116
-0.068	-5.017	-0.115
-0.071	-5.010	-0.119
-0.075	-5.006	-0.127
-0.077	-5.009	-0.136
-0.078	-5.016	-0.142
-0.076	-5.025	-0.143
-0.073	-5.033	-0.138
-0.069	-5.036	-0.130
-0.889	-5.216	0.155
-0.889	-5.209	0.161
-0.891	-5.200	0.163
-0.895	-5.193	0.159
-0.899	-5.189	0.152
-0.902	-5.191	0.144
-0.903	-5.198	0.137
-0.901	-5.207	0.136
-0.897	-5.215	0.139
-0.892	-5.218	0.147
-1.536	-5.493	0.523
-1.535	-5.487	0.530
-1.538	-5.479	0.533
-1.544	-5.472	0.532
-1.550	-5.468	0.525
-1.554	-5.469	0.517
-1.554	-5.475	0.510
-1.551	-5.483	0.507
-1.546	-5.490	0.508
-1.540	-5.494	0.515
-2.098	-5.958	0.846
-2.098	-5.953	0.854
-2.102	-5.947	0.859
-2.108	-5.940	0.859
-2.114	-5.936	0.853
-2.119	-5.936	0.845
-2.119	-5.941	0.837
-2.115	-5.948	0.832
-2.109	-5.954	0.832
-2.102	-5.958	0.838
-2.352	-6.219	0.970
-2.352	-6.215	0.978
-2.356	-6.208	0.984
-2.363	-6.202	0.984
-2.370	-6.198	0.979
-2.374	-6.198	0.970
-2.374	-6.202	0.962
-2.370	-6.208	0.957
-2.363	-6.215	0.957
-2.356	-6.219	0.962
-0.142	-5.073	-0.244
-0.141	-5.065	-0.239
-0.142	-5.056	-0.239
-0.144	-5.048	-0.244
-0.147	-5.046	-0.253
-0.149	-5.049	-0.261
-0.150	-5.056	-0.267
-0.149	-5.066	-0.267
-0.147	-5.073	-0.262
-0.144	-5.076	-0.253
-0.942	-5.149	-0.032
-0.941	-5.141	-0.027
-0.942	-5.132	-0.027
-0.944	-5.124	-0.031
-0.948	-5.122	-0.039
-0.951	-5.124	-0.048
-0.952	-5.132	-0.053
-0.951	-5.141	-0.053
-0.948	-5.148	-0.049
-0.945	-5.151	-0.041
-1.673	-5.258	0.360
-1.671	-5.250	0.365
-1.671	-5.241	0.365
-1.675	-5.233	0.361
-1.679	-5.230	0.353
-1.683	-5.233	0.346
-1.685	-5.241	0.340
-1.684	-5.250	0.340
-1.681	-5.257	0.344
-1.677	-5.260	0.352
-2.399	-5.301	0.770
-2.398	-5.294	0.775
-2.399	-5.285	0.776
-2.402	-5.277	0.771
-2.405	-5.274	0.762
-2.408	-5.277	0.754
-2.409	-5.285	0.749
-2.408	-5.294	0.748
-2.405	-5.301	0.753
-2.402	-5.304	0.762
-2.868	-5.376	0.841
-2.868	-5.368	0.847
-2.869	-5.359	0.847
-2.871	-5.352	0.841
-2.873	-5.349	0.833
-2.874	-5.352	0.824
-2.874	-5.360	0.818
-2.872	-5.369	0.818
-2.870	-5.376	0.824
-2.868	-5.379	0.832
-0.714	-5.773	-1.239
-0.711	-5.768	-1.232
-0.714	-5.764	-1.224
-0.721	-5.763	-1.219
-0.730	-5.764	-1.217
-0.738	-5.768	-1.221
-0.741	-5.774	-1.228
-0.738	-5.778	-1.236
-0.731	-5.779	-1.242
-0.722	-5.777	-1.243
-0.516	-6.498	-0.809
-0.513	-6.492	-0.803
-0.516	-6.487	-0.795
-0.523	-6.485	-0.790
-0.532	-6.487	-0.789
-0.540	-6.491	-0.792
-0.542	-6.497	-0.798
-0.540	-6.502	-0.806
-0.532	-6.504	-0.811
-0.523	-6.502	-0.812
-0.299	-7.109	-0.190
-0.296	-7.102	-0.184
-0.299	-7.097	-0.177
-0.307	-7.095	-0.172
-0.316	-7.097	-0.170
-0.323	-7.103	-0.173
-0.325	-7.109	-0.179
-0.322	-7.114	-0.186
-0.315	-7.116	-0.192
-0.306	-7.114	-0.193
-0.060	-7.694	0.241
-0.057	-7.688	0.248
-0.060	-7.683	0.256
-0.067	-7.682	0.261
-0.076	-7.684	0.263
-0.083	-7.689	0.260
-0.085	-7.695	0.254
-0.083	-7.700	0.246
-0.076	-7.701	0.240
-0.067	-7.699	0.238
-3.288	-17.487	-6.991
-3.285	-17.479	-6.987
-3.288	-17.471	-6.982
-3.296	-17.467	-6.979
-3.305	-17.468	-6.978
-3.312	-17.473	-6.980
-3.315	-17.481	-6.984
-3.312	-17.489	-6.988
-3.304	-17.493	-6.992
-3.295	-17.492	-6.993
-3.232	-17.690	-6.611
-3.229	-17.682	-6.607
-3.232	-17.675	-6.602
-3.240	-17.670	-6.599
-3.249	-17.671	-6.598
-3.256	-17.677	-6.600
-3.259	-17.685	-6.604
-3.256	-17.692	-6.608
-3.248	-17.696	-6.612
-3.239	-17.696	-6.613
-3.295	-17.631	-7.031
-3.292	-17.623	-7.027
-3.295	-17.616	-7.022
-3.303	-17.612	-7.019
-3.312	-17.612	-7.019
-3.319	-17.617	-7.021
-3.322	-17.625	-7.025
-3.319	-17.632	-7.030
-3.312	-17.636	-7.033
-3.302	-17.636	-7.034
-3.267	-17.838	-6.682
-3.264	-17.831	-6.677
-3.267	-17.823	-6.673
-3.275	-17.819	-6.669
-3.284	-17.819	-6.669
-3.292	-17.824	-6.671
-3.294	-17.832	-6.676
-3.291	-17.839	-6.680
-3.284	-17.844	-6.683
-3.275	-17.843	-6.684
-3.326	-17.759	-7.064
-3.318	-17.754	-7.066
-3.309	-17.754	-7.068
-3.302	-17.760	-7.069
-3.300	-17.769	-7.070
-3.303	-17.777	-7.069
-3.310	-17.783	-7.067
-3.319	-17.782	-7.066
-3.326	-17.777	-7.064
-3.329	-17.768	-7.064
-3.389	-17.763	-7.366
-3.382	-17.758	-7.368
-3.373	-17.758	-7.369
-3.365	-17.764	-7.371
-3.363	-17.773	-7.371
-3.366	-17.781	-7.371
-3.374	-17.786	-7.369
-3.383	-17.786	-7.367
-3.390	-17.780	-7.366
-3.392	-17.771	-7.365
-3.318	-17.903	-7.116
-3.316	-17.899	-7.108
-3.315	-17.900	-7.099
-3.315	-17.906	-7.092
-3.317	-17.915	-7.091
-3.319	-17.923	-7.094
-3.321	-17.928	-7.102
-3.323	-17.926	-7.111
-3.322	-17.920	-7.118
-3.321	-17.911	-7.120
-3.003	-17.991	-7.152
-2.999	-17.982	-7.152
-3.000	-17.973	-7.152
-3.007	-17.967	-7.152
-3.016	-17.965	-7.152
-3.024	-17.969	-7.152
-3.028	-17.978	-7.152
-3.027	-17.987	-7.152
-3.020	-17.993	-7.152
-3.011	-17.995	-7.152
-3.319	-18.070	-7.135
-3.321	-18.063	-7.129
-3.323	-18.054	-7.129
-3.325	-18.047	-7.134
-3.327	-18.044	-7.143
-3.326	-18.046	-7.152
-3.325	-18.053	-7.157
-3.322	-18.062	-7.158
-3.320	-18.070	-7.153
-3.319	-18.073	-7.144
-3.540	-18.129	-7.123
-3.542	-18.122	-7.117
-3.544	-18.113	-7.116
-3.547	-18.106	-7.122
-3.548	-18.103	-7.130
-3.548	-18.105	-7.139
-3.546	-18.112	-7.145
-3.544	-18.121	-7.145
-3.542	-18.129	-7.140
-3.540	-18.132	-7.132
-3.326	-18.193	-7.192
-3.323	-18.189	-7.184
-3.321	-18.190	-7.175
-3.322	-18.197	-7.169
-3.324	-18.206	-7.167
-3.327	-18.214	-7.170
-3.330	-18.217	-7.178
-3.332	-18.216	-7.187
-3.331	-18.210	-7.194
-3.329	-18.201	-7.196
-3.103	-18.259	-7.243
-3.100	-18.255	-7.236
-3.099	-18.257	-7.227
-3.099	-18.263	-7.220
-3.101	-18.272	-7.218
-3.104	-18.280	-7.222
-3.107	-18.284	-7.230
-3.109	-18.282	-7.239
-3.109	-18.276	-7.245
-3.106	-18.267	-7.247
-3.331	-18.337	-7.230
-3.328	-18.334	-7.222
-3.326	-18.335	-7.213
-3.326	-18.342	-7.206
-3.327	-18.351	-7.205
-3.330	-18.359	-7.209
-3.333	-18.363	-7.217
-3.335	-18.361	-7.226
-3.335	-18.354	-7.232
-3.334	-18.345	-7.234
-3.154	-18.375	-7.277
-3.151	-18.371	-7.269
-3.149	-18.373	-7.260
-3.149	-18.380	-7.254
-3.151	-18.389	-7.252
-3.153	-18.397	-7.256
-3.156	-18.401	-7.264
-3.158	-18.399	-7.273
-3.159	-18.392	-7.280
-3.157	-18.383	-7.281
-3.331	-18.505	-7.249
-3.332	-18.498	-7.243
-3.335	-18.489	-7.243
-3.337	-18.482	-7.248
-3.338	-18.479	-7.257
-3.338	-18.481	-7.266
-3.337	-18.489	-7.271
-3.334	-18.497	-7.272
-3.332	-18.505	-7.266
-3.331	-18.508	-7.258
-3.504	-18.550	-7.239
-3.505	-18.543	-7.233
-3.507	-18.534	-7.233
-3.510	-18.526	-7.238
-3.511	-18.524	-7.247
-3.511	-18.526	-7.256
-3.509	-18.533	-7.262
-3.507	-18.542	-7.262
-3.505	-18.550	-7.257
-3.503	-18.553	-7.248
-3.335	-18.629	-7.307
-3.333	-18.624	-7.299
-3.333	-18.625	-7.290
-3.334	-18.631	-7.283
-3.336	-18.639	-7.281
-3.339	-18.648	-7.284
-3.341	-18.652	-7.292
-3.341	-18.652	-7.301
-3.340	-18.646	-7.308
-3.337	-18.637	-7.311
-3.211	-18.676	-7.292
-3.202	-18.676	-7.288
-3.193	-18.676	-7.289
-3.187	-18.676	-7.296
-3.185	-18.676	-7.305
-3.189	-18.676	-7.313
-3.198	-18.676	-7.317
-3.207	-18.676	-7.316
-3.213	-18.676	-7.309
-3.215	-18.676	-7.300
-3.325	-18.790	-7.339
-3.323	-18.783	-7.335
-3.326	-18.775	-7.330
-3.333	-18.771	-7.327
-3.342	-18.771	-7.326
-3.350	-18.776	-7.329
-3.353	-18.784	-7.334
-3.350	-18.791	-7.338
-3.342	-18.795	-7.342
-3.333	-18.795	-7.342
-3.316	-18.879	-7.198
-3.313	-18.871	-7.194
-3.316	-18.864	-7.189
-3.324	-18.860	-7.186
-3.333	-18.860	-7.185
-3.340	-18.865	-7.188
-3.343	-18.872	-7.192
-3.340	-18.880	-7.197
-3.333	-18.884	-7.200
-3.324	-18.884	-7.201
-0.785	-5.853	-1.340
-0.780	-5.850	-1.333
-0.775	-5.853	-1.326
-0.772	-5.861	-1.322
-0.773	-5.870	-1.321
-0.776	-5.878	-1.325
-0.782	-5.880	-1.332
-0.787	-5.878	-1.339
-0.790	-5.870	-1.344
-0.789	-5.861	-1.344
-0.078	-5.918	-1.877
-0.073	-5.915	-1.870
-0.069	-5.918	-1.862
-0.067	-5.925	-1.857
-0.067	-5.935	-1.857
-0.070	-5.942	-1.861
-0.075	-5.945	-1.869
-0.079	-5.942	-1.876
-0.081	-5.935	-1.881
-0.081	-5.926	-1.882
0.680	-5.948	-2.190
0.684	-5.944	-2.182
0.687	-5.947	-2.174
0.689	-5.954	-2.168
0.688	-5.963	-2.168
0.685	-5.971	-2.172
0.681	-5.974	-2.180
0.678	-5.972	-2.188
0.676	-5.964	-2.193
0.677	-5.955	-2.194
1.190	-6.037	-2.463
1.194	-6.034	-2.456
1.198	-6.036	-2.448
1.200	-6.043	-2.442
1.199	-6.053	-2.441
1.195	-6.060	-2.445
1.191	-6.063	-2.453
1.187	-6.061	-2.461
1.185	-6.053	-2.466
1.186	-6.044	-2.467
-3.337	-18.918	-7.384
-3.336	-18.914	-7.376
-3.335	-18.915	-7.367
-3.335	-18.921	-7.360
-3.337	-18.930	-7.358
-3.339	-18.938	-7.362
-3.341	-18.943	-7.370
-3.342	-18.941	-7.379
-3.341	-18.935	-7.386
-3.340	-18.926	-7.388
-3.231	-18.941	-7.396
-3.230	-18.937	-7.388
-3.229	-18.938	-7.379
-3.229	-18.944	-7.372
-3.231	-18.953	-7.370
-3.233	-18.961	-7.374
-3.235	-18.965	-7.382
-3.236	-18.964	-7.391
-3.235	-18.958	-7.398
-3.234	-18.949	-7.400
-3.350	-19.063	-7.411
-3.342	-19.058	-7.412
-3.333	-19.060	-7.412
-3.326	-19.066	-7.413
-3.324	-19.075	-7.412
-3.328	-19.083	-7.412
-3.336	-19.088	-7.411
-3.346	-19.087	-7.411
-3.352	-19.080	-7.410
-3.354	-19.071	-7.411
-3.356	-19.065	-7.502
-3.348	-19.061	-7.503
-3.338	-19.062	-7.503
-3.332	-19.068	-7.503
-3.330	-19.077	-7.503
-3.334	-19.086	-7.503
-3.342	-19.090	-7.502
-3.351	-19.089	-7.502
-3.358	-19.082	-7.501
-3.360	-19.073	-7.501
-3.350	-19.208	-7.450
-3.342	-19.203	-7.450
-3.333	-19.205	-7.451
-3.326	-19.211	-7.451
-3.325	-19.220	-7.451
-3.329	-19.229	-7.450
-3.337	-19.233	-7.450
-3.346	-19.231	-7.450
-3.353	-19.225	-7.450
-3.355	-19.216	-7.450
-3.353	-19.209	-7.535
-3.345	-19.205	-7.535
-3.336	-19.206	-7.535
-3.329	-19.213	-7.535
-3.328	-19.222	-7.535
-3.332	-19.230	-7.535
-3.340	-19.234	-7.535
-3.349	-19.233	-7.534
-3.356	-19.226	-7.534
-3.357	-19.217	-7.534
-3.328	-19.370	-7.494
-3.326	-19.362	-7.490
-3.329	-19.355	-7.485
-3.336	-19.351	-7.481
-3.345	-19.351	-7.481
-3.353	-19.356	-7.484
-3.356	-19.364	-7.488
-3.353	-19.371	-7.493
-3.345	-19.375	-7.496
-3.336	-19.375	-7.497
-3.347	-19.389	-7.430
-3.338	-19.385	-7.430
-3.329	-19.387	-7.430
-3.323	-19.393	-7.430
[...]
         <CellData>
           <DataArray type="Float32" Name="combinedRootClassID" NumberOfComponents="1" format="ascii">
 -1.300e+01 -1.300e+01 -1.300e+01 -1.300e+01 -1.300e+01 -1.300e+01 -1.300e+01 -1.300e+01 -1.300e+01 -1.300e+01 -1.300e+01 -1.300e+01 -1.300e+01 -1.300e+01 -1.300e+01 -1.300e+01 -1.300e+01 -1.300e+01 -1.300e+01 -1.300e+01 -1.300e+01 -1.300e+01 -1.300e+01 -1.300e+01 -1.300e+01 -1.300e+01 -1.300e+01 -1.300e+01 -1.300e+01 -1.300e+01 -1.300e+01 -1.300e+01 -1.300e+01 -1.300e+01 -1.300e+01 -1.300e+01 -1.300e+01 -1.300e+01 -1.300e+01 -1.300e+01 -1.300e+01 -1.300e+01 -1.300e+01 -1.300e+01 -1.300e+01 -1.300e+01 -1.300e+01 -1.300e+01 -1.300e+01 -1.300e+01 -1.300e+01 -1.300e+01 -1.300e+01 -1.300e+01 -1.300e+01 -1.300e+01 -1.300e+01 -1.300e+01 -1.300e+01 -1.300e+01 -1.300e+01 -1.300e+01 -1.300e+01 -1.300e+01 -1.300e+01 -1.300e+01 -1.300e+01 -1.300e+01 -1.300e+01 -1.300e+01 -1.300e+01 -1.300e+01 -1.300e+01 -1.300e+01 -1.300e+01 -1.300e+01 -1.300e+01 -1.300e+01 -1.300e+01 -1.300e+01 -1.300e+01 -1.300e+01 -1.300e+01 -1.300e+01 -1.300e+01 -1.300e+01 -1.300e+01 -1.300e+01 -1.300e+01 -1.300e+01 -1.300e+01 -1.300e+01 -1.300e+01 -1.300e+01 -1.300e+01 -1.300e+01 -1.300e+01 -1.300e+01 -1.300e+01 -1.300e+01 -1.300e+01 -1.300e+01 -1.300e+01 -1.300e+01 -1.300e+01 -1.300e+01 -1.300e+01 -1.300e+01 -1.300e+01 -1.300e+01 -1.300e+01 -1.300e+01 -1.300e+01 -1.300e+01 -1.300e+01 -1.300e+01 -1.300e+01 -1.300e+01 -1.300e+01 -1.300e+01 -1.300e+01 -1.300e+01 -1.300e+01 -1.300e+01 -1.300e+01 -1.300e+01 -1.300e+01 -1.300e+01 -1.300e+01 -1.300e+01 -1.300e+01 -1.300e+01 -1.300e+01 -1.300e+01 -1.300e+01 -1.300e+01 -1.300e+01 -1.300e+01 -1.300e+01 -1.300e+01 -1.300e+01 -1.300e+01 -1.300e+01 -1.300e+01 -1.300e+01 -1.300e+01 -1.300e+01 -1.300e+01 -1.300e+01 -1.300e+01 -1.300e+01 -1.300e+01 -1.300e+01 -1.300e+01 -1.300e+01 -1.300e+01 -1.300e+01 -1.300e+01 -1.300e+01 -1.300e+01 -1.300e+01 -1.300e+01 -1.300e+01 -1.300e+01 -1.300e+01 -1.300e+01 -1.300e+01 -1.300e+01 -1.300e+01 -1.300e+01 -1.300e+01 -1.300e+01 -1.300e+01 -1.300e+01 -1.300e+01 -1.300e+01 -1.300e+01 -1.300e+01 -1.300e+01 -1.300e+01 -1.300e+01 -1.300e+01 -1.300e+01 -1.300e+01 -1.300e+01 -1.300e+01 -1.300e+01 -1.300e+01 -1.300e+01 -1.300e+01 -1.300e+01 -1.300e+01 -1.300e+01 -1.300e+01 -1.300e+01 -1.300e+01 -1.300e+01 -1.300e+01 -1.300e+01 -1.300e+01 -1.300e+01 -1.300e+01 -1.300e+01 -1.300e+01 -1.300e+01 -1.300e+01 -1.300e+01 -1.300e+01 -1.300e+01 -1.300e+01 -1.300e+01 -1.300e+01 -1.300e+01 -1.300e+01 -1.300e+01 -1.300e+01 -1.300e+01 -1.300e+01 -1.300e+01 -1.300e+01 -1.300e+01 -1.300e+01 -1.300e+01 -1.300e+01 -1.300e+01 -1.300e+01 -1.300e+01 -1.300e+01 -1.300e+01 -1.300e+01 -1.300e+01 -1.300e+01 -1.300e+01 -1.300e+01 -1.300e+01 -1.300e+01 -1.300e+01 -1.300e+01 -1.300e+01 -1.300e+01 -1.300e+01 -1.300e+01 -1.300e+01 -1.300e+01 -1.300e+01 -1.300e+01 -5.000e+00 -5.000e+00 -5.000e+00 -5.000e+00 -5.000e+00 -5.000e+00 -5.000e+00 -5.000e+00 -5.000e+00 -5.000e+00 -5.000e+00 -5.000e+00 -5.000e+00 -5.000e+00 -5.000e+00 -5.000e+00 -5.000e+00 -5.000e+00 -5.000e+00 -5.000e+00 -5.000e+00 -5.000e+00 -5.000e+00 -5.000e+00 -5.000e+00 -5.000e+00 -5.000e+00 -5.000e+00 -5.000e+00 -5.000e+00 -5.000e+00 -5.000e+00 -5.000e+00 -1.300e+01 -1.300e+01 -1.300e+01 -1.300e+01 -1.300e+01 -1.300e+01 -1.300e+01 -1.300e+01 -1.300e+01 -1.300e+01 -1.300e+01 -1.300e+01 -1.300e+01 -1.300e+01 -1.300e+01 -1.300e+01 -1.300e+01 -1.300e+01 -1.300e+01 -1.300e+01 -1.300e+01 -1.300e+01 -1.300e+01 -1.300e+01 -1.300e+01 -1.300e+01 -1.300e+01 -1.300e+01 -1.300e+01 -1.300e+01 -1.300e+01 -1.300e+01 -1.300e+01 -1.300e+01 -1.300e+01 -1.300e+01 -1.300e+01 -1.300e+01 -1.300e+01 -1.300e+01 -1.300e+01 -1.300e+01 -1.300e+01 -1.300e+01 -1.300e+01 -1.300e+01 -1.300e+01 -1.300e+01 -1.300e+01 -1.300e+01 -1.300e+01 -1.300e+01 -1.300e+01 -1.300e+01 -1.300e+01 -1.300e+01 -1.300e+01 -1.300e+01 -1.300e+01 -1.300e+01 -1.300e+01 -1.300e+01 -1.300e+01 -1.300e+01 -1.300e+01 -1.300e+01 -1.300e+01 -1.300e+01 -1.300e+01 -1.300e+01 -1.300e+01 -1.300e+01 -1.300e+01 -1.300e+01 -1.300e+01 -1.300e+01 -1.300e+01 -1.300e+01 -1.300e+01 -1.300e+01 -1.300e+01 -1.300e+01 -1.300e+01 -1.300e+01 -1.300e+01 -1.300e+01 -1.300e+01 -1.300e+01 -1.300e+01 -1.300e+01 -1.300e+01 -1.300e+01 -1.300e+01 -1.300e+01 -1.300e+01 -1.300e+01 -1.300e+01 -1.300e+01 -1.300e+01 -1.300e+01 -1.300e+01 -1.300e+01 -1.300e+01 -1.300e+01 -1.300e+01 -1.300e+01 -1.300e+01 -1.300e+01 -1.300e+01 -1.300e+01 -1.300e+01 -1.300e+01 -1.300e+01 -1.300e+01 -1.300e+01 -1.300e+01 -1.300e+01 -1.300e+01 -1.300e+01 -1.300e+01 -1.300e+01 -1.300e+01 -1.300e+01 -1.300e+01 -1.300e+01 -1.300e+01 -1.300e+01 -1.300e+01 -1.300e+01 -1.300e+01 -1.300e+01 -1.300e+01 -1.300e+01 -1.300e+01 -1.300e+01 -1.300e+01 -1.300e+01 -1.300e+01 -1.300e+01 -1.300e+01 -1.300e+01 -1.300e+01 -1.300e+01 -1.300e+01 -1.300e+01 -1.300e+01 -1.300e+01 -1.300e+01 -1.300e+01 -1.300e+01 -1.300e+01 -1.300e+01 -1.300e+01 -1.300e+01 -1.300e+01 -1.300e+01 -1.300e+01 -1.300e+01 -1.300e+01 -1.300e+01 -1.300e+01 -1.300e+01 -1.300e+01 -1.300e+01 -1.300e+01 -1.300e+01 -1.300e+01 -1.300e+01 -1.300e+01 -1.300e+01 -1.300e+01 -1.300e+01 -1.300e+01 -1.300e+01 -1.300e+01 -1.300e+01 -1.300e+01 -1.300e+01 -1.300e+01 -1.300e+01 -1.300e+01 -1.300e+01 -1.300e+01 -1.300e+01 -1.300e+01 -1.300e+01 -1.300e+01 -1.300e+01 -1.300e+01 -1.300e+01 -1.300e+01 -1.300e+01 -1.300e+01 -1.300e+01 -1.300e+01 -1.300e+01 -1.300e+01 -1.300e+01 -1.300e+01 -1.300e+01 -1.300e+01 -1.300e+01 -1.300e+01 -1.300e+01 -1.300e+01 -1.300e+01 -1.300e+01 -1.300e+01 -1.300e+01 -1.300e+01 -1.300e+01 -1.300e+01 -1.300e+01 -1.300e+01 -1.300e+01 -1.300e+01 -1.300e+01 -1.300e+01 -1.300e+01 -1.300e+01 -1.300e+01 -1.300e+01 -1.300e+01 -1.300e+01 -1.300e+01 -1.300e+01 -1.300e+01 -1.300e+01 -1.300e+01 -1.300e+01 -1.300e+01 -1.300e+01 -1.300e+01 -1.300e+01 -1.300e+01 -1.300e+01 -1.300e+01 -5.000e+00 -5.000e+00 -5.000e+00 -5.000e+00 -5.000e+00 -5.000e+00 -5.000e+00 -5.000e+00 -5.000e+00 -5.000e+00 -5.000e+00 -5.000e+00 -5.000e+00 -5.000e+00 -5.000e+00 -5.000e+00 -5.000e+00 -5.000e+00 -5.000e+00 -5.000e+00 -5.000e+00 -5.000e+00 -5.000e+00 -5.000e+00 -5.000e+00 -5.000e+00 -5.000e+00 -5.000e+00 -5.000e+00 -5.000e+00 -5.000e+00 -5.000e+00 -5.000e+00 -1.300e+01 -1.300e+01 -1.300e+01 -1.300e+01 -1.300e+01 -1.300e+01 -1.300e+01 -1.300e+01 -1.300e+01 -1.300e+01 -1.300e+01 -1.300e+01 -1.300e+01 -1.300e+01 -1.300e+01 -1.300e+01 -1.300e+01 -1.300e+01 -1.300e+01 -1.300e+01 -1.300e+01 -1.300e+01 -1.300e+01 -1.300e+01 -1.300e+01 -1.300e+01 -1.300e+01 -1.300e+01 -1.300e+01 -1.300e+01 -1.300e+01 -1.300e+01 -1.300e+01 -1.300e+01 -1.300e+01 -1.300e+01 -1.300e+01 -1.300e+01 -1.300e+01 -1.300e+01 -1.300e+01 -1.300e+01 -1.300e+01 -1.300e+01 -1.300e+01 -1.300e+01 -1.300e+01 -1.300e+01 -1.300e+01 -1.300e+01 -1.300e+01 -1.300e+01 -1.300e+01 -1.300e+01 -1.300e+01 -1.300e+01 -1.300e+01 -1.300e+01 -1.300e+01 -1.300e+01 -1.300e+01 -1.300e+01 -1.300e+01 -1.300e+01 -1.300e+01 -1.300e+01 -1.300e+01 -1.300e+01 -1.300e+01 -1.300e+01 -1.300e+01 -1.300e+01 -1.300e+01 -1.300e+01 -1.300e+01 -1.300e+01 -1.300e+01 -1.300e+01 -1.300e+01 -1.300e+01 -1.300e+01 -1.300e+01 -1.300e+01 -1.300e+01 -1.300e+01 -1.300e+01 -1.300e+01 -1.300e+01 -1.300e+01 -1.300e+01 -1.300e+01 -1.300e+01 -1.300e+01 -1.300e+01 -1.300e+01 -1.300e+01 -1.300e+01 -1.300e+01 -1.300e+01 -1.300e+01 -1.300e+01 -1.300e+01 -1.300e+01 -1.300e+01 -1.300e+01 -1.300e+01 -1.300e+01 -1.300e+01 -1.300e+01 -1.300e+01 -1.300e+01 -1.300e+01 -1.300e+01 -1.300e+01 -1.300e+01 -1.300e+01 -1.300e+01 -1.300e+01 -1.300e+01 -1.300e+01 -1.300e+01 -1.300e+01 -1.300e+01 -1.300e+01 -1.300e+01 -1.300e+01 -1.300e+01 -1.300e+01 -1.300e+01 -1.300e+01 -1.300e+01 -1.300e+01 -1.300e+01 -1.300e+01 -1.300e+01 -1.300e+01 -1.300e+01 -1.300e+01 -1.300e+01 -1.300e+01 -1.300e+01 -1.300e+01 -1.300e+01 -1.300e+01 -1.300e+01 -1.300e+01 -1.300e+01 -1.300e+01 -1.300e+01 -1.300e+01 -1.300e+01 -1.300e+01 -1.300e+01 -1.300e+01 -1.300e+01 -1.300e+01 -1.300e+01 -1.300e+01 -1.300e+01 -1.300e+01 -1.300e+01 -1.300e+01 -1.300e+01 -1.300e+01 -1.300e+01 -1.300e+01 -1.300e+01 -1.300e+01 -1.300e+01 -1.300e+01 -1.300e+01 -1.300e+01 -1.300e+01 -1.300e+01 -1.300e+01 -1.300e+01 -1.300e+01 -1.300e+01 -1.300e+01 -1.300e+01 -1.300e+01 -1.300e+01 -1.300e+01 -1.300e+01 -1.300e+01 -1.300e+01 -1.300e+01 -1.300e+01 -1.300e+01 -1.300e+01 -1.300e+01 -1.300e+01 -1.300e+01 -1.300e+01 -1.300e+01 -1.300e+01 -1.300e+01 -1.300e+01 -1.300e+01 -1.300e+01 -1.300e+01 -1.300e+01 -1.300e+01 -1.300e+01 -1.300e+01 -1.300e+01 -1.300e+01 -1.300e+01 -1.300e+01 -1.300e+01 -1.300e+01 -1.300e+01 -1.300e+01 -1.300e+01 -1.300e+01 -1.300e+01 -1.300e+01 -1.300e+01 -1.300e+01 -1.300e+01 -1.300e+01 -1.300e+01 -1.300e+01 -1.300e+01 -1.300e+01 -1.300e+01 -1.300e+01 -1.300e+01 -1.300e+01 -1.300e+01 -1.300e+01 -1.300e+01 -1.300e+01 -1.300e+01 -1.300e+01 -1.300e+01 -1.300e+01 -1.300e+01 -1.300e+01 -1.300e+01 -1.300e+01 -5.000e+00 -5.000e+00 -5.000e+00 -5.000e+00 -5.000e+00 -5.000e+00 -5.000e+00 -5.000e+00 -5.000e+00 -5.000e+00 -5.000e+00 -5.000e+00 -5.000e+00 -5.000e+00 -5.000e+00 -5.000e+00 -5.000e+00 -5.000e+00 -5.000e+00 -5.000e+00 -5.000e+00 -5.000e+00 -5.000e+00 -5.000e+00 -5.000e+00 -5.000e+00 -5.000e+00 -5.000e+00 -5.000e+00 -5.000e+00 -5.000e+00 -5.000e+00 -5.000e+00 -1.300e+01 -1.300e+01 -1.300e+01 -1.300e+01 -1.300e+01 -1.300e+01 -1.300e+01 -1.300e+01 -1.300e+01 -1.300e+01 -1.300e+01 -1.300e+01 -1.300e+01 -1.300e+01 -1.300e+01 -1.300e+01 -1.300e+01 -1.300e+01 -1.300e+01 -1.300e+01 -1.300e+01 -1.300e+01 -1.300e+01 -1.300e+01 -1.300e+01 -1.300e+01 -1.300e+01 -1.300e+01 -1.300e+01 -1.300e+01 -1.300e+01 -1.300e+01 -1.300e+01 -1.300e+01 -1.300e+01 -1.300e+01 -1.300e+01 -1.300e+01 -1.300e+01 -1.300e+01 -1.300e+01 -1.300e+01 -1.300e+01 -1.300e+01 -1.300e+01 -1.300e+01 -1.300e+01 -1.300e+01 -1.300e+01 -1.300e+01 -1.300e+01 -1.300e+01 -1.300e+01 -1.300e+01 -1.300e+01 -1.300e+01 -1.300e+01 -1.300e+01 -1.300e+01 -1.300e+01 -1.300e+01 -1.300e+01 -1.300e+01 -1.300e+01 -1.300e+01 -1.300e+01 -1.300e+01 -1.300e+01 -1.300e+01 -1.300e+01 -1.300e+01 -1.300e+01 -1.300e+01 -1.300e+01 -1.300e+01 -1.300e+01 -1.300e+01 -1.300e+01 -1.300e+01 -1.300e+01 -1.300e+01 -1.300e+01 -1.300e+01 -1.300e+01 -1.300e+01 -1.300e+01 -1.300e+01 -1.300e+01 -1.300e+01 -1.300e+01 -1.300e+01 -1.300e+01 -1.300e+01 -1.300e+01 -1.300e+01 -1.300e+01 -1.300e+01 -1.300e+01 -1.300e+01 -1.300e+01 -1.300e+01 -1.300e+01 -1.300e+01 -1.300e+01 -1.300e+01 -1.300e+01 -1.300e+01 -1.300e+01 -1.300e+01 -1.300e+01 -1.300e+01 -1.300e+01 -1.300e+01 -1.300e+01 -1.300e+01 -1.300e+01 -1.300e+01 -1.300e+01 -1.300e+01 -1.300e+01 -1.300e+01 -1.300e+01 -1.300e+01 -1.300e+01 -1.300e+01 -1.300e+01 -1.300e+01 -1.300e+01 -1.300e+01 -1.300e+01 -1.300e+01 -1.300e+01 -1.300e+01 -1.300e+01 -1.300e+01 -1.300e+01 -1.300e+01 -1.300e+01 -1.300e+01 -1.300e+01 -1.300e+01 -1.300e+01 -1.300e+01 -1.300e+01 -1.300e+01 -1.300e+01 -1.300e+01 -1.300e+01 -1.300e+01 -1.300e+01 -1.300e+01 -1.300e+01 -1.300e+01 -1.300e+01 -1.300e+01 -1.300e+01 -1.300e+01 -1.300e+01 -1.300e+01 -1.300e+01 -1.300e+01 -1.300e+01 -1.300e+01 -1.300e+01 -1.300e+01 -1.300e+01 -1.300e+01 -1.300e+01 -1.300e+01 -1.300e+01 -1.300e+01 -1.300e+01 -1.300e+01 -1.300e+01 -1.300e+01 -1.300e+01 -1.300e+01 -1.300e+01 -1.300e+01 -1.300e+01 -1.300e+01 -1.300e+01 -1.300e+01 -1.300e+01 -1.300e+01 -1.300e+01 -1.300e+01 -1.300e+01 -1.300e+01 -1.300e+01 -1.300e+01 -1.300e+01 -1.300e+01 -1.300e+01 -1.300e+01 -1.300e+01 -1.300e+01 -1.300e+01 -1.300e+01 -1.300e+01 -1.300e+01 -1.300e+01 -1.300e+01 -1.300e+01 -1.300e+01 -1.300e+01 -1.300e+01 -1.300e+01 -1.300e+01 -1.300e+01 -1.300e+01 -1.300e+01 -1.300e+01 -1.300e+01 -1.300e+01 -1.300e+01 -1.300e+01 -1.300e+01 -1.300e+01 -1.300e+01 -1.300e+01 -1.300e+01 -1.300e+01 -1.300e+01 -1.300e+01 -1.300e+01 -1.300e+01 -1.300e+01 -1.300e+01 -1.300e+01 -1.300e+01 -1.300e+01 -1.300e+01 -1.300e+01 -1.300e+01 -1.300e+01 -1.300e+01 -1.300e+01 -1.300e+01 -1.300e+01 -1.300e+01 -1.300e+01 -1.300e+01 -1.300e+01 -1.300e+01 -1.300e+01 -1.300e+01 -1.300e+01 -5.000e+00 -5.000e+00 -5.000e+00 -5.000e+00 -5.000e+00 -5.000e+00 -5.000e+00 -5.000e+00 -5.000e+00 -5.000e+00 -5.000e+00 -5.000e+00 -5.000e+00 -5.000e+00 -5.000e+00 -5.000e+00 -5.000e+00 -5.000e+00 -5.000e+00 -5.000e+00 -5.000e+00 -5.000e+00 -5.000e+00 -5.000e+00 -5.000e+00 -5.000e+00 -5.000e+00 -5.000e+00 -5.000e+00 -5.000e+00 -5.000e+00 -5.000e+00 -5.000e+00 -1.900e+01 -1.900e+01 -1.900e+01 -1.900e+01 -1.900e+01 -1.900e+01 -1.900e+01 -1.900e+01 -1.900e+01 -1.900e+01 -1.900e+01 -1.900e+01 -1.900e+01 -1.900e+01 -1.900e+01 -1.900e+01 -1.900e+01 -1.900e+01 -1.900e+01 -1.900e+01 -1.900e+01 -1.900e+01 -1.900e+01 -1.900e+01 -1.900e+01 -1.900e+01 -1.900e+01 -1.900e+01 -1.900e+01 -1.900e+01 -1.900e+01 -1.900e+01 -1.900e+01 -1.900e+01 -1.900e+01 -1.900e+01 -1.900e+01 -1.900e+01 -1.900e+01 -1.900e+01 -1.900e+01 -1.900e+01 -1.900e+01 -1.900e+01 -1.900e+01 -1.900e+01 -1.900e+01 -1.900e+01 -1.900e+01 -1.900e+01 -1.900e+01 -1.900e+01 -1.900e+01 -1.900e+01 -1.900e+01 -1.900e+01 -1.900e+01 -1.900e+01 -1.100e+01 -1.100e+01 -1.100e+01 -1.100e+01 -1.100e+01 -1.100e+01 -1.100e+01 -1.100e+01 -1.100e+01 -1.100e+01 -1.100e+01 -1.100e+01 -1.100e+01 -1.100e+01 -1.100e+01 -1.100e+01 -1.100e+01 -1.100e+01 -1.100e+01 -1.100e+01 -1.100e+01 -1.100e+01 -1.100e+01 -1.900e+01 -1.900e+01 -1.900e+01 -1.900e+01 -1.900e+01 -1.900e+01 -1.900e+01 -1.900e+01 -1.900e+01 -1.900e+01 -1.900e+01 -1.900e+01 -1.900e+01 -1.900e+01 -1.900e+01 -1.900e+01 -1.900e+01 -1.900e+01 -1.900e+01 -1.900e+01 -1.900e+01 -1.900e+01 -1.900e+01 -1.900e+01 -1.900e+01 -1.900e+01 -1.900e+01 -1.900e+01 -1.900e+01 -1.900e+01 -1.900e+01 -1.900e+01 -1.900e+01 -1.900e+01 -1.900e+01 -1.900e+01 -1.900e+01 -1.900e+01 -1.900e+01 -1.900e+01 -1.900e+01 -1.900e+01 -1.900e+01 -1.900e+01 -1.900e+01 -1.900e+01 -1.900e+01 -1.900e+01 -1.900e+01 -1.900e+01 -1.900e+01 -1.900e+01 -1.900e+01 -1.900e+01 -1.900e+01 -1.900e+01 -1.900e+01 -1.100e+01 -1.100e+01 -1.100e+01 -1.100e+01 -1.100e+01 -1.100e+01 -1.100e+01 -1.100e+01 -1.100e+01 -1.100e+01 -1.100e+01 -1.100e+01 -1.100e+01 -1.100e+01 -1.100e+01 -1.100e+01 -1.100e+01 -1.100e+01 -1.100e+01 -1.100e+01 -1.100e+01 -1.100e+01 -1.100e+01 -1.900e+01 -1.900e+01 -1.900e+01 -1.900e+01 -1.900e+01 -1.900e+01 -1.900e+01 -1.900e+01 -1.900e+01 -1.900e+01 -1.900e+01 -1.900e+01 -1.900e+01 -1.900e+01 -1.900e+01 -1.900e+01 -1.900e+01 -1.900e+01 -1.900e+01 -1.900e+01 -1.900e+01 -1.900e+01 -1.900e+01 -1.900e+01 -1.900e+01 -1.900e+01 -1.900e+01 -1.900e+01 -1.900e+01 -1.900e+01 -1.900e+01 -1.900e+01 -1.900e+01 -1.900e+01 -1.900e+01 -1.900e+01 -1.900e+01 -1.900e+01 -1.900e+01 -1.900e+01 -1.900e+01 -1.900e+01 -1.900e+01 -1.900e+01 -1.900e+01 -1.900e+01 -1.900e+01 -1.900e+01 -1.900e+01 -1.900e+01 -1.900e+01 -1.900e+01 -1.900e+01 -1.900e+01 -1.900e+01 -1.100e+01 -1.100e+01 -1.100e+01 -1.100e+01 -1.100e+01 -1.100e+01 -1.100e+01 -1.100e+01 -1.100e+01 -1.100e+01 -1.100e+01 -1.100e+01 -1.100e+01 -1.100e+01 -1.100e+01 -1.100e+01 -1.100e+01 -1.100e+01 -1.100e+01 -1.100e+01 -1.100e+01 -1.100e+01 -1.100e+01 -1.900e+01 -1.900e+01 -1.900e+01 -1.900e+01 -1.900e+01 -1.900e+01 -1.900e+01 -1.900e+01 -1.900e+01 -1.900e+01 -1.900e+01 -1.900e+01 -1.900e+01 -1.900e+01 -1.900e+01 -1.900e+01 -1.900e+01 -1.900e+01 -1.900e+01 -1.900e+01 -1.900e+01 -1.900e+01 -1.900e+01 -1.900e+01 -1.900e+01 -1.900e+01 -1.900e+01 -1.900e+01 -1.900e+01 -1.900e+01 -1.900e+01 -1.900e+01 -1.900e+01 -1.900e+01 -1.900e+01 -1.900e+01 -1.900e+01 -1.900e+01 -1.900e+01 -1.900e+01 -1.900e+01 -1.900e+01 -1.900e+01 -1.900e+01 -1.900e+01 -1.900e+01 -1.900e+01 -1.900e+01 -1.900e+01 -1.900e+01 -1.900e+01 -1.900e+01 -1.900e+01 -1.900e+01 -1.900e+01 -1.900e+01 -1.100e+01 -1.100e+01 -1.100e+01 -1.100e+01 -1.100e+01 -1.100e+01 -1.100e+01 -1.100e+01 -1.100e+01 -1.100e+01 -1.100e+01 -1.100e+01 -1.100e+01 -1.100e+01 -1.100e+01 -1.100e+01 -1.100e+01 -1.100e+01 -1.100e+01 -1.100e+01 -1.100e+01 -1.100e+01 -1.100e+01 -2.000e+01 -2.000e+01 -2.000e+01 -2.000e+01 -2.000e+01 -2.000e+01 -2.000e+01 -2.000e+01 -2.000e+01 -2.000e+01 -2.000e+01 -2.000e+01 -2.000e+01 -2.000e+01 -2.000e+01 -2.000e+01 -2.000e+01 -2.000e+01 -2.000e+01 -2.000e+01 -2.000e+01 -2.000e+01 -2.000e+01 -2.000e+01 -2.000e+01 -2.000e+01 -2.000e+01 -2.000e+01 -2.000e+01 -2.000e+01 -2.000e+01 -2.000e+01 -2.000e+00 -2.000e+00 -2.000e+00 -2.000e+00 -2.000e+00 -2.000e+00 -2.000e+00 -2.000e+00 -2.000e+00 -2.000e+00 -2.000e+00 -2.000e+00 -1.700e+01 -7.000e+00 -7.000e+00 -7.000e+00 -7.000e+00 -7.000e+00 -7.000e+00 -1.700e+01 -1.700e+01 -1.700e+01 -7.000e+00 -7.000e+00 -7.000e+00 -7.000e+00 -7.000e+00 -7.000e+00 -7.000e+00 -7.000e+00 -1.700e+01 -1.700e+01 -1.700e+01 -7.000e+00 -7.000e+00 -7.000e+00 -7.000e+00 -7.000e+00 -7.000e+00 -7.000e+00 -7.000e+00 -7.000e+00 -7.000e+00 -7.000e+00 -7.000e+00 -7.000e+00 -7.000e+00 -7.000e+00 -7.000e+00 -7.000e+00 -7.000e+00 -7.000e+00 -7.000e+00 -7.000e+00 -7.000e+00 -7.000e+00 -7.000e+00 -7.000e+00 -7.000e+00 -7.000e+00 -7.000e+00 -7.000e+00 -7.000e+00 -7.000e+00 -7.000e+00 -7.000e+00 -7.000e+00 -7.000e+00 -7.000e+00 -7.000e+00 -7.000e+00 -7.000e+00 -7.000e+00 -7.000e+00 -7.000e+00 -7.000e+00 -1.700e+01 -1.700e+01 -1.700e+01 -7.000e+00 -7.000e+00 -7.000e+00 -7.000e+00 -7.000e+00 -7.000e+00 -7.000e+00 -7.000e+00 -7.000e+00 -7.000e+00 -7.000e+00 -7.000e+00 -7.000e+00 -7.000e+00 -7.000e+00 -7.000e+00 -7.000e+00 -7.000e+00 -7.000e+00 -7.000e+00 -7.000e+00 -7.000e+00 -7.000e+00 -7.000e+00 -7.000e+00 -7.000e+00 -7.000e+00 -7.000e+00 -7.000e+00 -7.000e+00 -7.000e+00 -7.000e+00 -7.000e+00 -7.000e+00 -7.000e+00 -7.000e+00 -7.000e+00 -7.000e+00 -7.000e+00 -1.700e+01 -1.700e+01 -7.000e+00 -7.000e+00 -7.000e+00 -7.000e+00 -7.000e+00 -7.000e+00 -7.000e+00 -7.000e+00 -7.000e+00 -7.000e+00 -7.000e+00 -7.000e+00 -7.000e+00 -7.000e+00 -7.000e+00 -7.000e+00 -7.000e+00 -7.000e+00 -7.000e+00 -7.000e+00 -7.000e+00 -7.000e+00 -7.000e+00 -7.000e+00 -7.000e+00 -7.000e+00 -7.000e+00 -7.000e+00 -7.000e+00 -7.000e+00 -7.000e+00 -7.000e+00 -7.000e+00 -7.000e+00 -7.000e+00 -1.700e+01 -7.000e+00 -7.000e+00 -7.000e+00 -7.000e+00 -7.000e+00 -7.000e+00 -7.000e+00 -7.000e+00 -7.000e+00 -7.000e+00 -7.000e+00 -7.000e+00 -7.000e+00 -7.000e+00 -7.000e+00 -7.000e+00 -7.000e+00 -7.000e+00 -7.000e+00 -7.000e+00 -7.000e+00 -7.000e+00 -7.000e+00 -7.000e+00 -7.000e+00 -7.000e+00 -7.000e+00 -7.000e+00 -7.000e+00 -7.000e+00 -7.000e+00 -7.000e+00 -7.000e+00 -7.000e+00 -7.000e+00 -7.000e+00 -7.000e+00 -7.000e+00 -7.000e+00 -7.000e+00 -7.000e+00 -7.000e+00 -7.000e+00 -7.000e+00 -7.000e+00 -7.000e+00 -7.000e+00 -7.000e+00 -7.000e+00 -7.000e+00 -7.000e+00 -7.000e+00 -7.000e+00 -7.000e+00 -1.700e+01 -1.700e+01 -1.700e+01 -1.700e+01 -7.000e+00 -7.000e+00 -7.000e+00 -7.000e+00 -7.000e+00 -7.000e+00 -7.000e+00 -7.000e+00 -7.000e+00 -7.000e+00 -7.000e+00 -7.000e+00 -7.000e+00 -7.000e+00 -7.000e+00 -7.000e+00 -7.000e+00 -7.000e+00 -7.000e+00 -7.000e+00 -7.000e+00 -7.000e+00 -7.000e+00 -1.700e+01 -1.700e+01 -7.000e+00 -7.000e+00 -7.000e+00 -7.000e+00 -7.000e+00 -7.000e+00 -7.000e+00 -7.000e+00 -7.000e+00 -7.000e+00 -7.000e+00 -7.000e+00 -7.000e+00 -7.000e+00 -7.000e+00 -7.000e+00 -1.700e+01 -1.700e+01 -1.700e+01 -7.000e+00 -7.000e+00 -7.000e+00 -7.000e+00 -7.000e+00 -7.000e+00 -7.000e+00 -7.000e+00 -7.000e+00 -7.000e+00 -7.000e+00 -7.000e+00 -7.000e+00 -7.000e+00 -7.000e+00 -7.000e+00 -7.000e+00 -1.700e+01 -1.700e+01 -1.700e+01 -7.000e+00 -7.000e+00 -7.000e+00 -7.000e+00 -7.000e+00 -7.000e+00 -7.000e+00 -7.000e+00 -7.000e+00 -1.700e+01 -1.700e+01 -7.000e+00 -7.000e+00 -7.000e+00 -7.000e+00 -7.000e+00 -7.000e+00 -7.000e+00 -1.700e+01 -1.700e+01 -1.700e+01 -7.000e+00 -7.000e+00 -7.000e+00 -7.000e+00 -7.000e+00 -7.000e+00 -7.000e+00 -7.000e+00 -1.700e+01 -1.700e+01 -1.700e+01 -7.000e+00 -7.000e+00 -7.000e+00 -7.000e+00 -7.000e+00 -7.000e+00 -7.000e+00 -1.700e+01 -1.700e+01 -1.700e+01 -1.700e+01 -7.000e+00 -7.000e+00 -7.000e+00 -7.000e+00 -7.000e+00 -7.000e+00 -7.000e+00 -1.700e+01 -7.000e+00 -7.000e+00 -7.000e+00 -7.000e+00 -7.000e+00 -7.000e+00 -1.700e+01 -1.700e+01 -1.700e+01 -1.700e+01 -7.000e+00 -7.000e+00 -7.000e+00 -7.000e+00 -7.000e+00 -7.000e+00 -7.000e+00 -7.000e+00 -1.700e+01 -1.700e+01 -7.000e+00 -7.000e+00 -7.000e+00 -7.000e+00