<?xml version="1.0"?>
<VTKFile type="UnstructuredGrid" version="0.1" byte_order="LittleEndian">
   <UnstructuredGrid>
      <Piece NumberOfPoints="4880" NumberOfCells="352">
         <Points>
            <DataArray type="Float32" Name="Position" NumberOfComponents="3" format="ascii">
0.125	-4.999	0.064
0.132	-4.996	0.069
0.138	-4.999	0.075
0.142	-5.006	0.079
0.142	-5.016	0.079
0.138	-5.023	0.075
0.131	-5.026	0.069
0.124	-5.023	0.064
0.120	-5.015	0.060
0.121	-5.006	0.060
0.277	-5.002	-0.117
0.283	-4.999	-0.112
0.290	-5.002	-0.106
0.294	-5.010	-0.102
0.294	-5.019	-0.102
0.290	-5.027	-0.106
0.283	-5.029	-0.111
0.276	-5.026	-0.117
0.272	-5.019	-0.121
0.272	-5.010	-0.121
0.256	-5.026	0.131
0.263	-5.023	0.137
0.269	-5.026	0.143
0.273	-5.034	0.147
0.273	-5.043	0.147
0.268	-5.051	0.143
0.262	-5.053	0.137
0.255	-5.050	0.131
0.252	-5.043	0.127
0.252	-5.034	0.127
0.358	-5.044	0.034
0.366	-5.044	0.038
0.376	-5.044	0.036
0.382	-5.044	0.030
0.384	-5.044	0.021
0.379	-5.044	0.013
0.371	-5.044	0.008
0.362	-5.044	0.010
0.355	-5.044	0.016
0.354	-5.044	0.025
0.400	-5.064	0.190
0.398	-5.057	0.195
0.394	-5.055	0.203
0.390	-5.059	0.211
0.387	-5.067	0.215
0.387	-5.076	0.214
0.390	-5.083	0.209
0.394	-5.085	0.200
0.398	-5.082	0.193
0.400	-5.074	0.189
0.547	-5.070	0.263
0.544	-5.063	0.269
0.540	-5.060	0.277
0.536	-5.064	0.284
0.534	-5.072	0.289
0.534	-5.081	0.288
0.537	-5.088	0.282
0.541	-5.090	0.274
0.545	-5.087	0.267
0.547	-5.079	0.262
0.531	-5.105	0.252
0.528	-5.097	0.258
0.524	-5.095	0.266
0.520	-5.099	0.274
0.518	-5.106	0.278
0.517	-5.116	0.277
0.520	-5.123	0.271
0.524	-5.125	0.263
0.528	-5.122	0.256
0.530	-5.114	0.252
0.647	-5.107	0.317
0.647	-5.103	0.325
0.647	-5.105	0.334
0.647	-5.111	0.341
0.647	-5.120	0.342
0.647	-5.129	0.338
0.647	-5.133	0.330
0.647	-5.131	0.321
0.647	-5.125	0.314
0.647	-5.116	0.313
0.657	-5.152	0.316
0.654	-5.146	0.321
0.650	-5.144	0.330
0.646	-5.148	0.337
0.644	-5.156	0.341
0.645	-5.165	0.340
0.648	-5.172	0.335
0.652	-5.173	0.326
0.655	-5.170	0.319
0.657	-5.162	0.315
0.743	-5.152	0.358
0.740	-5.146	0.364
0.736	-5.144	0.372
0.732	-5.148	0.379
0.730	-5.156	0.383
0.731	-5.165	0.382
0.734	-5.172	0.377
0.738	-5.173	0.369
0.741	-5.170	0.361
0.743	-5.162	0.357
0.770	-5.200	0.385
0.777	-5.197	0.390
0.784	-5.200	0.396
0.788	-5.208	0.400
0.787	-5.217	0.400
0.782	-5.224	0.398
0.775	-5.227	0.392
0.768	-5.224	0.387
0.765	-5.216	0.382
0.765	-5.207	0.382
0.832	-5.213	0.311
0.832	-5.208	0.319
0.832	-5.210	0.328
0.832	-5.216	0.335
0.832	-5.226	0.336
0.832	-5.234	0.332
0.832	-5.238	0.324
0.832	-5.237	0.315
0.832	-5.230	0.308
0.832	-5.221	0.307
0.909	-5.283	0.454
0.913	-5.275	0.456
0.912	-5.266	0.457
0.905	-5.259	0.456
0.896	-5.258	0.455
0.888	-5.261	0.452
0.884	-5.269	0.451
0.885	-5.279	0.450
0.891	-5.285	0.450
0.900	-5.287	0.452
0.893	-5.292	0.525
0.898	-5.284	0.527
0.896	-5.275	0.528
0.890	-5.268	0.528
0.881	-5.266	0.526
0.873	-5.270	0.524
0.869	-5.278	0.522
0.870	-5.287	0.521
0.876	-5.294	0.522
0.885	-5.296	0.523
1.025	-5.329	0.503
1.022	-5.323	0.509
1.019	-5.321	0.517
1.015	-5.325	0.525
1.013	-5.333	0.528
1.014	-5.342	0.527
1.016	-5.349	0.521
1.020	-5.351	0.513
1.024	-5.347	0.506
1.026	-5.338	0.502
1.067	-5.329	0.522
1.064	-5.323	0.528
1.060	-5.321	0.536
1.057	-5.325	0.544
1.055	-5.333	0.548
1.055	-5.343	0.546
1.058	-5.349	0.540
1.062	-5.351	0.532
1.065	-5.347	0.525
1.067	-5.339	0.521
1.132	-5.393	0.570
1.139	-5.390	0.575
1.145	-5.393	0.581
1.148	-5.401	0.586
1.148	-5.410	0.586
1.143	-5.417	0.583
1.136	-5.420	0.578
1.129	-5.417	0.572
1.126	-5.409	0.568
1.127	-5.400	0.567
1.144	-5.395	0.556
1.151	-5.392	0.561
1.157	-5.395	0.567
1.161	-5.403	0.571
1.160	-5.412	0.572
1.155	-5.420	0.569
1.148	-5.422	0.564
1.142	-5.419	0.558
1.138	-5.412	0.553
1.139	-5.402	0.553
0.017	-4.979	-0.028
0.015	-4.963	-0.014
0.008	-4.957	0.004
-0.003	-4.964	0.021
-0.012	-4.980	0.030
-0.017	-5.001	0.028
-0.015	-5.017	0.014
-0.007	-5.023	-0.004
0.003	-5.016	-0.021
0.012	-5.000	-0.030
0.834	-5.220	0.384
0.834	-5.204	0.397
0.827	-5.197	0.416
0.816	-5.203	0.433
0.805	-5.219	0.442
0.798	-5.238	0.438
0.798	-5.254	0.425
0.804	-5.261	0.406
0.816	-5.255	0.389
0.827	-5.239	0.381
1.406	-5.568	0.684
1.409	-5.553	0.699
1.403	-5.546	0.718
1.391	-5.551	0.735
1.378	-5.565	0.742
1.368	-5.583	0.738
1.365	-5.598	0.724
1.370	-5.604	0.705
1.382	-5.600	0.688
1.396	-5.586	0.680
1.909	-5.957	0.943
1.913	-5.943	0.958
1.909	-5.937	0.978
1.897	-5.942	0.994
1.882	-5.955	1.002
1.870	-5.972	0.997
1.866	-5.986	0.982
1.871	-5.991	0.962
1.883	-5.987	0.945
1.897	-5.974	0.938
2.472	-6.465	1.206
2.477	-6.453	1.221
2.473	-6.448	1.241
2.461	-6.452	1.258
2.446	-6.465	1.265
2.433	-6.481	1.260
2.428	-6.494	1.244
2.432	-6.499	1.224
2.444	-6.494	1.207
2.459	-6.481	1.200
2.879	-6.874	1.372
2.885	-6.862	1.388
2.881	-6.857	1.408
2.870	-6.862	1.425
2.854	-6.875	1.432
2.841	-6.890	1.426
2.835	-6.902	1.410
2.838	-6.907	1.390
2.850	-6.902	1.373
2.865	-6.889	1.366
3.313	-7.332	1.535
3.320	-7.320	1.551
3.317	-7.316	1.572
3.305	-7.322	1.588
3.289	-7.334	1.595
3.276	-7.349	1.589
3.269	-7.360	1.573
3.272	-7.365	1.552
3.284	-7.359	1.536
3.300	-7.347	1.529
3.780	-7.833	1.701
3.787	-7.821	1.717
3.785	-7.818	1.738
3.773	-7.823	1.754
3.757	-7.835	1.761
3.743	-7.850	1.755
3.736	-7.861	1.739
3.739	-7.864	1.718
3.751	-7.859	1.701
3.766	-7.847	1.695
4.261	-8.397	1.849
4.269	-8.386	1.866
4.267	-8.383	1.886
4.255	-8.389	1.903
4.239	-8.401	1.910
4.224	-8.414	1.904
4.217	-8.425	1.887
4.219	-8.428	1.866
4.231	-8.422	1.850
4.247	-8.411	1.843
4.754	-8.999	1.989
4.762	-8.989	2.006
4.760	-8.987	2.026
4.749	-8.992	2.043
4.733	-9.004	2.050
4.718	-9.017	2.043
4.710	-9.027	2.027
4.712	-9.030	2.006
4.723	-9.025	1.989
4.740	-9.013	1.983
5.256	-9.611	2.111
5.264	-9.601	2.128
5.262	-9.599	2.148
5.251	-9.604	2.165
5.234	-9.616	2.172
5.219	-9.629	2.165
5.211	-9.638	2.149
5.213	-9.641	2.128
5.224	-9.636	2.111
5.240	-9.624	2.105
5.723	-10.249	2.231
5.732	-10.241	2.248
5.730	-10.238	2.269
5.719	-10.244	2.286
5.702	-10.254	2.292
5.686	-10.267	2.286
5.677	-10.275	2.269
5.679	-10.277	2.248
5.690	-10.272	2.231
5.707	-10.261	2.225
6.160	-10.915	2.315
6.170	-10.907	2.332
6.168	-10.905	2.353
6.156	-10.910	2.369
6.139	-10.920	2.376
6.122	-10.931	2.369
6.113	-10.939	2.352
6.115	-10.941	2.331
6.126	-10.936	2.314
6.144	-10.926	2.308
6.360	-11.258	2.369
6.370	-11.250	2.386
6.368	-11.248	2.407
6.356	-11.253	2.424
6.338	-11.262	2.430
6.321	-11.273	2.423
6.312	-11.281	2.406
6.314	-11.283	2.385
6.326	-11.279	2.368
6.344	-11.269	2.362
0.058	-5.011	-0.121
0.058	-5.001	-0.123
0.062	-4.995	-0.128
0.067	-4.993	-0.135
0.073	-4.997	-0.141
0.076	-5.005	-0.144
0.076	-5.014	-0.143
0.073	-5.021	-0.137
0.067	-5.023	-0.130
0.062	-5.019	-0.124
-0.118	-5.034	-0.263
-0.118	-5.025	-0.264
-0.115	-5.018	-0.270
-0.109	-5.017	-0.277
-0.103	-5.021	-0.283
-0.100	-5.029	-0.286
-0.100	-5.038	-0.285
-0.104	-5.045	-0.279
-0.109	-5.046	-0.272
-0.115	-5.042	-0.266
0.122	-5.034	-0.254
0.123	-5.025	-0.256
0.128	-5.019	-0.262
0.134	-5.019	-0.269
0.139	-5.023	-0.274
0.142	-5.032	-0.277
0.141	-5.041	-0.275
0.137	-5.047	-0.269
0.131	-5.048	-0.262
0.125	-5.043	-0.257
-0.011	-5.046	-0.373
-0.010	-5.037	-0.375
-0.006	-5.031	-0.381
0.001	-5.030	-0.388
0.006	-5.035	-0.393
0.009	-5.043	-0.396
0.008	-5.052	-0.394
0.004	-5.058	-0.388
-0.003	-5.059	-0.381
-0.008	-5.054	-0.376
0.186	-5.065	-0.387
0.187	-5.056	-0.389
0.192	-5.050	-0.394
0.199	-5.050	-0.401
0.204	-5.055	-0.406
0.207	-5.064	-0.408
0.205	-5.073	-0.406
0.201	-5.078	-0.400
0.194	-5.079	-0.394
0.189	-5.073	-0.388
0.067	-5.074	-0.501
0.069	-5.065	-0.503
0.074	-5.060	-0.509
0.080	-5.060	-0.515
0.086	-5.065	-0.520
0.088	-5.074	-0.522
0.086	-5.083	-0.520
0.080	-5.088	-0.515
0.074	-5.088	-0.509
0.069	-5.083	-0.503
0.253	-5.098	-0.528
0.261	-5.095	-0.525
0.269	-5.098	-0.521
0.274	-5.105	-0.519
0.275	-5.114	-0.519
0.270	-5.122	-0.521
0.262	-5.125	-0.524
0.253	-5.122	-0.528
0.248	-5.115	-0.530
0.248	-5.106	-0.530
0.318	-5.101	-0.683
0.326	-5.098	-0.679
0.335	-5.101	-0.676
0.340	-5.108	-0.674
0.340	-5.118	-0.673
0.335	-5.125	-0.675
0.327	-5.128	-0.679
0.319	-5.125	-0.682
0.314	-5.118	-0.684
0.313	-5.109	-0.685
0.338	-5.168	-0.657
0.341	-5.167	-0.648
0.339	-5.166	-0.639
0.332	-5.165	-0.634
0.322	-5.164	-0.633
0.315	-5.164	-0.638
0.311	-5.165	-0.647
0.314	-5.166	-0.656
0.321	-5.168	-0.661
0.330	-5.168	-0.662
0.328	-5.297	-0.639
0.332	-5.296	-0.631
0.329	-5.294	-0.622
0.322	-5.293	-0.616
0.313	-5.292	-0.616
0.305	-5.293	-0.621
0.302	-5.293	-0.629
0.304	-5.295	-0.638
0.311	-5.296	-0.644
0.320	-5.297	-0.644
0.383	-5.213	-0.773
0.391	-5.210	-0.770
0.399	-5.213	-0.766
0.404	-5.221	-0.763
0.404	-5.230	-0.763
0.399	-5.237	-0.765
0.391	-5.240	-0.768
0.383	-5.238	-0.772
0.378	-5.230	-0.775
0.378	-5.221	-0.775
0.422	-5.218	-0.855
0.430	-5.215	-0.851
0.438	-5.218	-0.847
0.443	-5.225	-0.844
0.442	-5.234	-0.844
0.437	-5.242	-0.846
0.429	-5.245	-0.850
0.421	-5.242	-0.853
0.417	-5.234	-0.856
0.417	-5.225	-0.857
0.469	-5.295	-0.895
0.472	-5.293	-0.886
0.470	-5.291	-0.877
0.462	-5.289	-0.872
0.453	-5.289	-0.872
0.445	-5.289	-0.877
0.442	-5.291	-0.886
0.445	-5.294	-0.894
0.452	-5.295	-0.900
0.461	-5.296	-0.900
0.465	-5.357	-0.879
0.468	-5.355	-0.871
0.465	-5.353	-0.862
0.458	-5.351	-0.856
0.449	-5.350	-0.856
0.441	-5.351	-0.861
0.438	-5.353	-0.870
0.441	-5.355	-0.879
0.448	-5.357	-0.884
0.457	-5.358	-0.884
0.513	-5.363	-0.989
0.514	-5.354	-0.992
0.519	-5.349	-0.998
0.525	-5.349	-1.005
0.531	-5.354	-1.010
0.534	-5.362	-1.011
0.533	-5.371	-1.008
0.529	-5.377	-1.003
0.522	-5.377	-0.996
0.516	-5.372	-0.991
0.503	-5.380	-1.026
0.509	-5.373	-1.028
0.509	-5.364	-1.030
0.503	-5.357	-1.032
0.494	-5.354	-1.032
0.485	-5.357	-1.032
0.480	-5.364	-1.030
0.480	-5.373	-1.028
0.485	-5.380	-1.026
0.494	-5.383	-1.025
0.601	-5.439	-1.122
0.604	-5.437	-1.113
0.602	-5.435	-1.105
0.594	-5.433	-1.100
0.585	-5.432	-1.100
0.578	-5.433	-1.105
0.575	-5.435	-1.113
0.577	-5.437	-1.122
0.584	-5.439	-1.127
0.594	-5.440	-1.127
0.600	-5.458	-1.117
0.603	-5.456	-1.109
0.600	-5.453	-1.100
0.593	-5.451	-1.095
0.583	-5.450	-1.095
0.576	-5.451	-1.100
0.573	-5.453	-1.109
0.575	-5.455	-1.117
[...]
         <CellData>
           <DataArray type="Float32" Name="combinedRootClassID" NumberOfComponents="1" format="ascii">
 -1.300e+01 -1.300e+01 -1.300e+01 -1.300e+01 -1.300e+01 -1.300e+01 -1.300e+01 -1.300e+01 -1.300e+01 -5.000e+00 -5.000e+00 -5.000e+00 -5.000e+00 -5.000e+00 -5.000e+00 -5.000e+00 -5.000e+00 -5.000e+00 -5.000e+00 -5.000e+00 -5.000e+00 -5.000e+00 -1.300e+01 -1.300e+01 -1.300e+01 -1.300e+01 -1.300e+01 -1.300e+01 -1.300e+01 -1.300e+01 -1.300e+01 -5.000e+00 -5.000e+00 -5.000e+00 -5.000e+00 -5.000e+00 -5.000e+00 -5.000e+00 -5.000e+00 -5.000e+00 -5.000e+00 -5.000e+00 -5.000e+00 -5.000e+00 -1.300e+01 -1.300e+01 -1.300e+01 -1.300e+01 -1.300e+01 -1.300e+01 -1.300e+01 -1.300e+01 -1.300e+01 -5.000e+00 -5.000e+00 -5.000e+00 -5.000e+00 -5.000e+00 -5.000e+00 -5.000e+00 -5.000e+00 -5.000e+00 -5.000e+00 -5.000e+00 -5.000e+00 -5.000e+00 -1.300e+01 -1.300e+01 -1.300e+01 -1.300e+01 -1.300e+01 -1.300e+01 -1.300e+01 -1.300e+01 -1.300e+01 -5.000e+00 -5.000e+00 -5.000e+00 -5.000e+00 -5.000e+00 -5.000e+00 -5.000e+00 -5.000e+00 -5.000e+00 -5.000e+00 -5.000e+00 -5.000e+00 -5.000e+00 -1.100e+01 -1.100e+01 -1.100e+01 -1.100e+01 -1.100e+01 -1.100e+01 -1.100e+01 -1.100e+01 -1.100e+01 -1.100e+01 -1.100e+01 -1.100e+01 -2.000e+00 -2.000e+00 -2.000e+00 -2.000e+00 -2.000e+00 -2.000e+00 -2.000e+00 -2.000e+00 -2.000e+00 -2.000e+00 -2.000e+00 -2.000e+00 -7.000e+00 -7.000e+00 -7.000e+00 -7.000e+00 -7.000e+00 -7.000e+00 -7.000e+00 -7.000e+00 -7.000e+00 -7.000e+00 -7.000e+00 -7.000e+00 -7.000e+00 -7.000e+00 -7.000e+00 -7.000e+00 -7.000e+00 -7.000e+00 -7.000e+00 -7.000e+00 -7.000e+00 -7.000e+00 -7.000e+00 -7.000e+00 -7.000e+00 -7.000e+00 -7.000e+00 -7.000e+00 -7.000e+00 -7.000e+00 -7.000e+00 -7.000e+00 -7.000e+00 -7.000e+00 -7.000e+00 -7.000e+00 -7.000e+00 -7.000e+00 -7.000e+00 -7.000e+00 -7.000e+00 -7.000e+00 -7.000e+00 -7.000e+00 -7.000e+00 -7.000e+00 -7.000e+00 -7.000e+00 -7.000e+00 -7.000e+00 -7.000e+00 -7.000e+00 -7.000e+00 -7.000e+00 -7.000e+00 -7.000e+00 -7.000e+00 -7.000e+00 -7.000e+00 -7.000e+00 -7.000e+00 -7.000e+00 -7.000e+00 -7.000e+00 -7.000e+00 -7.000e+00 -7.000e+00 -7.000e+00 -7.000e+00 -7.000e+00 -7.000e+00 -7.000e+00 -7.000e+00 -7.000e+00 -7.000e+00 -7.000e+00 -7.000e+00 -7.000e+00 -7.000e+00 -7.000e+00 -7.000e+00 -7.000e+00 -7.000e+00 -7.000e+00 -7.000e+00 -7.000e+00 -7.000e+00 -7.000e+00 -7.000e+00 -7.000e+00 -7.000e+00 -7.000e+00 -7.000e+00 -7.000e+00 -7.000e+00 -7.000e+00 -7.000e+00 -7.000e+00 -7.000e+00 -7.000e+00 -7.000e+00 -7.000e+00 -7.000e+00 -7.000e+00 -7.000e+00 -7.000e+00 -7.000e+00 -7.000e+00 -7.000e+00 -7.000e+00 -7.000e+00 -7.000e+00 -7.000e+00 -7.000e+00 -7.000e+00 -7.000e+00 -7.000e+00 -7.000e+00 -7.000e+00 -7.000e+00 -7.000e+00 -7.000e+00 -7.000e+00 -7.000e+00 -7.000e+00 -7.000e+00 -7.000e+00 -7.000e+00 -7.000e+00 -7.000e+00 -7.000e+00 -7.000e+00 -7.000e+00 -7.000e+00 -7.000e+00 -7.000e+00 -7.000e+00 -7.000e+00 -7.000e+00 -7.000e+00 -7.000e+00 -7.000e+00 -7.000e+00 -7.000e+00 -7.000e+00 -7.000e+00 -7.000e+00 -7.000e+00 -7.000e+00 -7.000e+00 -7.000e+00 -7.000e+00 -7.000e+00 -7.000e+00 -7.000e+00 -7.000e+00 -7.000e+00 -7.000e+00 -7.000e+00 -7.000e+00 -7.000e+00 -7.000e+00 -7.000e+00 -7.000e+00 -7.000e+00 -7.000e+00 -7.000e+00 -7.000e+00 -7.000e+00 -7.000e+00 -7.000e+00 -7.000e+00 -7.000e+00 -7.000e+00 -7.000e+00 -7.000e+00 -7.000e+00 -7.000e+00 -7.000e+00 -7.000e+00 -7.000e+00 -7.000e+00 -7.000e+00 -7.000e+00 -7.000e+00 -7.000e+00 -7.000e+00 -7.000e+00 -7.000e+00 -7.000e+00 -7.000e+00 -7.000e+00 -7.000e+00 -7.000e+00 -7.000e+00 -9.000e+00 -9.000e+00 -9.000e+00 -9.000e+00 -9.000e+00 -9.000e+00 -4.000e+00 -4.000e+00 -4.000e+00 -4.000e+00 -4.000e+00 -4.000e+00 -4.000e+00 -4.000e+00 -4.000e+00 -4.000e+00 -4.000e+00 -4.000e+00 -4.000e+00 -4.000e+00 -4.000e+00 -4.000e+00 -4.000e+00 -4.000e+00 -4.000e+00 -4.000e+00 -4.000e+00 -4.000e+00 -4.000e+00 -4.000e+00 -4.000e+00 -4.000e+00 -4.000e+00 -4.000e+00 -4.000e+00 -4.000e+00 -4.000e+00 -4.000e+00 -4.000e+00 -4.000e+00 -4.000e+00 -4.000e+00 -4.000e+00 -4.000e+00 -4.000e+00
           </DataArray>
           <DataArray type="Float32" Name="nitrate/minimalNutrientConcentration" NumberOfComponents="1" format="ascii">
 6.000e+02 6.000e+02 6.000e+02 6.000e+02 6.000e+02 6.000e+02 6.000e+02 6.000e+02 6.000e+02 6.000e+02 6.000e+02 6.000e+02 6.000e+02 6.000e+02 6.000e+02 6.000e+02 6.000e+02 6.000e+02 6.000e+02 6.000e+02 6.000e+02 6.000e+02 6.000e+02 6.000e+02 6.000e+02 6.000e+02 6.000e+02 6.000e+02 6.000e+02 6.000e+02 6.000e+02 6.000e+02 6.000e+02 6.000e+02 6.000e+02 6.000e+02 6.000e+02 6.000e+02 6.000e+02 6.000e+02 6.000e+02 6.000e+02 6.000e+02 6.000e+02 6.000e+02 6.000e+02 6.000e+02 6.000e+02 6.000e+02 6.000e+02 6.000e+02 6.000e+02 6.000e+02 6.000e+02 6.000e+02 6.000e+02 6.000e+02 6.000e+02 6.000e+02 6.000e+02 6.000e+02 6.000e+02 6.000e+02 6.000e+02 6.000e+02 6.000e+02 6.000e+02 6.000e+02 6.000e+02 6.000e+02 6.000e+02 6.000e+02 6.000e+02 6.000e+02 6.000e+02 6.000e+02 6.000e+02 6.000e+02 6.000e+02 6.000e+02 6.000e+02 6.000e+02 6.000e+02 6.000e+02 6.000e+02 6.000e+02 6.000e+02 6.000e+02 6.000e+02 6.000e+02 6.000e+02 6.000e+02 6.000e+02 6.000e+02 6.000e+02 6.000e+02 6.000e+02 6.000e+02 6.000e+02 6.000e+02 6.000e+02 6.000e+02 6.000e+02 6.000e+02 6.000e+02 6.000e+02 6.000e+02 6.000e+02 6.000e+02 6.000e+02 6.000e+02 6.000e+02 6.000e+02 6.000e+02 6.000e+02 6.000e+02 6.000e+02 6.000e+02 6.000e+02 6.000e+02 6.000e+02 6.000e+02 6.000e+02 6.000e+02 6.000e+02 6.000e+02 6.000e+02 6.000e+02 6.000e+02 6.000e+02 6.000e+02 6.000e+02 6.000e+02 6.000e+02 6.000e+02 6.000e+02 6.000e+02 6.000e+02 6.000e+02 6.000e+02 6.000e+02 6.000e+02 6.000e+02 6.000e+02 6.000e+02 6.000e+02 6.000e+02 6.000e+02 6.000e+02 6.000e+02 6.000e+02 6.000e+02 6.000e+02 6.000e+02 6.000e+02 6.000e+02 6.000e+02 6.000e+02 6.000e+02 6.000e+02 6.000e+02 6.000e+02 6.000e+02 6.000e+02 6.000e+02 6.000e+02 6.000e+02 6.000e+02 6.000e+02 6.000e+02 6.000e+02 6.000e+02 6.000e+02 6.000e+02 6.000e+02 6.000e+02 6.000e+02 6.000e+02 6.000e+02 6.000e+02 6.000e+02 6.000e+02 6.000e+02 6.000e+02 6.000e+02 6.000e+02 6.000e+02 6.000e+02 6.000e+02 6.000e+02 6.000e+02 6.000e+02 6.000e+02 6.000e+02 6.000e+02 6.000e+02 6.000e+02 6.000e+02 6.000e+02 6.000e+02 6.000e+02 6.000e+02 6.000e+02 6.000e+02 6.000e+02 6.000e+02 6.000e+02 6.000e+02 6.000e+02 6.000e+02 6.000e+02 6.000e+02 6.000e+02 6.000e+02 6.000e+02 6.000e+02 6.000e+02 6.000e+02 6.000e+02 6.000e+02 6.000e+02 6.000e+02 6.000e+02 6.000e+02 6.000e+02 6.000e+02 6.000e+02 6.000e+02 6.000e+02 6.000e+02 6.000e+02 6.000e+02 6.000e+02 6.000e+02 6.000e+02 6.000e+02 6.000e+02 6.000e+02 6.000e+02 6.000e+02 6.000e+02 6.000e+02 6.000e+02 6.000e+02 6.000e+02 6.000e+02 6.000e+02 6.000e+02 6.000e+02 6.000e+02 6.000e+02 6.000e+02 6.000e+02 6.000e+02 6.000e+02 6.000e+02 6.000e+02 6.000e+02 6.000e+02 6.000e+02 6.000e+02 6.000e+02 6.000e+02 6.000e+02 6.000e+02 6.000e+02 6.000e+02 6.000e+02 6.000e+02 6.000e+02 6.000e+02 6.000e+02 6.000e+02 6.000e+02 6.000e+02 6.000e+02 6.000e+02 6.000e+02 6.000e+02 6.000e+02 6.000e+02 6.000e+02 6.000e+02 6.000e+02 6.000e+02 6.000e+02 6.000e+02 6.000e+02 6.000e+02 6.000e+02 6.000e+02 6.000e+02 6.000e+02 6.000e+02 6.000e+02 6.000e+02 6.000e+02 6.000e+02 6.000e+02 6.000e+02 6.000e+02 6.000e+02 6.000e+02 6.000e+02 6.000e+02 6.000e+02 6.000e+02 6.000e+02 6.000e+02 6.000e+02 6.000e+02 6.000e+02 6.000e+02 6.000e+02 6.000e+02 6.000e+02 6.000e+02 6.000e+02 6.000e+02 6.000e+02 6.000e+02 6.000e+02 6.000e+02 6.000e+02 6.000e+02 6.000e+02 6.000e+02 6.000e+02 6.000e+02 6.000e+02 6.000e+02 6.000e+02 6.000e+02 6.000e+02 6.000e+02 6.000e+02 6.000e+02 6.000e+02 6.000e+02 6.000e+02 6.000e+02 6.000e+02 6.000e+02 6.000e+02 6.000e+02 6.000e+02 6.000e+02 6.000e+02 6.000e+02 6.000e+02 6.000e+02 6.000e+02
           </DataArray>
           <DataArray type="Float32" Name="nitrate/optimalNutrientConcentration" NumberOfComponents="1" format="ascii">
 1.200e+03 1.200e+03 1.200e+03 1.200e+03 1.200e+03 1.200e+03 1.200e+03 1.200e+03 1.200e+03 1.200e+03 1.200e+03 1.200e+03 1.200e+03 1.200e+03 1.200e+03 1.200e+03 1.200e+03 1.200e+03 1.200e+03 1.200e+03 1.200e+03 1.200e+03 1.200e+03 1.200e+03 1.200e+03 1.200e+03 1.200e+03 1.200e+03 1.200e+03 1.200e+03 1.200e+03 1.200e+03 1.200e+03 1.200e+03 1.200e+03 1.200e+03 1.200e+03 1.200e+03 1.200e+03 1.200e+03 1.200e+03 1.200e+03 1.200e+03 1.200e+03 1.200e+03 1.200e+03 1.200e+03 1.200e+03 1.200e+03 1.200e+03 1.200e+03 1.200e+03 1.200e+03 1.200e+03 1.200e+03 1.200e+03 1.200e+03 1.200e+03 1.200e+03 1.200e+03 1.200e+03 1.200e+03 1.200e+03 1.200e+03 1.200e+03 1.200e+03 1.200e+03 1.200e+03 1.200e+03 1.200e+03 1.200e+03 1.200e+03 1.200e+03 1.200e+03 1.200e+03 1.200e+03 1.200e+03 1.200e+03 1.200e+03 1.200e+03 1.200e+03 1.200e+03 1.200e+03 1.200e+03 1.200e+03 1.200e+03 1.200e+03 1.200e+03 1.200e+03 1.200e+03 1.200e+03 1.200e+03 1.200e+03 1.200e+03 1.200e+03 1.200e+03 1.200e+03 1.200e+03 1.200e+03 1.200e+03 1.200e+03 1.200e+03 1.200e+03 1.200e+03 1.200e+03 1.200e+03 1.200e+03 1.200e+03 1.200e+03 1.200e+03 1.200e+03 1.200e+03 1.200e+03 1.200e+03 1.200e+03 1.200e+03 1.200e+03 1.200e+03 1.200e+03 1.200e+03 1.200e+03 1.200e+03 1.200e+03 1.200e+03 1.200e+03 1.200e+03 1.200e+03 1.200e+03 1.200e+03 1.200e+03 1.200e+03 1.200e+03 1.200e+03 1.200e+03 1.200e+03 1.200e+03 1.200e+03 1.200e+03 1.200e+03 1.200e+03 1.200e+03 1.200e+03 1.200e+03 1.200e+03 1.200e+03 1.200e+03 1.200e+03 1.200e+03 1.200e+03 1.200e+03 1.200e+03 1.200e+03 1.200e+03 1.200e+03 1.200e+03 1.200e+03 1.200e+03 1.200e+03 1.200e+03 1.200e+03 1.200e+03 1.200e+03 1.200e+03 1.200e+03 1.200e+03 1.200e+03 1.200e+03 1.200e+03 1.200e+03 1.200e+03 1.200e+03 1.200e+03 1.200e+03 1.200e+03 1.200e+03 1.200e+03 1.200e+03 1.200e+03 1.200e+03 1.200e+03 1.200e+03 1.200e+03 1.200e+03 1.200e+03 1.200e+03 1.200e+03 1.200e+03 1.200e+03 1.200e+03 1.200e+03 1.200e+03 1.200e+03 1.200e+03 1.200e+03 1.200e+03 1.200e+03 1.200e+03 1.200e+03 1.200e+03 1.200e+03 1.200e+03 1.200e+03 1.200e+03 1.200e+03 1.200e+03 1.200e+03 1.200e+03 1.200e+03 1.200e+03 1.200e+03 1.200e+03 1.200e+03 1.200e+03 1.200e+03 1.200e+03 1.200e+03 1.200e+03 1.200e+03 1.200e+03 1.200e+03 1.200e+03 1.200e+03 1.200e+03 1.200e+03 1.200e+03 1.200e+03 1.200e+03 1.200e+03 1.200e+03 1.200e+03 1.200e+03 1.200e+03 1.200e+03 1.200e+03 1.200e+03 1.200e+03 1.200e+03 1.200e+03 1.200e+03 1.200e+03 1.200e+03 1.200e+03 1.200e+03 1.200e+03 1.200e+03 1.200e+03 1.200e+03 1.200e+03 1.200e+03 1.200e+03 1.200e+03 1.200e+03 1.200e+03 1.200e+03 1.200e+03 1.200e+03 1.200e+03 1.200e+03 1.200e+03 1.200e+03 1.200e+03 1.200e+03 1.200e+03 1.200e+03 1.200e+03 1.200e+03 1.200e+03 1.200e+03 1.200e+03 1.200e+03 1.200e+03 1.200e+03 1.200e+03 1.200e+03 1.200e+03 1.200e+03 1.200e+03 1.200e+03 1.200e+03 1.200e+03 1.200e+03 1.200e+03 1.200e+03 1.200e+03 1.200e+03 1.200e+03 1.200e+03 1.200e+03 1.200e+03 1.200e+03 1.200e+03 1.200e+03 1.200e+03 1.200e+03 1.200e+03 1.200e+03 1.200e+03 1.200e+03 1.200e+03 1.200e+03 1.200e+03 1.200e+03 1.200e+03 1.200e+03 1.200e+03 1.200e+03 1.200e+03 1.200e+03 1.200e+03 1.200e+03 1.200e+03 1.200e+03 1.200e+03 1.200e+03 1.200e+03 1.200e+03 1.200e+03 1.200e+03 1.200e+03 1.200e+03 1.200e+03 1.200e+03 1.200e+03 1.200e+03 1.200e+03 1.200e+03 1.200e+03 1.200e+03 1.200e+03 1.200e+03 1.200e+03 1.200e+03 1.200e+03 1.200e+03 1.200e+03 1.200e+03 1.200e+03 1.200e+03 1.200e+03 1.200e+03 1.200e+03 1.200e+03 1.200e+03 1.200e+03 1.200e+03 1.200e+03 1.200e+03 1.200e+03 1.200e+03 1.200e+03 1.200e+03 1.200e+03
           </DataArray>
           <DataArray type="Float32" Name="nitrate/radiusDepletionZone" NumberOfComponents="1" format="ascii">
 1.500e-02 1.500e-02 1.500e-02 1.500e-02 1.500e-02 1.500e-02 1.500e-02 1.500e-02 1.500e-02 3.409e-02 3.401e-02 1.497e+00 1.422e+00 1.190e+00 9.947e-01 9.650e-01 7.874e-01 6.199e-01 6.029e-01 4.492e-01 3.034e-01 1.651e-01 1.500e-02 1.500e-02 1.500e-02 1.500e-02 1.500e-02 1.500e-02 1.500e-02 1.500e-02 1.500e-02 3.409e-02 3.401e-02 1.497e+00 1.422e+00 1.190e+00 9.947e-01 9.650e-01 7.874e-01 6.199e-01 6.029e-01 4.492e-01 3.034e-01 1.651e-01 1.500e-02 1.500e-02 1.500e-02 1.500e-02 1.500e-02 1.500e-02 1.500e-02 1.500e-02 1.500e-02 3.409e-02 3.401e-02 1.588e+00 1.422e+00 1.190e+00 9.947e-01 9.650e-01 7.874e-01 6.199e-01 6.029e-01 4.492e-01 3.034e-01 1.651e-01 1.500e-02 1.500e-02 1.500e-02 1.500e-02 1.500e-02 1.500e-02 1.500e-02 1.500e-02 1.500e-02 3.409e-02 3.401e-02 1.501e+00 1.422e+00 1.190e+00 9.947e-01 9.650e-01 7.874e-01 6.199e-01 6.029e-01 4.492e-01 3.034e-01 1.651e-01 3.400e-02 3.400e-02 5.158e-01 3.400e-02 3.400e-02 3.617e-01 3.400e-02 3.400e-02 2.275e-01 3.400e-02 3.400e-02 4.833e-01 2.800e+00 3.700e+00 2.666e+01 2.132e+01 1.776e+01 1.448e+01 1.267e+01 1.126e+01 1.013e+01 2.076e-01 2.068e-01 2.055e-01 1.503e-02 1.502e-02 9.098e-01 2.952e-01 1.503e-02 1.502e-02 1.285e+00 1.500e-02 1.503e-02 1.501e-02 1.279e+00 2.478e-01 1.503e-02 1.501e-02 6.342e-01 1.496e-01 1.502e-02 1.501e-02 1.500e-02 1.502e-02 1.501e-02 5.030e-01 1.502e-02 1.501e-02 6.386e-01 3.922e-01 1.502e-02 1.501e-02 3.746e-01 1.502e-02 1.501e-02 1.500e-02 1.502e-02 1.501e-02 5.189e-01 1.502e-02 1.501e-02 5.112e-01 1.502e-02 1.501e-02 5.034e-01 1.503e-02 1.501e-02 1.500e-02 1.502e-02 1.500e-02 3.036e-01 1.502e-02 1.501e-02 4.172e-01 1.502e-02 1.501e-02 4.452e-01 1.502e-02 1.500e-02 3.119e-01 1.502e-02 1.501e-02 4.221e-01 1.502e-02 1.500e-02 2.286e-01 1.502e-02 1.500e-02 3.119e-01 1.501e-02 1.500e-02 2.163e-01 1.501e-02 1.500e-02 3.192e-01 1.501e-02 1.500e-02 3.723e-01 1.503e-02 1.502e-02 1.241e+00 1.500e-02 1.501e-02 1.500e-02 1.294e-01 1.501e-02 1.500e-02 3.180e-01 1.501e-02 1.500e-02 1.501e-02 1.500e-02 2.041e-01 1.501e-02 1.500e-02 2.252e-01 1.501e-02 1.500e-02 2.142e-01 1.501e-02 1.500e-02 1.699e-01 1.501e-02 1.500e-02 1.501e-02 1.500e-02 1.501e-02 1.500e-02 1.503e-02 1.501e-02 3.421e-01 1.501e-02 1.500e-02 1.363e-01 1.501e-02 1.500e-02 1.501e-02 1.500e-02 1.501e-02 1.500e-02 1.501e-02 1.500e-02 1.501e-02 1.500e-02 1.501e-02 1.500e-02 1.501e-02 1.500e-02 1.501e-02 1.500e-02 1.500e-02 1.500e-02 1.503e-02 1.501e-02 4.595e-01 1.500e-02 1.500e-02 1.500e-02 1.500e-02 1.500e-02 1.500e-02 1.500e-02 1.500e-02 1.500e-02 1.500e-02 1.500e-02 1.500e-02 1.500e-02 1.500e-02 1.500e-02 1.500e-02 1.500e-02 1.500e-02 1.500e-02 1.500e-02 1.503e-02 1.501e-02 1.291e+00 1.500e-02 1.500e-02 1.500e-02 1.500e-02 1.500e-02 1.500e-02 1.500e-02 1.500e-02 1.500e-02 1.500e-02 1.500e-02 1.500e-02 1.503e-02 1.501e-02 7.177e-01 3.667e-01 1.500e-02 1.500e-02 1.500e-02 1.500e-02 1.500e-02 1.500e-02 1.500e-02 1.500e-02 1.500e-02 1.500e-02 1.503e-02 1.501e-02 4.595e-01 1.500e-02 1.500e-02 1.500e-02 1.500e-02 1.500e-02 1.500e-02 1.500e-02 1.500e-02 1.503e-02 1.501e-02 1.264e+00 1.500e-02 1.504e-02 1.501e-02 4.595e-01 1.516e-01 1.500e-02 1.500e-02 2.250e+00 5.316e+01 2.825e+01 2.118e+01 1.694e+01 1.325e+01 1.136e+01 9.933e+00 8.254e+00 7.427e+00 6.750e+00 5.756e+00 5.312e+00 4.562e+00 4.257e+00 3.990e+00 3.451e+00 3.259e+00 3.087e+00 2.674e+00 2.547e+00 2.430e+00 2.100e+00 2.012e+00 1.932e+00 1.857e+00 1.597e+00 1.540e+00 1.487e+00 1.265e+00 1.224e+00 1.024e+00 9.932e-01 9.639e-01 7.888e-01 6.235e-01 6.066e-01 4.548e-01 3.108e-01
           </DataArray>
           <DataArray type="Float32" Name="nitrate/rootSegmentMinimalNutrientContent" NumberOfComponents="1" format="ascii">
 9.419e-03 6.231e-03 6.551e-03 5.515e-03 3.817e-03 3.585e-03 2.929e-03 1.819e-03 7.488e-04 1.958e-01 1.504e-01 1.406e-01 1.646e-01 1.230e-01 1.337e-01 1.443e-01 1.550e-01 1.621e-01 1.639e-01 1.639e-01 1.639e-01 8.193e-02 9.078e-03 7.140e-03 6.611e-03 6.707e-03 5.187e-03 3.584e-03 2.534e-03 1.652e-03 7.563e-04 1.958e-01 1.504e-01 1.406e-01 1.646e-01 1.230e-01 1.337e-01 1.443e-01 1.550e-01 1.621e-01 1.639e-01 1.639e-01 1.639e-01 8.193e-02 7.024e-03 7.550e-03 5.426e-03 4.607e-03 4.678e-03 2.946e-03 1.957e-03 1.543e-03 8.100e-04 1.958e-01 1.504e-01 1.406e-01 1.646e-01 1.230e-01 1.337e-01 1.443e-01 1.550e-01 1.621e-01 1.639e-01 1.639e-01 1.639e-01 8.193e-02 7.961e-03 7.385e-03 5.374e-03 4.574e-03 4.631e-03 3.720e-03 2.317e-03 1.827e-03 9.442e-04 1.958e-01 1.504e-01 1.406e-01 1.646e-01 1.230e-01 1.337e-01 1.443e-01 1.550e-01 1.621e-01 1.639e-01 1.639e-01 1.639e-01 8.193e-02 1.396e-01 1.307e-01 1.733e-01 1.396e-01 1.307e-01 1.733e-01 1.396e-01 1.307e-01 1.733e-01 1.396e-01 1.307e-01 1.733e-01 8.134e+00 3.985e+00 4.604e+00 4.885e+00 4.861e+00 4.816e+00 4.773e+00 4.731e+00 4.378e+00 3.722e+00 5.499e+00 5.985e+00 3.483e-02 3.115e-02 3.110e-02 1.864e-02 3.458e-02 3.546e-02 3.540e-02 2.475e-02 3.185e-02 3.207e-02 3.203e-02 9.602e-03 3.152e-02 3.317e-02 3.312e-02 9.930e-03 3.265e-02 3.535e-02 2.647e-02 3.177e-02 3.269e-02 2.176e-02 3.079e-02 3.337e-02 3.332e-02 6.661e-03 3.500e-02 3.555e-02 2.071e-02 3.409e-02 3.592e-02 2.093e-02 3.322e-02 3.336e-02 3.332e-02 3.468e-02 3.006e-02 2.402e-02 3.148e-02 3.458e-02 3.453e-02 3.331e-02 3.494e-02 2.242e-02 3.517e-02 3.081e-02 7.696e-03 3.577e-02 3.176e-02 2.221e-02 3.132e-02 3.185e-02 2.546e-02 3.266e-02 3.433e-02 1.143e-02 3.202e-02 3.207e-02 2.243e-02 3.453e-02 3.583e-02 8.948e-03 3.409e-02 3.060e-02 1.529e-02 3.079e-02 3.153e-02 5.251e-03 3.571e-02 3.163e-02 1.264e-02 3.138e-02 3.182e-02 1.590e-02 3.343e-02 3.377e-02 3.371e-02 2.021e-02 3.195e-02 3.351e-02 2.790e-03 3.366e-02 3.362e-02 1.344e-02 3.213e-02 3.326e-02 3.469e-02 3.106e-02 6.209e-03 3.086e-02 3.169e-02 9.502e-03 3.151e-02 3.384e-02 1.014e-02 3.203e-02 3.239e-02 6.475e-03 3.354e-02 2.924e-02 3.479e-02 3.151e-02 3.455e-02 2.676e-02 3.199e-02 3.343e-02 3.337e-02 3.006e-02 3.271e-02 3.269e-03 3.558e-02 2.418e-02 3.592e-02 2.533e-02 3.749e-02 2.202e-02 3.584e-02 1.327e-02 3.754e-02 2.374e-02 3.132e-02 2.598e-02 3.195e-02 1.708e-02 3.336e-02 1.414e-02 3.474e-02 1.527e-02 3.546e-02 3.256e-02 2.709e-02 2.878e-02 2.900e-02 3.500e-02 1.215e-02 2.960e-02 1.953e-02 3.521e-02 9.048e-03 3.512e-02 2.651e-03 3.250e-02 1.323e-02 3.057e-02 1.301e-02 3.328e-02 1.001e-02 3.324e-02 2.878e-03 3.239e-02 2.912e-03 3.115e-02 3.236e-02 3.230e-02 1.614e-02 3.142e-02 3.393e-02 3.180e-02 3.229e-03 3.018e-02 2.715e-02 2.967e-02 2.741e-02 2.584e-02 2.453e-02 2.347e-02 2.962e-02 3.220e-02 3.215e-02 1.606e-02 1.978e-02 2.437e-02 1.780e-02 1.889e-02 1.954e-02 1.901e-02 1.461e-02 1.486e-02 1.327e-02 1.223e-02 3.279e-02 3.338e-02 2.777e-02 9.426e-03 8.737e-03 7.553e-03 5.973e-03 4.012e-03 3.664e-03 2.420e-03 6.974e-04 3.134e-02 3.351e-02 3.346e-02 1.337e-02 3.428e-02 2.810e-02 2.805e-02 1.868e-02 3.266e-02 4.287e-03 5.236e-01 2.558e-01 2.501e-01 2.445e-01 2.391e-01 2.338e-01 2.288e-01 2.240e-01 2.195e-01 2.151e-01 2.110e-01 2.071e-01 2.033e-01 1.998e-01 1.965e-01 1.934e-01 1.907e-01 1.883e-01 1.862e-01 1.845e-01 1.830e-01 1.815e-01 1.802e-01 1.789e-01 1.777e-01 1.766e-01 1.756e-01 1.746e-01 1.737e-01 1.729e-01 1.722e-01 1.716e-01 1.710e-01 1.705e-01 1.701e-01 1.697e-01 1.695e-01 1.693e-01 1.692e-01
           </DataArray>
           <DataArray type="Float32" Name="nitrate/rootSegmentNutrientUptake" NumberOfComponents="1" format="ascii">