<?xml version="1.0"?>
<VTKFile type="UnstructuredGrid" version="0.1" byte_order="LittleEndian">
   <UnstructuredGrid>
      <Piece NumberOfPoints="1600" NumberOfCells="111">
         <Points>
            <DataArray type="Float32" Name="Position" NumberOfComponents="3" format="ascii">
-0.027	-4.970	0.005
-0.013	-4.959	-0.007
0.005	-4.961	-0.017
0.021	-4.974	-0.021
0.029	-4.992	-0.017
0.026	-5.010	-0.007
0.013	-5.021	0.006
-0.006	-5.019	0.016
-0.022	-5.007	0.020
-0.030	-4.988	0.016
-0.473	-5.328	-0.743
-0.464	-5.315	-0.757
-0.447	-5.312	-0.769
-0.429	-5.320	-0.775
-0.416	-5.336	-0.772
-0.413	-5.354	-0.761
-0.422	-5.368	-0.747
-0.439	-5.371	-0.735
-0.457	-5.363	-0.730
-0.470	-5.346	-0.733
-0.769	-5.777	-1.245
-0.760	-5.766	-1.261
-0.743	-5.764	-1.272
-0.723	-5.772	-1.276
-0.710	-5.787	-1.269
-0.707	-5.803	-1.256
-0.716	-5.814	-1.241
-0.734	-5.816	-1.229
-0.753	-5.808	-1.226
-0.767	-5.793	-1.232
-0.983	-6.209	-1.739
-0.963	-6.213	-1.734
-0.951	-6.225	-1.722
-0.951	-6.240	-1.707
-0.963	-6.252	-1.695
-0.983	-6.257	-1.690
-1.003	-6.252	-1.695
-1.016	-6.240	-1.707
-1.016	-6.225	-1.722
-1.003	-6.213	-1.734
0.018	-5.017	0.009
0.020	-5.003	0.024
0.014	-4.983	0.029
0.003	-4.967	0.024
-0.009	-4.959	0.009
-0.018	-4.963	-0.010
-0.020	-4.977	-0.025
-0.015	-4.997	-0.031
-0.004	-5.014	-0.025
0.009	-5.021	-0.010
-0.731	-5.367	0.443
-0.730	-5.354	0.460
-0.737	-5.336	0.468
-0.750	-5.320	0.464
-0.763	-5.311	0.450
-0.772	-5.314	0.432
-0.773	-5.327	0.415
-0.766	-5.345	0.407
-0.753	-5.361	0.410
-0.740	-5.369	0.424
-1.238	-5.813	0.715
-1.238	-5.803	0.733
-1.246	-5.787	0.744
-1.261	-5.772	0.743
-1.275	-5.763	0.731
-1.285	-5.764	0.712
-1.285	-5.774	0.694
-1.276	-5.790	0.683
-1.262	-5.805	0.684
-1.247	-5.814	0.696
-1.704	-6.259	0.947
-1.704	-6.249	0.965
-1.713	-6.234	0.977
-1.728	-6.219	0.976
-1.743	-6.210	0.964
-1.752	-6.210	0.945
-1.752	-6.220	0.927
-1.743	-6.235	0.915
-1.728	-6.250	0.916
-1.714	-6.259	0.928
0.027	-4.998	-0.020
0.029	-4.978	-0.013
0.020	-4.963	-0.002
0.003	-4.958	0.010
-0.015	-4.965	0.018
-0.027	-4.982	0.018
-0.030	-5.002	0.012
-0.021	-5.017	0.001
-0.004	-5.022	-0.011
0.014	-5.015	-0.019
0.477	-5.300	0.750
0.480	-5.281	0.759
0.472	-5.266	0.771
0.455	-5.261	0.783
0.437	-5.269	0.790
0.423	-5.285	0.789
0.420	-5.304	0.781
0.429	-5.319	0.769
0.445	-5.323	0.757
0.464	-5.316	0.750
0.799	-5.654	1.304
0.803	-5.637	1.314
0.796	-5.623	1.328
0.779	-5.619	1.341
0.760	-5.625	1.346
0.746	-5.640	1.344
0.742	-5.658	1.333
0.750	-5.672	1.319
0.766	-5.676	1.307
0.785	-5.670	1.301
1.062	-6.032	1.802
1.072	-6.032	1.820
1.069	-6.032	1.841
1.054	-6.032	1.856
1.033	-6.032	1.859
1.014	-6.032	1.850
1.005	-6.032	1.831
1.008	-6.032	1.810
1.023	-6.032	1.795
1.044	-6.032	1.792
-0.004	-4.964	-0.023
0.005	-4.957	-0.005
0.012	-4.962	0.014
0.015	-4.978	0.027
0.011	-4.998	0.030
0.003	-5.016	0.022
-0.006	-5.023	0.004
-0.013	-5.018	-0.015
-0.015	-5.002	-0.029
-0.012	-4.982	-0.032
0.845	-5.167	-0.387
0.855	-5.160	-0.371
0.862	-5.164	-0.351
0.863	-5.180	-0.337
0.858	-5.200	-0.333
0.848	-5.217	-0.341
0.839	-5.224	-0.358
0.832	-5.220	-0.377
0.831	-5.204	-0.392
0.836	-5.184	-0.396
1.471	-5.439	-0.662
1.482	-5.432	-0.646
1.488	-5.437	-0.626
1.488	-5.451	-0.611
1.481	-5.470	-0.607
1.469	-5.487	-0.614
1.459	-5.494	-0.630
1.452	-5.489	-0.650
1.453	-5.475	-0.665
1.460	-5.456	-0.670
2.032	-5.744	-0.917
2.043	-5.737	-0.901
2.049	-5.742	-0.881
2.048	-5.756	-0.866
2.040	-5.775	-0.861
2.029	-5.791	-0.868
2.017	-5.798	-0.884
2.011	-5.794	-0.903
2.012	-5.779	-0.919
2.020	-5.760	-0.924
-0.149	-5.000	0.149
-0.033	-5.000	0.207
0.095	-4.999	0.187
0.187	-4.999	0.095
0.207	-5.000	-0.033
0.149	-5.000	-0.149
0.033	-5.000	-0.207
-0.095	-5.001	-0.187
-0.187	-5.001	-0.095
-0.207	-5.000	0.033
-0.149	-4.040	0.145
-0.034	-4.040	0.203
0.092	-4.040	0.182
0.183	-4.040	0.092
0.203	-4.040	-0.035
0.145	-4.040	-0.149
0.030	-4.040	-0.207
-0.097	-4.040	-0.187
-0.187	-4.040	-0.096
-0.207	-4.040	0.030
-0.148	-3.560	0.147
-0.034	-3.561	0.205
0.092	-3.561	0.185
0.183	-3.561	0.094
0.203	-3.561	-0.032
0.145	-3.560	-0.146
0.031	-3.560	-0.204
-0.096	-3.559	-0.184
-0.186	-3.559	-0.094
-0.206	-3.559	0.033
-0.144	-3.000	0.147
-0.030	-3.001	0.205
0.096	-3.001	0.185
0.186	-3.001	0.095
0.205	-3.001	-0.031
0.148	-3.000	-0.145
0.034	-2.999	-0.203
-0.092	-2.999	-0.183
-0.182	-2.999	-0.093
-0.202	-2.999	0.033
-0.142	-2.401	0.151
-0.029	-2.401	0.208
0.096	-2.401	0.188
0.186	-2.401	0.098
0.206	-2.400	-0.027
0.148	-2.400	-0.140
0.034	-2.399	-0.198
-0.091	-2.399	-0.178
-0.180	-2.399	-0.088
-0.200	-2.400	0.038
-0.140	-1.800	0.154
-0.027	-1.801	0.211
0.098	-1.801	0.191
0.187	-1.801	0.101
0.207	-1.800	-0.024
0.149	-1.800	-0.136
0.036	-1.799	-0.194
-0.089	-1.799	-0.174
-0.178	-1.799	-0.084
-0.198	-1.800	0.041
-0.140	-1.200	0.154
-0.027	-1.200	0.212
0.098	-1.200	0.192
0.187	-1.200	0.102
0.207	-1.200	-0.022
0.149	-1.200	-0.135
0.037	-1.200	-0.192
-0.088	-1.200	-0.172
-0.177	-1.200	-0.083
-0.197	-1.200	0.042
-0.141	-0.600	0.153
-0.029	-0.600	0.210
0.096	-0.600	0.191
0.185	-0.600	0.102
0.205	-0.601	-0.023
0.148	-0.600	-0.135
0.036	-0.600	-0.193
-0.089	-0.600	-0.173
-0.178	-0.600	-0.084
-0.198	-0.600	0.040
-0.137	0.001	0.153
-0.025	0.000	0.210
0.099	-0.000	0.191
0.188	-0.001	0.102
0.208	-0.001	-0.022
0.151	-0.001	-0.134
0.040	-0.001	-0.192
-0.085	-0.000	-0.172
-0.174	0.000	-0.084
-0.194	0.001	0.041
-0.135	0.561	0.150
-0.024	0.561	0.207
0.100	0.561	0.188
0.189	0.560	0.100
0.209	0.559	-0.024
0.153	0.559	-0.136
0.041	0.559	-0.194
-0.083	0.559	-0.175
-0.172	0.560	-0.086
-0.192	0.560	0.038
-0.134	1.040	0.147
-0.023	1.041	0.204
0.101	1.040	0.185
0.190	1.040	0.097
0.210	1.039	-0.027
0.153	1.039	-0.139
0.042	1.039	-0.196
-0.082	1.039	-0.177
-0.171	1.040	-0.088
-0.191	1.040	0.035
-0.133	1.760	0.146
-0.022	1.760	0.203
0.101	1.760	0.184
0.190	1.760	0.095
0.210	1.759	-0.028
0.153	1.759	-0.140
0.042	1.759	-0.197
-0.082	1.760	-0.177
-0.170	1.760	-0.089
-0.190	1.760	0.034
-0.130	2.577	0.142
-0.020	2.577	0.199
0.102	2.576	0.180
0.190	2.576	0.092
0.210	2.575	-0.030
0.154	2.575	-0.140
0.044	2.575	-0.196
-0.078	2.576	-0.177
-0.166	2.576	-0.090
-0.186	2.577	0.032
-0.001	-5.088	-0.017
0.003	-5.085	-0.009
0.007	-5.087	-0.001
0.008	-5.095	0.005
0.006	-5.104	0.006
0.003	-5.111	0.002
-0.002	-5.114	-0.005
-0.005	-5.112	-0.014
-0.007	-5.105	-0.019
-0.005	-5.096	-0.021
0.703	-5.256	-0.364
0.707	-5.253	-0.357
0.711	-5.255	-0.348
0.712	-5.262	-0.342
0.710	-5.271	-0.341
0.706	-5.278	-0.344
0.701	-5.282	-0.352
0.697	-5.279	-0.360
0.696	-5.272	-0.366
0.698	-5.263	-0.367
0.903	-5.340	-0.478
0.908	-5.337	-0.471
0.912	-5.340	-0.463
0.913	-5.347	-0.457
0.910	-5.355	-0.455
0.905	-5.362	-0.458
0.900	-5.365	-0.465
0.896	-5.363	-0.473
0.895	-5.356	-0.480
0.898	-5.347	-0.481
0.014	-5.202	-0.024
0.015	-5.194	-0.020
0.011	-5.188	-0.015
0.004	-5.186	-0.009
-0.004	-5.189	-0.006
-0.010	-5.196	-0.006
-0.011	-5.205	-0.010
-0.007	-5.211	-0.016
0.000	-5.213	-0.021
0.008	-5.210	-0.024
0.378	-5.520	0.574
0.380	-5.511	0.577
0.377	-5.503	0.581
0.370	-5.499	0.584
0.361	-5.501	0.586
0.354	-5.507	0.586
0.352	-5.516	0.584
0.355	-5.524	0.580
0.363	-5.527	0.576
0.371	-5.526	0.574
0.394	-5.658	1.123
0.394	-5.650	1.127
0.394	-5.641	1.126
0.394	-5.635	1.119
0.394	-5.633	1.110
0.394	-5.637	1.102
0.394	-5.646	1.098
0.394	-5.655	1.099
0.394	-5.661	1.106
0.394	-5.663	1.115
-0.073	-6.098	-0.129
-0.075	-6.090	-0.125
-0.077	-6.081	-0.126
-0.077	-6.074	-0.133
-0.075	-6.073	-0.142
-0.073	-6.077	-0.150
-0.070	-6.085	-0.154
-0.069	-6.094	-0.152
-0.069	-6.100	-0.146
-0.070	-6.102	-0.137
-0.846	-6.255	-0.284
-0.849	-6.247	-0.280
-0.851	-6.238	-0.282
-0.851	-6.232	-0.289
-0.849	-6.230	-0.298
-0.846	-6.234	-0.305
-0.843	-6.241	-0.309
-0.841	-6.250	-0.308
-0.841	-6.257	-0.301
-0.843	-6.259	-0.292
-1.072	-6.327	-0.355
-1.075	-6.320	-0.351
-1.078	-6.311	-0.353
-1.078	-6.304	-0.359
-1.076	-6.302	-0.368
-1.072	-6.306	-0.376
-1.068	-6.314	-0.380
-1.066	-6.322	-0.378
-1.066	-6.329	-0.371
-1.068	-6.331	-0.363
-0.075	-6.198	-0.148
-0.075	-6.191	-0.142
-0.077	-6.182	-0.140
-0.080	-6.175	-0.144
-0.084	-6.171	-0.152
-0.087	-6.174	-0.161
-0.088	-6.181	-0.167
-0.086	-6.190	-0.168
-0.082	-6.197	-0.164
-0.078	-6.200	-0.156
-0.790	-6.390	0.137
-0.788	-6.383	0.142
-0.789	-6.374	0.144
-0.793	-6.366	0.140
-0.799	-6.363	0.134
-0.804	-6.366	0.126
-0.806	-6.373	0.121
-0.804	-6.382	0.119
-0.800	-6.389	0.122
-0.794	-6.393	0.129
-0.953	-6.436	0.323
-0.949	-6.429	0.328
-0.950	-6.420	0.329
-0.955	-6.413	0.327
-0.962	-6.410	0.321
-0.969	-6.412	0.315
-0.972	-6.420	0.310
-0.971	-6.429	0.309
-0.966	-6.436	0.311
-0.959	-6.439	0.317
-0.082	-6.280	-0.181
-0.082	-6.273	-0.175
-0.085	-6.270	-0.167
-0.090	-6.273	-0.159
-0.095	-6.280	-0.155
-0.097	-6.289	-0.157
-0.097	-6.296	-0.163
-0.094	-6.298	-0.171
-0.090	-6.296	-0.179
-0.085	-6.289	-0.182
0.634	-6.581	0.173
0.634	-6.574	0.179
0.631	-6.571	0.188
0.627	-6.575	0.195
0.623	-6.582	0.199
0.620	-6.591	0.198
0.621	-6.598	0.191
0.624	-6.600	0.183
0.628	-6.597	0.175
0.632	-6.590	0.172
0.704	-6.599	0.201
0.703	-6.592	0.207
0.701	-6.590	0.216
0.697	-6.594	0.223
0.693	-6.602	0.227
0.691	-6.611	0.225
0.692	-6.617	0.219
0.695	-6.619	0.210
0.699	-6.616	0.203
0.702	-6.608	0.199
-0.104	-6.371	-0.190
-0.097	-6.368	-0.185
-0.090	-6.371	-0.179
-0.086	-6.379	-0.175
-0.087	-6.388	-0.175
-0.092	-6.395	-0.178
-0.099	-6.398	-0.183
-0.106	-6.395	-0.188
-0.110	-6.387	-0.192
-0.109	-6.378	-0.193
0.393	-6.463	-0.825
0.393	-6.454	-0.821
0.393	-6.445	-0.823
0.393	-6.439	-0.829
0.393	-6.437	-0.838
0.393	-6.441	-0.847
0.393	-6.450	-0.851
0.393	-6.459	-0.849
0.393	-6.465	-0.843
0.393	-6.467	-0.834
-0.092	-6.492	-0.194
-0.090	-6.486	-0.188
-0.092	-6.478	-0.184
-0.099	-6.472	-0.183
-0.108	-6.470	-0.186
-0.115	-6.473	-0.191
-0.117	-6.479	-0.197
-0.115	-6.487	-0.201
-0.108	-6.493	-0.202
-0.099	-6.495	-0.199
-0.351	-6.856	0.329
-0.346	-6.856	0.337
-0.348	-6.856	0.347
-0.354	-6.856	0.353
-0.364	-6.856	0.355
-0.372	-6.856	0.350
-0.376	-6.856	0.342
-0.375	-6.856	0.333
-0.368	-6.856	0.326
-0.359	-6.856	0.325
-0.100	-6.594	-0.197
-0.096	-6.586	-0.194
-0.096	-6.577	-0.193
-0.101	-6.570	-0.195
-0.109	-6.567	-0.199
[...]
         <CellData>
           <DataArray type="Float32" Name="combinedRootClassID" NumberOfComponents="1" format="ascii">
 -5.000e+00 -5.000e+00 -5.000e+00 -5.000e+00 -5.000e+00 -5.000e+00 -5.000e+00 -5.000e+00 -5.000e+00 -5.000e+00 -5.000e+00 -5.000e+00 -2.000e+00 -2.000e+00 -2.000e+00 -2.000e+00 -2.000e+00 -2.000e+00 -2.000e+00 -2.000e+00 -2.000e+00 -2.000e+00 -2.000e+00 -2.000e+00 -7.000e+00 -7.000e+00 -7.000e+00 -7.000e+00 -7.000e+00 -7.000e+00 -7.000e+00 -7.000e+00 -7.000e+00 -7.000e+00 -7.000e+00 -7.000e+00 -7.000e+00 -7.000e+00 -7.000e+00 -7.000e+00 -7.000e+00 -7.000e+00 -7.000e+00 -7.000e+00 -7.000e+00 -7.000e+00 -7.000e+00 -7.000e+00 -7.000e+00 -7.000e+00 -7.000e+00 -7.000e+00 -7.000e+00 -7.000e+00 -7.000e+00 -7.000e+00 -7.000e+00 -7.000e+00 -7.000e+00 -7.000e+00 -7.000e+00 -7.000e+00 -7.000e+00 -7.000e+00 -7.000e+00 -7.000e+00 -7.000e+00 -7.000e+00 -7.000e+00 -7.000e+00 -7.000e+00 -7.000e+00 -7.000e+00 -7.000e+00 -7.000e+00 -7.000e+00 -7.000e+00 -7.000e+00 -7.000e+00 -9.000e+00 -9.000e+00 -9.000e+00 -4.000e+00 -4.000e+00 -4.000e+00 -4.000e+00 -4.000e+00 -4.000e+00 -4.000e+00 -4.000e+00 -4.000e+00 -4.000e+00 -4.000e+00 -4.000e+00 -4.000e+00 -4.000e+00 -4.000e+00 -4.000e+00 -4.000e+00 -4.000e+00 -4.000e+00 -4.000e+00 -4.000e+00 -4.000e+00 -4.000e+00 -4.000e+00 -4.000e+00 -4.000e+00 -4.000e+00 -4.000e+00 -4.000e+00
           </DataArray>
           <DataArray type="Float32" Name="nitrate/minimalNutrientConcentration" NumberOfComponents="1" format="ascii">
 6.000e+02 6.000e+02 6.000e+02 6.000e+02 6.000e+02 6.000e+02 6.000e+02 6.000e+02 6.000e+02 6.000e+02 6.000e+02 6.000e+02 6.000e+02 6.000e+02 6.000e+02 6.000e+02 6.000e+02 6.000e+02 6.000e+02 6.000e+02 6.000e+02 6.000e+02 6.000e+02 6.000e+02 6.000e+02 6.000e+02 6.000e+02 6.000e+02 6.000e+02 6.000e+02 6.000e+02 6.000e+02 6.000e+02 6.000e+02 6.000e+02 6.000e+02 6.000e+02 6.000e+02 6.000e+02 6.000e+02 6.000e+02 6.000e+02 6.000e+02 6.000e+02 6.000e+02 6.000e+02 6.000e+02 6.000e+02 6.000e+02 6.000e+02 6.000e+02 6.000e+02 6.000e+02 6.000e+02 6.000e+02 6.000e+02 6.000e+02 6.000e+02 6.000e+02 6.000e+02 6.000e+02 6.000e+02 6.000e+02 6.000e+02 6.000e+02 6.000e+02 6.000e+02 6.000e+02 6.000e+02 6.000e+02 6.000e+02 6.000e+02 6.000e+02 6.000e+02 6.000e+02 6.000e+02 6.000e+02 6.000e+02 6.000e+02 6.000e+02 6.000e+02 6.000e+02 6.000e+02 6.000e+02 6.000e+02 6.000e+02 6.000e+02 6.000e+02 6.000e+02 6.000e+02 6.000e+02 6.000e+02 6.000e+02 6.000e+02 6.000e+02 6.000e+02 6.000e+02 6.000e+02 6.000e+02 6.000e+02 6.000e+02 6.000e+02 6.000e+02 6.000e+02 6.000e+02 6.000e+02 6.000e+02 6.000e+02 6.000e+02 6.000e+02 6.000e+02
           </DataArray>
           <DataArray type="Float32" Name="nitrate/optimalNutrientConcentration" NumberOfComponents="1" format="ascii">
 1.200e+03 1.200e+03 1.200e+03 1.200e+03 1.200e+03 1.200e+03 1.200e+03 1.200e+03 1.200e+03 1.200e+03 1.200e+03 1.200e+03 1.200e+03 1.200e+03 1.200e+03 1.200e+03 1.200e+03 1.200e+03 1.200e+03 1.200e+03 1.200e+03 1.200e+03 1.200e+03 1.200e+03 1.200e+03 1.200e+03 1.200e+03 1.200e+03 1.200e+03 1.200e+03 1.200e+03 1.200e+03 1.200e+03 1.200e+03 1.200e+03 1.200e+03 1.200e+03 1.200e+03 1.200e+03 1.200e+03 1.200e+03 1.200e+03 1.200e+03 1.200e+03 1.200e+03 1.200e+03 1.200e+03 1.200e+03 1.200e+03 1.200e+03 1.200e+03 1.200e+03 1.200e+03 1.200e+03 1.200e+03 1.200e+03 1.200e+03 1.200e+03 1.200e+03 1.200e+03 1.200e+03 1.200e+03 1.200e+03 1.200e+03 1.200e+03 1.200e+03 1.200e+03 1.200e+03 1.200e+03 1.200e+03 1.200e+03 1.200e+03 1.200e+03 1.200e+03 1.200e+03 1.200e+03 1.200e+03 1.200e+03 1.200e+03 1.200e+03 1.200e+03 1.200e+03 1.200e+03 1.200e+03 1.200e+03 1.200e+03 1.200e+03 1.200e+03 1.200e+03 1.200e+03 1.200e+03 1.200e+03 1.200e+03 1.200e+03 1.200e+03 1.200e+03 1.200e+03 1.200e+03 1.200e+03 1.200e+03 1.200e+03 1.200e+03 1.200e+03 1.200e+03 1.200e+03 1.200e+03 1.200e+03 1.200e+03 1.200e+03 1.200e+03 1.200e+03
           </DataArray>
           <DataArray type="Float32" Name="nitrate/radiusDepletionZone" NumberOfComponents="1" format="ascii">
 3.400e-02 3.400e-02 3.074e-01 3.400e-02 3.400e-02 3.564e-01 3.400e-02 3.400e-02 2.805e-01 3.400e-02 3.400e-02 3.074e-01 1.500e+00 3.299e+00 1.122e+01 8.975e+00 6.831e+00 5.853e+00 5.119e+00 4.549e+00 4.093e+00 2.025e-01 2.022e-01 2.017e-01 1.501e-02 1.500e-02 1.501e-02 1.500e-02 1.500e-02 1.500e-02 1.500e-02 1.500e-02 1.500e-02 1.500e-02 1.500e-02 1.500e-02 1.500e-02 1.500e-02 1.500e-02 1.500e-02 1.500e-02 1.500e-02 1.500e-02 3.790e-01 1.500e-02 1.500e-02 1.500e-02 1.500e-02 1.500e-02 1.500e-02 1.500e-02 1.500e-02 1.500e-02 1.500e-02 1.500e-02 2.367e-01 1.500e-02 1.500e-02 1.500e-02 1.500e-02 1.500e-02 1.500e-02 1.500e-02 1.500e-02 1.500e-02 1.500e-02 1.500e-02 1.500e-02 1.500e-02 1.500e-02 1.500e-02 1.500e-02 1.500e-02 1.500e-02 1.500e-02 1.500e-02 1.500e-02 1.500e-02 1.500e-02 1.501e-02 1.500e-02 1.500e-02 1.212e+00 1.766e+01 1.210e+01 9.073e+00 6.482e+00 5.400e+00 4.627e+00 4.048e+00 3.598e+00 2.850e+00 2.590e+00 2.374e+00 2.191e+00 2.034e+00 1.640e+00 1.538e+00 1.447e+00 1.366e+00 1.294e+00 1.036e+00 9.864e-01 9.415e-01 7.321e-01 7.016e-01 6.734e-01 4.986e-01 4.801e-01 3.247e-01 1.800e-01
           </DataArray>
           <DataArray type="Float32" Name="nitrate/rootSegmentMinimalNutrientContent" NumberOfComponents="1" format="ascii">
 1.941e-01 1.502e-01 1.406e-01 1.941e-01 1.502e-01 1.406e-01 1.941e-01 1.502e-01 1.406e-01 1.941e-01 1.502e-01 1.406e-01 7.418e+00 3.665e+00 4.245e+00 4.517e+00 4.488e+00 4.462e+00 4.439e+00 4.419e+00 4.109e+00 3.510e+00 5.249e+00 5.850e+00 3.225e-02 9.798e-03 3.072e-02 2.209e-02 3.263e-02 9.877e-03 3.208e-02 1.014e-02 3.432e-02 3.102e-03 3.287e-02 2.834e-02 2.862e-02 1.102e-02 3.069e-02 3.302e-02 3.194e-02 2.920e-02 3.463e-02 1.531e-02 2.812e-02 2.954e-02 2.314e-02 2.716e-02 2.282e-02 2.182e-02 1.875e-02 1.722e-02 1.568e-02 1.780e-02 3.402e-02 4.899e-03 1.323e-02 1.247e-02 1.296e-02 8.814e-03 7.380e-03 7.200e-03 5.573e-03 4.707e-03 3.332e-03 1.995e-03 3.274e-02 2.076e-02 5.118e-04 3.141e-02 1.138e-02 3.110e-02 1.618e-02 3.215e-02 1.750e-02 3.461e-02 1.418e-02 3.177e-02 5.604e-03 2.881e-02 2.890e-02 7.044e-03 4.302e-01 2.071e-01 2.033e-01 1.998e-01 1.965e-01 1.934e-01 1.907e-01 1.883e-01 1.862e-01 1.845e-01 1.830e-01 1.815e-01 1.802e-01 1.789e-01 1.777e-01 1.766e-01 1.756e-01 1.746e-01 1.737e-01 1.729e-01 1.722e-01 1.716e-01 1.710e-01 1.705e-01 1.701e-01 1.697e-01 1.695e-01 1.693e-01 1.692e-01
           </DataArray>
           <DataArray type="Float32" Name="nitrate/rootSegmentNutrientUptake" NumberOfComponents="1" format="ascii">
 0.000e+00 0.000e+00 2.762e-02 0.000e+00 0.000e+00 2.749e-02 0.000e+00 0.000e+00 2.725e-02 0.000e+00 0.000e+00 2.732e-02 3.924e+00 1.229e+00 3.447e+00 3.783e+00 3.794e+00 5.002e+00 1.040e+01 6.141e+00 1.386e+01 0.000e+00 0.000e+00 0.000e+00 0.000e+00 0.000e+00 0.000e+00 0.000e+00 0.000e+00 0.000e+00 0.000e+00 0.000e+00 0.000e+00 0.000e+00 0.000e+00 0.000e+00 0.000e+00 0.000e+00 0.000e+00 0.000e+00 0.000e+00 0.000e+00 0.000e+00 1.284e-02 0.000e+00 0.000e+00 0.000e+00 0.000e+00 0.000e+00 0.000e+00 0.000e+00 0.000e+00 0.000e+00 0.000e+00 0.000e+00 1.395e-03 0.000e+00 0.000e+00 0.000e+00 0.000e+00 0.000e+00 0.000e+00 0.000e+00 0.000e+00 0.000e+00 0.000e+00 0.000e+00 0.000e+00 0.000e+00 0.000e+00 0.000e+00 0.000e+00 0.000e+00 0.000e+00 0.000e+00 0.000e+00 0.000e+00 0.000e+00 0.000e+00 0.000e+00 0.000e+00 0.000e+00 1.022e+00 5.976e-01 5.228e-01 5.208e-01 5.178e-01 5.138e-01 5.094e-01 5.018e-01 4.925e-01 4.844e-01 4.733e-01 4.611e-01 4.509e-01 4.372e-01 4.219e-01 4.072e-01 3.911e-01 3.713e-01 3.514e-01 3.303e-01 3.067e-01 2.754e-01 2.418e-01 2.069e-01 1.719e-01 1.363e-01 9.899e-02 5.969e-02 1.653e-02
           </DataArray>
           <DataArray type="Float32" Name="nitrate/rootSegmentOptimalNutrientContent" NumberOfComponents="1" format="ascii">
 3.882e-01 3.003e-01 2.812e-01 3.882e-01 3.003e-01 2.812e-01 3.882e-01 3.003e-01 2.812e-01 3.882e-01 3.003e-01 2.812e-01 1.484e+01 7.331e+00 8.490e+00 9.034e+00 8.976e+00 8.924e+00 8.878e+00 8.839e+00 8.218e+00 7.021e+00 1.050e+01 1.170e+01 6.449e-02 1.960e-02 6.144e-02 4.418e-02 6.527e-02 1.975e-02 6.415e-02 2.028e-02 6.865e-02 6.204e-03 6.574e-02 5.667e-02 5.723e-02 2.205e-02 6.138e-02 6.604e-02 6.389e-02 5.839e-02 6.927e-02 3.062e-02 5.624e-02 5.907e-02 4.629e-02 5.432e-02 4.564e-02 4.363e-02 3.751e-02 3.443e-02 3.136e-02 3.561e-02 6.805e-02 9.798e-03 2.647e-02 2.493e-02 2.592e-02 1.763e-02 1.476e-02 1.440e-02 1.115e-02 9.415e-03 6.665e-03 3.989e-03 6.547e-02 4.153e-02 1.024e-03 6.283e-02 2.277e-02 6.220e-02 3.236e-02 6.430e-02 3.500e-02 6.922e-02 2.837e-02 6.355e-02 1.121e-02 5.762e-02 5.781e-02 1.409e-02 8.605e-01 4.141e-01 4.067e-01 3.996e-01 3.929e-01 3.868e-01 3.814e-01 3.766e-01 3.725e-01 3.690e-01 3.660e-01 3.631e-01 3.604e-01 3.578e-01 3.554e-01 3.532e-01 3.511e-01 3.492e-01 3.474e-01 3.458e-01 3.444e-01 3.431e-01 3.420e-01 3.410e-01 3.402e-01 3.395e-01 3.390e-01 3.386e-01 3.384e-01
           </DataArray>
           <DataArray type="Float32" Name="parentRootClassID" NumberOfComponents="1" format="ascii">
 -2.000e+00 -2.000e+00 -2.000e+00 -2.000e+00 -2.000e+00 -2.000e+00 -2.000e+00 -2.000e+00 -2.000e+00 -2.000e+00 -2.000e+00 -2.000e+00 -3.000e+00 -3.000e+00 -3.000e+00 -3.000e+00 -3.000e+00 -3.000e+00 -3.000e+00 -3.000e+00 -3.000e+00 -3.000e+00 -3.000e+00 -3.000e+00 -4.000e+00 -4.000e+00 -4.000e+00 -4.000e+00 -4.000e+00 -4.000e+00 -4.000e+00 -4.000e+00 -4.000e+00 -4.000e+00 -4.000e+00 -4.000e+00 -4.000e+00 -4.000e+00 -4.000e+00 -4.000e+00 -4.000e+00 -4.000e+00 -4.000e+00 -4.000e+00 -4.000e+00 -4.000e+00 -4.000e+00 -4.000e+00 -4.000e+00 -4.000e+00 -4.000e+00 -4.000e+00 -4.000e+00 -4.000e+00 -4.000e+00 -4.000e+00 -4.000e+00 -4.000e+00 -4.000e+00 -4.000e+00 -4.000e+00 -4.000e+00 -4.000e+00 -4.000e+00 -4.000e+00 -4.000e+00 -4.000e+00 -4.000e+00 -4.000e+00 -4.000e+00 -4.000e+00 -4.000e+00 -4.000e+00 -4.000e+00 -4.000e+00 -4.000e+00 -4.000e+00 -4.000e+00 -4.000e+00 -4.000e+00 -4.000e+00 -4.000e+00 -3.000e+00 -3.000e+00 -3.000e+00 -3.000e+00 -3.000e+00 -3.000e+00 -3.000e+00 -3.000e+00 -3.000e+00 -3.000e+00 -3.000e+00 -3.000e+00 -3.000e+00 -3.000e+00 -3.000e+00 -3.000e+00 -3.000e+00 -3.000e+00 -3.000e+00 -3.000e+00 -3.000e+00 -3.000e+00 -3.000e+00 -3.000e+00 -3.000e+00 -3.000e+00 -3.000e+00 -3.000e+00 -3.000e+00
           </DataArray>
           <DataArray type="Float32" Name="plantID" NumberOfComponents="1" format="ascii">
 7.000e+00 7.000e+00 7.000e+00 7.000e+00 7.000e+00 7.000e+00 7.000e+00 7.000e+00 7.000e+00 7.000e+00 7.000e+00 7.000e+00 7.000e+00 7.000e+00 7.000e+00 7.000e+00 7.000e+00 7.000e+00 7.000e+00 7.000e+00 7.000e+00 7.000e+00 7.000e+00 7.000e+00 7.000e+00 7.000e+00 7.000e+00 7.000e+00 7.000e+00 7.000e+00 7.000e+00 7.000e+00 7.000e+00 7.000e+00 7.000e+00 7.000e+00 7.000e+00 7.000e+00 7.000e+00 7.000e+00 7.000e+00 7.000e+00 7.000e+00 7.000e+00 7.000e+00 7.000e+00 7.000e+00 7.000e+00 7.000e+00 7.000e+00 7.000e+00 7.000e+00 7.000e+00 7.000e+00 7.000e+00 7.000e+00 7.000e+00 7.000e+00 7.000e+00 7.000e+00 7.000e+00 7.000e+00 7.000e+00 7.000e+00 7.000e+00 7.000e+00 7.000e+00 7.000e+00 7.000e+00 7.000e+00 7.000e+00 7.000e+00 7.000e+00 7.000e+00 7.000e+00 7.000e+00 7.000e+00 7.000e+00 7.000e+00 7.000e+00 7.000e+00 7.000e+00 7.000e+00 7.000e+00 7.000e+00 7.000e+00 7.000e+00 7.000e+00 7.000e+00 7.000e+00 7.000e+00 7.000e+00 7.000e+00 7.000e+00 7.000e+00 7.000e+00 7.000e+00 7.000e+00 7.000e+00 7.000e+00 7.000e+00 7.000e+00 7.000e+00 7.000e+00 7.000e+00 7.000e+00 7.000e+00 7.000e+00 7.000e+00 7.000e+00 7.000e+00
           </DataArray>
           <DataArray type="Float32" Name="plantTypeID" NumberOfComponents="1" format="ascii">
 0.000e+00 0.000e+00 0.000e+00 0.000e+00 0.000e+00 0.000e+00 0.000e+00 0.000e+00 0.000e+00 0.000e+00 0.000e+00 0.000e+00 0.000e+00 0.000e+00 0.000e+00 0.000e+00 0.000e+00 0.000e+00 0.000e+00 0.000e+00 0.000e+00 0.000e+00 0.000e+00 0.000e+00 0.000e+00 0.000e+00 0.000e+00 0.000e+00 0.000e+00 0.000e+00 0.000e+00 0.000e+00 0.000e+00 0.000e+00 0.000e+00 0.000e+00 0.000e+00 0.000e+00 0.000e+00 0.000e+00 0.000e+00 0.000e+00 0.000e+00 0.000e+00 0.000e+00 0.000e+00 0.000e+00 0.000e+00 0.000e+00 0.000e+00 0.000e+00 0.000e+00 0.000e+00 0.000e+00 0.000e+00 0.000e+00 0.000e+00 0.000e+00 0.000e+00 0.000e+00 0.000e+00 0.000e+00 0.000e+00 0.000e+00 0.000e+00 0.000e+00 0.000e+00 0.000e+00 0.000e+00 0.000e+00 0.000e+00 0.000e+00 0.000e+00 0.000e+00 0.000e+00 0.000e+00 0.000e+00 0.000e+00 0.000e+00 0.000e+00 0.000e+00 0.000e+00 0.000e+00 0.000e+00 0.000e+00 0.000e+00 0.000e+00 0.000e+00 0.000e+00 0.000e+00 0.000e+00 0.000e+00 0.000e+00 0.000e+00 0.000e+00 0.000e+00 0.000e+00 0.000e+00 0.000e+00 0.000e+00 0.000e+00 0.000e+00 0.000e+00 0.000e+00 0.000e+00 0.000e+00 0.000e+00 0.000e+00 0.000e+00 0.000e+00 0.000e+00
           </DataArray>
           <DataArray type="Float32" Name="rootCircumference" NumberOfComponents="1" format="ascii">
 2.136e-01 2.136e-01 2.136e-01 2.136e-01 2.136e-01 2.136e-01 2.136e-01 2.136e-01 2.136e-01 2.136e-01 2.136e-01 2.136e-01 1.320e+00 1.304e+00 1.300e+00 1.295e+00 1.291e+00 1.287e+00 1.284e+00 1.281e+00 1.279e+00 1.276e+00 1.274e+00 1.271e+00 9.431e-02 9.425e-02 9.430e-02 9.426e-02 9.428e-02 9.425e-02 9.428e-02 9.425e-02 9.428e-02 9.425e-02 9.427e-02 9.427e-02 9.427e-02 9.425e-02 9.427e-02 9.427e-02 9.427e-02 9.426e-02 9.430e-02 9.425e-02 9.426e-02 9.426e-02 9.426e-02 9.426e-02 9.426e-02 9.426e-02 9.426e-02 9.425e-02 9.425e-02 9.425e-02 9.430e-02 9.425e-02 9.425e-02 9.425e-02 9.425e-02 9.425e-02 9.425e-02 9.425e-02 9.425e-02 9.425e-02 9.425e-02 9.425e-02 9.429e-02 9.425e-02 9.425e-02 9.429e-02 9.425e-02 9.429e-02 9.425e-02 9.429e-02 9.425e-02 9.428e-02 9.425e-02 9.428e-02 9.425e-02 9.433e-02 9.427e-02 9.425e-02 3.189e-01 3.128e-01 3.100e-01 3.073e-01 3.047e-01 3.023e-01 3.002e-01 2.983e-01 2.967e-01 2.953e-01 2.941e-01 2.929e-01 2.918e-01 2.908e-01 2.898e-01 2.889e-01 2.881e-01 2.873e-01 2.865e-01 2.859e-01 2.853e-01 2.848e-01 2.843e-01 2.839e-01 2.835e-01 2.832e-01 2.830e-01 2.829e-01 2.828e-01
           </DataArray>
           <DataArray type="Float32" Name="rootClassID" NumberOfComponents="1" format="ascii">
 9.900e+01 9.900e+01 9.900e+01 9.900e+01 9.900e+01 9.900e+01 9.900e+01 9.900e+01 9.900e+01 9.900e+01 9.900e+01 9.900e+01 -2.000e+00 -2.000e+00 -2.000e+00 -2.000e+00 -2.000e+00 -2.000e+00 -2.000e+00 -2.000e+00 -2.000e+00 -2.000e+00 -2.000e+00 -2.000e+00 9.700e+01 9.700e+01 9.700e+01 9.700e+01 9.700e+01 9.700e+01 9.700e+01 9.700e+01 9.700e+01 9.700e+01 9.700e+01 9.700e+01 9.700e+01 9.700e+01 9.700e+01 9.700e+01 9.700e+01 9.700e+01 9.700e+01 9.700e+01 9.700e+01 9.700e+01 9.700e+01 9.700e+01 9.700e+01 9.700e+01 9.700e+01 9.700e+01 9.700e+01 9.700e+01 9.700e+01 9.700e+01 9.700e+01 9.700e+01 9.700e+01 9.700e+01 9.700e+01 9.700e+01 9.700e+01 9.700e+01 9.700e+01 9.700e+01 9.700e+01 9.700e+01 9.700e+01 9.700e+01 9.700e+01 9.700e+01 9.700e+01 9.700e+01 9.700e+01 9.700e+01 9.700e+01 9.700e+01 9.700e+01 9.700e+01 9.700e+01 9.700e+01 -4.000e+00 -4.000e+00 -4.000e+00 -4.000e+00 -4.000e+00 -4.000e+00 -4.000e+00 -4.000e+00 -4.000e+00 -4.000e+00 -4.000e+00 -4.000e+00 -4.000e+00 -4.000e+00 -4.000e+00 -4.000e+00 -4.000e+00 -4.000e+00 -4.000e+00 -4.000e+00 -4.000e+00 -4.000e+00 -4.000e+00 -4.000e+00 -4.000e+00 -4.000e+00 -4.000e+00 -4.000e+00 -4.000e+00
           </DataArray>
           <DataArray type="Float32" Name="rootDiameter" NumberOfComponents="1" format="ascii">
 6.800e-02 6.800e-02 6.800e-02 6.800e-02 6.800e-02 6.800e-02 6.800e-02 6.800e-02 6.800e-02 6.800e-02 6.800e-02 6.800e-02 4.201e-01 4.152e-01 4.137e-01 4.123e-01 4.109e-01 4.097e-01 4.087e-01 4.078e-01 4.070e-01 4.063e-01 4.057e-01 4.045e-01 3.002e-02 3.000e-02 3.002e-02 3.000e-02 3.001e-02 3.000e-02 3.001e-02 3.000e-02 3.001e-02 3.000e-02 3.001e-02 3.001e-02 3.001e-02 3.000e-02 3.001e-02 3.001e-02 3.001e-02 3.001e-02 3.002e-02 3.000e-02 3.000e-02 3.000e-02 3.000e-02 3.000e-02 3.000e-02 3.000e-02 3.000e-02 3.000e-02 3.000e-02 3.000e-02 3.002e-02 3.000e-02 3.000e-02 3.000e-02 3.000e-02 3.000e-02 3.000e-02 3.000e-02 3.000e-02 3.000e-02 3.000e-02 3.000e-02 3.001e-02 3.000e-02 3.000e-02 3.001e-02 3.000e-02 3.001e-02 3.000e-02 3.001e-02 3.000e-02 3.001e-02 3.000e-02 3.001e-02 3.000e-02 3.003e-02 3.001e-02 3.000e-02 1.015e-01 9.958e-02 9.868e-02 9.782e-02 9.700e-02 9.624e-02 9.556e-02 9.496e-02 9.444e-02 9.400e-02 9.361e-02 9.324e-02 9.289e-02 9.256e-02 9.225e-02 9.196e-02 9.169e-02 9.144e-02 9.121e-02 9.100e-02 9.081e-02 9.064e-02 9.049e-02 9.036e-02 9.025e-02 9.016e-02 9.009e-02 9.004e-02 9.001e-02
           </DataArray>
           <DataArray type="Float32" Name="rootLength2Base" NumberOfComponents="1" format="ascii">
 0.000e+00 9.477e-01 1.681e+00 0.000e+00 9.477e-01 1.681e+00 0.000e+00 9.477e-01 1.681e+00 0.000e+00 9.477e-01 1.681e+00 0.000e+00 9.600e-01 1.440e+00 2.000e+00 2.600e+00 3.200e+00 3.800e+00 4.400e+00 5.000e+00 5.560e+00 6.040e+00 6.760e+00 0.000e+00 8.079e-01 0.000e+00 7.697e-01 0.000e+00 8.180e-01 0.000e+00 8.040e-01 0.000e+00 8.604e-01 0.000e+00 0.000e+00 0.000e+00 7.175e-01 0.000e+00 0.000e+00 0.000e+00 0.000e+00 0.000e+00 8.678e-01 0.000e+00 0.000e+00 0.000e+00 0.000e+00 0.000e+00 0.000e+00 0.000e+00 0.000e+00 0.000e+00 0.000e+00 0.000e+00 8.525e-01 0.000e+00 0.000e+00 0.000e+00 0.000e+00 0.000e+00 0.000e+00 0.000e+00 0.000e+00 0.000e+00 0.000e+00 0.000e+00 8.203e-01 0.000e+00 0.000e+00 7.872e-01 0.000e+00 7.794e-01 0.000e+00 8.058e-01 0.000e+00 8.675e-01 0.000e+00 7.964e-01 0.000e+00 7.213e-01 0.000e+00 0.000e+00 9.428e-01 1.414e+00 1.886e+00 2.357e+00 2.828e+00 3.300e+00 3.771e+00 4.243e+00 4.714e+00 5.185e+00 5.657e+00 6.128e+00 6.600e+00 7.071e+00 7.542e+00 8.014e+00 8.485e+00 8.957e+00 9.428e+00 9.899e+00 1.037e+01 1.084e+01 1.131e+01 1.179e+01 1.226e+01 1.273e+01 1.320e+01 1.367e+01
           </DataArray>
           <DataArray type="Float32" Name="rootPotentialSecondaryGrowth" NumberOfComponents="1" format="ascii">
 6.800e-02 6.800e-02 6.800e-02 6.800e-02 6.800e-02 6.800e-02 6.800e-02 6.800e-02 6.800e-02 6.800e-02 6.800e-02 6.800e-02 4.201e-01 4.152e-01 4.137e-01 4.123e-01 4.109e-01 4.097e-01 4.087e-01 4.078e-01 4.070e-01 4.063e-01 4.057e-01 4.045e-01 3.002e-02 3.000e-02 3.002e-02 3.000e-02 3.001e-02 3.000e-02 3.001e-02 3.000e-02 3.001e-02 3.000e-02 3.001e-02 3.001e-02 3.001e-02 3.000e-02 3.001e-02 3.001e-02 3.001e-02 3.001e-02 3.002e-02 3.000e-02 3.000e-02 3.000e-02 3.000e-02 3.000e-02 3.000e-02 3.000e-02 3.000e-02 3.000e-02 3.000e-02 3.000e-02 3.002e-02 3.000e-02 3.000e-02 3.000e-02 3.000e-02 3.000e-02 3.000e-02 3.000e-02 3.000e-02 3.000e-02 3.000e-02 3.000e-02 3.001e-02 3.000e-02 3.000e-02 3.001e-02 3.000e-02 3.001e-02 3.000e-02 3.001e-02 3.000e-02 3.001e-02 3.000e-02 3.001e-02 3.000e-02 3.003e-02 3.001e-02 3.000e-02 1.015e-01 9.958e-02 9.868e-02 9.782e-02 9.700e-02 9.624e-02 9.556e-02 9.496e-02 9.444e-02 9.400e-02 9.361e-02 9.324e-02 9.289e-02 9.256e-02 9.225e-02 9.196e-02 9.169e-02 9.144e-02 9.121e-02 9.100e-02 9.081e-02 9.064e-02 9.049e-02 9.036e-02 9.025e-02 9.016e-02 9.009e-02 9.004e-02 9.001e-02
           </DataArray>
           <DataArray type="Float32" Name="rootSegmentAge" NumberOfComponents="1" format="ascii">