<?xml version="1.0"?>
<VTKFile type="UnstructuredGrid" version="0.1" byte_order="LittleEndian">
   <UnstructuredGrid>
      <Piece NumberOfPoints="2710" NumberOfCells="196">
         <Points>
            <DataArray type="Float32" Name="Position" NumberOfComponents="3" format="ascii">
0.017	-4.979	-0.027
0.015	-4.963	-0.014
0.008	-4.957	0.004
-0.003	-4.964	0.021
-0.012	-4.980	0.030
-0.017	-5.001	0.028
-0.015	-5.017	0.014
-0.007	-5.023	-0.004
0.003	-5.016	-0.021
0.012	-5.000	-0.030
0.834	-5.220	0.384
0.834	-5.204	0.397
0.827	-5.197	0.416
0.816	-5.203	0.433
0.805	-5.219	0.442
0.798	-5.238	0.438
0.798	-5.254	0.425
0.804	-5.261	0.406
0.816	-5.255	0.389
0.827	-5.239	0.381
1.406	-5.568	0.684
1.409	-5.553	0.699
1.403	-5.546	0.718
1.391	-5.551	0.735
1.378	-5.565	0.742
1.368	-5.583	0.738
1.365	-5.598	0.724
1.370	-5.604	0.705
1.382	-5.600	0.688
1.396	-5.586	0.680
1.909	-5.957	0.943
1.913	-5.943	0.958
1.909	-5.937	0.978
1.897	-5.942	0.994
1.882	-5.955	1.002
1.870	-5.972	0.997
1.866	-5.986	0.982
1.871	-5.991	0.962
1.883	-5.987	0.945
1.897	-5.974	0.938
2.472	-6.465	1.206
2.477	-6.453	1.221
2.473	-6.448	1.241
2.461	-6.452	1.258
2.446	-6.465	1.265
2.433	-6.481	1.260
2.428	-6.494	1.244
2.432	-6.499	1.224
2.444	-6.494	1.207
2.459	-6.481	1.200
2.879	-6.874	1.372
2.885	-6.862	1.388
2.881	-6.857	1.408
2.870	-6.862	1.425
2.854	-6.875	1.432
2.841	-6.890	1.426
2.835	-6.902	1.410
2.838	-6.907	1.390
2.850	-6.902	1.373
2.865	-6.889	1.366
3.313	-7.332	1.535
3.320	-7.320	1.551
3.317	-7.316	1.572
3.305	-7.322	1.588
3.289	-7.334	1.595
3.276	-7.349	1.589
3.269	-7.360	1.573
3.272	-7.365	1.552
3.284	-7.359	1.536
3.300	-7.347	1.529
3.780	-7.833	1.701
3.787	-7.821	1.717
3.784	-7.818	1.738
3.773	-7.823	1.754
3.757	-7.835	1.761
3.743	-7.850	1.755
3.736	-7.861	1.739
3.739	-7.865	1.718
3.751	-7.859	1.701
3.766	-7.847	1.695
4.020	-8.106	1.777
4.027	-8.095	1.793
4.025	-8.092	1.814
4.013	-8.097	1.831
3.997	-8.109	1.837
3.983	-8.123	1.831
3.976	-8.134	1.815
3.979	-8.138	1.794
3.990	-8.132	1.777
4.006	-8.120	1.771
-0.012	-4.962	-0.015
0.006	-4.957	-0.007
0.023	-4.965	0.004
0.031	-4.982	0.013
0.027	-5.002	0.017
0.013	-5.018	0.015
-0.006	-5.023	0.007
-0.023	-5.015	-0.004
-0.030	-4.998	-0.013
-0.026	-4.978	-0.017
0.402	-5.217	-0.826
0.421	-5.213	-0.817
0.437	-5.221	-0.805
0.442	-5.238	-0.794
0.436	-5.257	-0.788
0.421	-5.272	-0.790
0.402	-5.275	-0.798
0.387	-5.267	-0.810
0.381	-5.251	-0.821
0.387	-5.231	-0.827
0.727	-5.580	-1.381
0.746	-5.578	-1.371
0.760	-5.587	-1.357
0.762	-5.603	-1.344
0.753	-5.620	-1.336
0.736	-5.632	-1.337
0.717	-5.634	-1.346
0.704	-5.626	-1.360
0.701	-5.610	-1.374
0.710	-5.592	-1.381
1.002	-5.983	-1.867
1.021	-5.982	-1.858
1.033	-5.991	-1.843
1.035	-6.006	-1.829
1.024	-6.022	-1.820
1.006	-6.033	-1.821
0.987	-6.034	-1.830
0.975	-6.025	-1.845
0.974	-6.010	-1.859
0.984	-5.994	-1.868
1.305	-6.498	-2.407
1.323	-6.497	-2.398
1.335	-6.506	-2.383
1.335	-6.521	-2.368
1.323	-6.536	-2.359
1.305	-6.546	-2.359
1.286	-6.546	-2.369
1.274	-6.537	-2.384
1.274	-6.522	-2.399
1.286	-6.507	-2.408
1.497	-6.911	-2.801
1.516	-6.911	-2.791
1.527	-6.920	-2.775
1.526	-6.935	-2.760
1.514	-6.949	-2.751
1.494	-6.957	-2.751
1.476	-6.957	-2.761
1.465	-6.948	-2.776
1.466	-6.934	-2.792
1.478	-6.919	-2.801
1.714	-7.375	-3.207
1.733	-7.376	-3.197
1.743	-7.385	-3.181
1.741	-7.399	-3.165
1.728	-7.412	-3.156
1.708	-7.420	-3.156
1.690	-7.419	-3.167
1.680	-7.410	-3.183
1.682	-7.396	-3.198
1.695	-7.383	-3.208
1.924	-7.907	-3.622
1.942	-7.908	-3.611
1.951	-7.916	-3.595
1.948	-7.930	-3.579
1.934	-7.942	-3.569
1.915	-7.949	-3.570
1.897	-7.948	-3.581
1.887	-7.940	-3.597
1.890	-7.926	-3.613
1.904	-7.914	-3.623
2.055	-8.237	-3.807
2.065	-8.218	-3.807
2.061	-8.198	-3.807
2.047	-8.183	-3.807
2.026	-8.179	-3.807
2.007	-8.189	-3.807
1.998	-8.208	-3.807
2.001	-8.229	-3.807
2.016	-8.243	-3.807
2.036	-8.247	-3.807
-0.011	-5.007	0.028
-0.018	-4.987	0.029
-0.018	-4.969	0.019
-0.012	-4.958	0.002
-0.001	-4.960	-0.016
0.011	-4.973	-0.027
0.018	-4.993	-0.029
0.019	-5.011	-0.019
0.012	-5.022	-0.002
0.001	-5.020	0.016
-0.782	-5.277	-0.437
-0.793	-5.260	-0.433
-0.797	-5.241	-0.441
-0.793	-5.228	-0.457
-0.783	-5.226	-0.476
-0.771	-5.236	-0.489
-0.760	-5.254	-0.493
-0.756	-5.273	-0.485
-0.760	-5.286	-0.469
-0.769	-5.287	-0.450
-1.346	-5.614	-0.754
-1.357	-5.597	-0.755
-1.362	-5.580	-0.767
-1.358	-5.571	-0.786
-1.347	-5.573	-0.804
-1.333	-5.585	-0.814
-1.322	-5.602	-0.813
-1.317	-5.619	-0.801
-1.321	-5.628	-0.783
-1.332	-5.626	-0.765
-1.859	-5.981	-1.019
-1.869	-5.964	-1.026
-1.872	-5.951	-1.042
-1.865	-5.947	-1.062
-1.852	-5.953	-1.077
-1.838	-5.968	-1.082
-1.828	-5.985	-1.076
-1.826	-5.998	-1.059
-1.832	-6.002	-1.040
-1.845	-5.996	-1.024
-2.436	-6.467	-1.294
-2.444	-6.452	-1.307
-2.442	-6.444	-1.326
-2.432	-6.445	-1.345
-2.417	-6.455	-1.355
-2.403	-6.471	-1.354
-2.395	-6.486	-1.341
-2.397	-6.494	-1.322
-2.407	-6.493	-1.303
-2.422	-6.482	-1.293
-2.823	-6.883	-1.489
-2.835	-6.869	-1.498
-2.837	-6.858	-1.516
-2.830	-6.855	-1.536
-2.815	-6.862	-1.550
-2.799	-6.876	-1.552
-2.788	-6.891	-1.543
-2.785	-6.901	-1.525
-2.793	-6.904	-1.505
-2.807	-6.897	-1.492
-3.226	-7.351	-1.700
-3.240	-7.337	-1.708
-3.244	-7.325	-1.725
-3.239	-7.321	-1.745
-3.225	-7.325	-1.760
-3.209	-7.337	-1.765
-3.195	-7.352	-1.757
-3.191	-7.363	-1.740
-3.196	-7.368	-1.721
-3.210	-7.363	-1.705
-3.643	-7.872	-1.926
-3.657	-7.858	-1.932
-3.664	-7.846	-1.948
-3.660	-7.841	-1.968
-3.647	-7.845	-1.984
-3.630	-7.855	-1.991
-3.616	-7.869	-1.985
-3.609	-7.881	-1.968
-3.613	-7.886	-1.948
-3.626	-7.883	-1.932
-3.823	-8.164	-2.079
-3.826	-8.169	-2.059
-3.839	-8.166	-2.042
-3.856	-8.156	-2.035
-3.871	-8.142	-2.041
-3.878	-8.131	-2.057
-3.875	-8.125	-2.077
-3.863	-8.128	-2.093
-3.845	-8.139	-2.100
-3.830	-8.152	-2.095
0.022	-5.016	0.003
0.030	-4.999	0.013
0.027	-4.979	0.018
0.013	-4.963	0.016
-0.006	-4.957	0.008
-0.022	-4.964	-0.003
-0.030	-4.981	-0.013
-0.026	-5.001	-0.018
-0.013	-5.017	-0.016
0.006	-5.023	-0.008
-0.407	-5.281	0.798
-0.400	-5.264	0.809
-0.404	-5.245	0.816
-0.418	-5.229	0.815
-0.437	-5.224	0.807
-0.453	-5.231	0.795
-0.460	-5.247	0.784
-0.456	-5.267	0.778
-0.442	-5.282	0.779
-0.423	-5.288	0.786
-0.719	-5.603	1.372
-0.713	-5.588	1.385
-0.718	-5.570	1.394
-0.734	-5.555	1.395
-0.753	-5.550	1.388
-0.769	-5.557	1.375
-0.775	-5.572	1.362
-0.769	-5.591	1.354
-0.754	-5.605	1.353
-0.735	-5.610	1.360
-0.986	-5.962	1.889
-0.980	-5.947	1.903
-0.987	-5.930	1.913
-1.003	-5.917	1.916
-1.022	-5.912	1.909
-1.038	-5.918	1.897
-1.044	-5.933	1.883
-1.037	-5.950	1.872
-1.021	-5.963	1.870
-1.002	-5.968	1.876
-1.264	-6.458	2.452
-1.259	-6.445	2.468
-1.265	-6.429	2.479
-1.282	-6.416	2.483
-1.301	-6.411	2.477
-1.317	-6.417	2.464
-1.322	-6.430	2.449
-1.316	-6.447	2.437
-1.299	-6.459	2.434
-1.280	-6.464	2.439
-1.473	-6.851	2.853
-1.468	-6.839	2.869
-1.475	-6.823	2.881
-1.492	-6.811	2.886
-1.511	-6.807	2.880
-1.527	-6.812	2.867
-1.532	-6.825	2.851
-1.525	-6.840	2.839
-1.509	-6.852	2.834
-1.489	-6.857	2.839
-1.664	-7.316	3.266
-1.658	-7.304	3.282
-1.666	-7.289	3.296
-1.682	-7.278	3.301
-1.703	-7.274	3.297
-1.718	-7.280	3.284
-1.724	-7.292	3.268
-1.717	-7.306	3.254
-1.700	-7.318	3.248
-1.680	-7.321	3.253
-1.847	-7.831	3.709
-1.841	-7.819	3.725
-1.848	-7.805	3.739
-1.865	-7.794	3.745
-1.886	-7.791	3.741
-1.902	-7.796	3.728
-1.907	-7.808	3.712
-1.900	-7.822	3.698
-1.883	-7.833	3.692
-1.863	-7.836	3.696
-1.938	-8.110	3.937
-1.932	-8.098	3.954
-1.939	-8.084	3.968
-1.956	-8.073	3.974
-1.977	-8.070	3.970
-1.993	-8.075	3.957
-1.998	-8.087	3.941
-1.991	-8.101	3.927
-1.974	-8.111	3.920
-1.954	-8.115	3.924
0.005	-4.726	0.022
0.005	-4.708	0.033
0.004	-4.687	0.032
0.001	-4.671	0.018
-0.001	-4.666	-0.002
-0.003	-4.674	-0.021
-0.003	-4.692	-0.033
-0.001	-4.713	-0.031
0.001	-4.729	-0.018
0.004	-4.734	0.003
-0.432	-4.756	0.069
-0.432	-4.738	0.080
-0.433	-4.717	0.078
-0.436	-4.701	0.065
-0.438	-4.697	0.045
-0.440	-4.705	0.025
-0.440	-4.722	0.014
-0.438	-4.743	0.016
-0.436	-4.759	0.029
-0.433	-4.764	0.049
0.027	-4.721	-0.005
0.035	-4.702	-0.003
0.030	-4.681	-0.001
0.013	-4.668	0.002
-0.007	-4.667	0.005
-0.025	-4.679	0.005
-0.033	-4.698	0.004
-0.027	-4.719	0.001
-0.011	-4.732	-0.002
0.010	-4.733	-0.004
0.073	-4.767	0.431
0.081	-4.747	0.432
0.075	-4.727	0.435
0.059	-4.714	0.438
0.038	-4.713	0.440
0.021	-4.725	0.441
0.013	-4.744	0.439
0.019	-4.764	0.437
0.035	-4.777	0.434
0.056	-4.778	0.431
0.002	-4.676	-0.024
0.004	-4.667	-0.006
0.005	-4.670	0.015
0.004	-4.684	0.030
0.003	-4.705	0.034
0.001	-4.724	0.025
-0.001	-4.733	0.006
-0.002	-4.730	-0.015
-0.002	-4.716	-0.030
-0.000	-4.695	-0.033
0.440	-4.713	-0.048
0.442	-4.703	-0.030
0.442	-4.706	-0.009
0.442	-4.721	0.006
0.440	-4.742	0.010
0.438	-4.761	0.000
0.437	-4.770	-0.018
0.436	-4.767	-0.039
0.436	-4.752	-0.054
0.438	-4.732	-0.058
-0.023	-4.676	0.001
-0.005	-4.667	-0.002
0.016	-4.670	-0.004
0.031	-4.685	-0.004
0.035	-4.705	-0.003
0.025	-4.724	-0.000
0.007	-4.733	0.003
-0.014	-4.730	0.004
-0.029	-4.715	0.005
-0.032	-4.695	0.003
-0.067	-4.715	-0.436
-0.049	-4.705	-0.439
-0.028	-4.708	-0.440
-0.013	-4.723	-0.441
-0.010	-4.744	-0.439
-0.019	-4.762	-0.437
-0.037	-4.772	-0.434
-0.058	-4.769	-0.432
-0.073	-4.754	-0.432
-0.077	-4.733	-0.433
-0.152	-5.000	0.152
-0.034	-5.000	0.212
0.098	-5.000	0.191
0.191	-5.000	0.098
0.212	-5.000	-0.034
0.152	-5.000	-0.152
0.034	-5.000	-0.212
-0.098	-5.000	-0.191
-0.191	-5.000	-0.098
-0.212	-5.000	0.034
-0.149	-4.040	0.150
-0.033	-4.040	0.209
0.097	-4.040	0.189
0.189	-4.040	0.096
0.210	-4.040	-0.033
0.150	-4.040	-0.150
0.034	-4.040	-0.209
-0.096	-4.040	-0.189
-0.188	-4.040	-0.096
-0.209	-4.040	0.033
-0.151	-3.560	0.148
-0.035	-3.560	0.207
0.094	-3.559	0.187
0.186	-3.559	0.095
0.207	-3.560	-0.034
0.147	-3.560	-0.150
0.031	-3.560	-0.209
-0.098	-3.561	-0.189
-0.190	-3.561	-0.097
-0.210	-3.560	0.032
-0.151	-2.999	0.146
-0.035	-2.999	0.205
0.093	-2.999	0.185
0.185	-3.000	0.093
0.206	-3.000	-0.035
0.147	-3.001	-0.151
0.031	-3.001	-0.210
-0.097	-3.001	-0.190
-0.189	-3.000	-0.098
-0.210	-3.000	0.030
-0.151	-2.399	0.142
-0.036	-2.399	0.201
0.092	-2.399	0.181
0.184	-2.400	0.090
0.204	-2.400	-0.038
0.146	-2.401	-0.153
[...]
         <CellData>
           <DataArray type="Float32" Name="combinedRootClassID" NumberOfComponents="1" format="ascii">
 -5.000e+00 -5.000e+00 -5.000e+00 -5.000e+00 -5.000e+00 -5.000e+00 -5.000e+00 -5.000e+00 -5.000e+00 -5.000e+00 -5.000e+00 -5.000e+00 -5.000e+00 -5.000e+00 -5.000e+00 -5.000e+00 -5.000e+00 -5.000e+00 -5.000e+00 -5.000e+00 -5.000e+00 -5.000e+00 -5.000e+00 -5.000e+00 -5.000e+00 -5.000e+00 -5.000e+00 -5.000e+00 -5.000e+00 -5.000e+00 -5.000e+00 -5.000e+00 -1.100e+01 -1.100e+01 -1.100e+01 -1.100e+01 -2.000e+00 -2.000e+00 -2.000e+00 -2.000e+00 -2.000e+00 -2.000e+00 -2.000e+00 -2.000e+00 -2.000e+00 -2.000e+00 -2.000e+00 -2.000e+00 -7.000e+00 -7.000e+00 -7.000e+00 -7.000e+00 -7.000e+00 -7.000e+00 -7.000e+00 -7.000e+00 -7.000e+00 -7.000e+00 -7.000e+00 -7.000e+00 -7.000e+00 -7.000e+00 -7.000e+00 -7.000e+00 -7.000e+00 -7.000e+00 -7.000e+00 -7.000e+00 -7.000e+00 -7.000e+00 -7.000e+00 -7.000e+00 -7.000e+00 -7.000e+00 -7.000e+00 -7.000e+00 -7.000e+00 -7.000e+00 -7.000e+00 -7.000e+00 -7.000e+00 -7.000e+00 -7.000e+00 -7.000e+00 -7.000e+00 -7.000e+00 -7.000e+00 -7.000e+00 -7.000e+00 -7.000e+00 -7.000e+00 -7.000e+00 -7.000e+00 -7.000e+00 -7.000e+00 -7.000e+00 -7.000e+00 -7.000e+00 -7.000e+00 -7.000e+00 -7.000e+00 -7.000e+00 -7.000e+00 -7.000e+00 -7.000e+00 -7.000e+00 -7.000e+00 -7.000e+00 -7.000e+00 -7.000e+00 -7.000e+00 -7.000e+00 -7.000e+00 -7.000e+00 -7.000e+00 -7.000e+00 -7.000e+00 -7.000e+00 -7.000e+00 -7.000e+00 -7.000e+00 -7.000e+00 -7.000e+00 -7.000e+00 -7.000e+00 -7.000e+00 -7.000e+00 -7.000e+00 -7.000e+00 -7.000e+00 -7.000e+00 -7.000e+00 -7.000e+00 -7.000e+00 -7.000e+00 -7.000e+00 -7.000e+00 -7.000e+00 -7.000e+00 -7.000e+00 -7.000e+00 -7.000e+00 -7.000e+00 -7.000e+00 -7.000e+00 -7.000e+00 -7.000e+00 -7.000e+00 -7.000e+00 -7.000e+00 -7.000e+00 -7.000e+00 -7.000e+00 -7.000e+00 -7.000e+00 -7.000e+00 -7.000e+00 -7.000e+00 -7.000e+00 -7.000e+00 -9.000e+00 -9.000e+00 -4.000e+00 -4.000e+00 -4.000e+00 -4.000e+00 -4.000e+00 -4.000e+00 -4.000e+00 -4.000e+00 -4.000e+00 -4.000e+00 -4.000e+00 -4.000e+00 -4.000e+00 -4.000e+00 -4.000e+00 -4.000e+00 -4.000e+00 -4.000e+00 -4.000e+00 -4.000e+00 -4.000e+00 -4.000e+00 -4.000e+00 -4.000e+00 -4.000e+00 -4.000e+00 -4.000e+00 -4.000e+00 -4.000e+00 -4.000e+00 -4.000e+00 -4.000e+00 -4.000e+00 -4.000e+00
           </DataArray>
           <DataArray type="Float32" Name="nitrate/minimalNutrientConcentration" NumberOfComponents="1" format="ascii">
 6.000e+02 6.000e+02 6.000e+02 6.000e+02 6.000e+02 6.000e+02 6.000e+02 6.000e+02 6.000e+02 6.000e+02 6.000e+02 6.000e+02 6.000e+02 6.000e+02 6.000e+02 6.000e+02 6.000e+02 6.000e+02 6.000e+02 6.000e+02 6.000e+02 6.000e+02 6.000e+02 6.000e+02 6.000e+02 6.000e+02 6.000e+02 6.000e+02 6.000e+02 6.000e+02 6.000e+02 6.000e+02 6.000e+02 6.000e+02 6.000e+02 6.000e+02 6.000e+02 6.000e+02 6.000e+02 6.000e+02 6.000e+02 6.000e+02 6.000e+02 6.000e+02 6.000e+02 6.000e+02 6.000e+02 6.000e+02 6.000e+02 6.000e+02 6.000e+02 6.000e+02 6.000e+02 6.000e+02 6.000e+02 6.000e+02 6.000e+02 6.000e+02 6.000e+02 6.000e+02 6.000e+02 6.000e+02 6.000e+02 6.000e+02 6.000e+02 6.000e+02 6.000e+02 6.000e+02 6.000e+02 6.000e+02 6.000e+02 6.000e+02 6.000e+02 6.000e+02 6.000e+02 6.000e+02 6.000e+02 6.000e+02 6.000e+02 6.000e+02 6.000e+02 6.000e+02 6.000e+02 6.000e+02 6.000e+02 6.000e+02 6.000e+02 6.000e+02 6.000e+02 6.000e+02 6.000e+02 6.000e+02 6.000e+02 6.000e+02 6.000e+02 6.000e+02 6.000e+02 6.000e+02 6.000e+02 6.000e+02 6.000e+02 6.000e+02 6.000e+02 6.000e+02 6.000e+02 6.000e+02 6.000e+02 6.000e+02 6.000e+02 6.000e+02 6.000e+02 6.000e+02 6.000e+02 6.000e+02 6.000e+02 6.000e+02 6.000e+02 6.000e+02 6.000e+02 6.000e+02 6.000e+02 6.000e+02 6.000e+02 6.000e+02 6.000e+02 6.000e+02 6.000e+02 6.000e+02 6.000e+02 6.000e+02 6.000e+02 6.000e+02 6.000e+02 6.000e+02 6.000e+02 6.000e+02 6.000e+02 6.000e+02 6.000e+02 6.000e+02 6.000e+02 6.000e+02 6.000e+02 6.000e+02 6.000e+02 6.000e+02 6.000e+02 6.000e+02 6.000e+02 6.000e+02 6.000e+02 6.000e+02 6.000e+02 6.000e+02 6.000e+02 6.000e+02 6.000e+02 6.000e+02 6.000e+02 6.000e+02 6.000e+02 6.000e+02 6.000e+02 6.000e+02 6.000e+02 6.000e+02 6.000e+02 6.000e+02 6.000e+02 6.000e+02 6.000e+02 6.000e+02 6.000e+02 6.000e+02 6.000e+02 6.000e+02 6.000e+02 6.000e+02 6.000e+02 6.000e+02 6.000e+02 6.000e+02 6.000e+02 6.000e+02 6.000e+02 6.000e+02 6.000e+02 6.000e+02 6.000e+02 6.000e+02 6.000e+02 6.000e+02 6.000e+02 6.000e+02 6.000e+02 6.000e+02
           </DataArray>
           <DataArray type="Float32" Name="nitrate/optimalNutrientConcentration" NumberOfComponents="1" format="ascii">
 1.200e+03 1.200e+03 1.200e+03 1.200e+03 1.200e+03 1.200e+03 1.200e+03 1.200e+03 1.200e+03 1.200e+03 1.200e+03 1.200e+03 1.200e+03 1.200e+03 1.200e+03 1.200e+03 1.200e+03 1.200e+03 1.200e+03 1.200e+03 1.200e+03 1.200e+03 1.200e+03 1.200e+03 1.200e+03 1.200e+03 1.200e+03 1.200e+03 1.200e+03 1.200e+03 1.200e+03 1.200e+03 1.200e+03 1.200e+03 1.200e+03 1.200e+03 1.200e+03 1.200e+03 1.200e+03 1.200e+03 1.200e+03 1.200e+03 1.200e+03 1.200e+03 1.200e+03 1.200e+03 1.200e+03 1.200e+03 1.200e+03 1.200e+03 1.200e+03 1.200e+03 1.200e+03 1.200e+03 1.200e+03 1.200e+03 1.200e+03 1.200e+03 1.200e+03 1.200e+03 1.200e+03 1.200e+03 1.200e+03 1.200e+03 1.200e+03 1.200e+03 1.200e+03 1.200e+03 1.200e+03 1.200e+03 1.200e+03 1.200e+03 1.200e+03 1.200e+03 1.200e+03 1.200e+03 1.200e+03 1.200e+03 1.200e+03 1.200e+03 1.200e+03 1.200e+03 1.200e+03 1.200e+03 1.200e+03 1.200e+03 1.200e+03 1.200e+03 1.200e+03 1.200e+03 1.200e+03 1.200e+03 1.200e+03 1.200e+03 1.200e+03 1.200e+03 1.200e+03 1.200e+03 1.200e+03 1.200e+03 1.200e+03 1.200e+03 1.200e+03 1.200e+03 1.200e+03 1.200e+03 1.200e+03 1.200e+03 1.200e+03 1.200e+03 1.200e+03 1.200e+03 1.200e+03 1.200e+03 1.200e+03 1.200e+03 1.200e+03 1.200e+03 1.200e+03 1.200e+03 1.200e+03 1.200e+03 1.200e+03 1.200e+03 1.200e+03 1.200e+03 1.200e+03 1.200e+03 1.200e+03 1.200e+03 1.200e+03 1.200e+03 1.200e+03 1.200e+03 1.200e+03 1.200e+03 1.200e+03 1.200e+03 1.200e+03 1.200e+03 1.200e+03 1.200e+03 1.200e+03 1.200e+03 1.200e+03 1.200e+03 1.200e+03 1.200e+03 1.200e+03 1.200e+03 1.200e+03 1.200e+03 1.200e+03 1.200e+03 1.200e+03 1.200e+03 1.200e+03 1.200e+03 1.200e+03 1.200e+03 1.200e+03 1.200e+03 1.200e+03 1.200e+03 1.200e+03 1.200e+03 1.200e+03 1.200e+03 1.200e+03 1.200e+03 1.200e+03 1.200e+03 1.200e+03 1.200e+03 1.200e+03 1.200e+03 1.200e+03 1.200e+03 1.200e+03 1.200e+03 1.200e+03 1.200e+03 1.200e+03 1.200e+03 1.200e+03 1.200e+03 1.200e+03 1.200e+03 1.200e+03 1.200e+03 1.200e+03 1.200e+03 1.200e+03 1.200e+03 1.200e+03 1.200e+03
           </DataArray>
           <DataArray type="Float32" Name="nitrate/radiusDepletionZone" NumberOfComponents="1" format="ascii">
 3.401e-02 3.400e-02 9.925e-01 7.924e-01 6.113e-01 4.535e-01 3.051e-01 1.654e-01 3.401e-02 3.400e-02 9.925e-01 7.924e-01 6.113e-01 4.535e-01 3.051e-01 1.654e-01 3.401e-02 3.400e-02 9.852e-01 7.924e-01 6.113e-01 4.535e-01 3.051e-01 1.654e-01 3.401e-02 3.400e-02 1.031e+00 7.924e-01 6.113e-01 4.535e-01 3.051e-01 1.654e-01 3.400e-02 3.400e-02 3.400e-02 3.400e-02 2.665e+00 3.179e+00 2.216e+01 1.772e+01 1.401e+01 1.201e+01 1.050e+01 8.830e+00 7.945e+00 2.043e-01 2.039e-01 2.032e-01 1.502e-02 1.500e-02 4.496e-01 1.502e-02 1.501e-02 5.707e-01 1.501e-02 1.500e-02 4.569e-01 1.501e-02 1.500e-02 1.505e-01 1.501e-02 1.500e-02 1.501e-02 1.500e-02 1.501e-02 1.500e-02 2.244e-01 1.501e-02 1.500e-02 1.501e-02 1.500e-02 1.501e-02 1.500e-02 1.501e-02 1.500e-02 1.501e-02 1.500e-02 1.502e-02 1.500e-02 1.501e-02 1.500e-02 1.501e-02 1.500e-02 1.501e-02 1.500e-02 1.501e-02 1.500e-02 1.501e-02 1.500e-02 1.500e-02 1.500e-02 1.500e-02 1.500e-02 1.500e-02 1.500e-02 1.500e-02 1.500e-02 1.500e-02 1.500e-02 1.501e-02 1.500e-02 5.297e-01 1.500e-02 1.500e-02 1.500e-02 1.500e-02 1.500e-02 1.500e-02 1.500e-02 1.500e-02 1.500e-02 1.500e-02 1.500e-02 1.500e-02 1.500e-02 1.500e-02 1.500e-02 1.500e-02 1.500e-02 1.501e-02 1.500e-02 2.993e-01 1.500e-02 1.500e-02 1.500e-02 1.500e-02 1.500e-02 1.500e-02 1.500e-02 1.500e-02 1.500e-02 1.500e-02 1.500e-02 1.501e-02 1.500e-02 1.500e-02 1.500e-02 1.500e-02 1.500e-02 1.500e-02 1.500e-02 1.500e-02 1.500e-02 1.500e-02 1.500e-02 1.501e-02 1.500e-02 5.358e-01 1.500e-02 1.500e-02 1.500e-02 1.500e-02 1.501e-02 1.500e-02 3.731e-01 1.501e-02 1.500e-02 1.501e-02 1.500e-02 4.881e-01 1.501e-02 1.500e-02 2.117e+00 4.646e+01 2.318e+01 1.738e+01 1.390e+01 1.083e+01 9.279e+00 7.553e+00 6.712e+00 6.039e+00 5.079e+00 4.655e+00 3.948e+00 3.666e+00 3.421e+00 2.925e+00 2.752e+00 2.599e+00 2.224e+00 2.113e+00 1.797e+00 1.715e+00 1.640e+00 1.384e+00 1.328e+00 1.277e+00 1.062e+00 1.024e+00 8.331e-01 8.053e-01 6.336e-01 6.138e-01 4.583e-01 3.120e-01
           </DataArray>
           <DataArray type="Float32" Name="nitrate/rootSegmentMinimalNutrientContent" NumberOfComponents="1" format="ascii">
 1.945e-01 1.502e-01 1.406e-01 1.646e-01 1.230e-01 1.337e-01 1.443e-01 7.615e-02 1.945e-01 1.502e-01 1.406e-01 1.646e-01 1.230e-01 1.337e-01 1.443e-01 7.615e-02 1.945e-01 1.502e-01 1.406e-01 1.646e-01 1.230e-01 1.337e-01 1.443e-01 7.615e-02 1.945e-01 1.502e-01 1.406e-01 1.646e-01 1.230e-01 1.337e-01 1.443e-01 7.615e-02 9.025e-02 9.025e-02 9.025e-02 9.025e-02 7.745e+00 3.818e+00 4.416e+00 4.691e+00 4.653e+00 4.616e+00 4.582e+00 4.548e+00 4.216e+00 3.590e+00 5.354e+00 5.898e+00 3.474e-02 3.110e-02 1.864e-02 3.449e-02 3.540e-02 2.475e-02 3.177e-02 3.203e-02 9.602e-03 3.145e-02 3.312e-02 9.930e-03 3.258e-02 3.236e-02 3.170e-02 2.721e-02 3.073e-02 3.332e-02 6.661e-03 3.493e-02 2.663e-02 3.401e-02 2.691e-02 3.315e-02 3.332e-02 3.461e-02 2.402e-02 3.142e-02 3.453e-02 3.322e-02 3.240e-02 3.510e-02 1.283e-02 3.570e-02 2.221e-02 3.126e-02 2.546e-02 3.260e-02 1.715e-02 3.196e-02 2.243e-02 3.447e-02 1.492e-02 3.403e-02 1.529e-02 3.073e-02 1.050e-02 3.565e-02 1.264e-02 3.132e-02 1.590e-02 3.335e-02 3.371e-02 2.021e-02 3.190e-02 8.371e-03 3.361e-02 1.344e-02 3.208e-02 5.541e-03 3.463e-02 6.209e-03 3.082e-02 9.502e-03 3.146e-02 1.014e-02 3.199e-02 6.475e-03 3.349e-02 3.475e-02 3.153e-02 3.191e-02 3.338e-02 5.559e-03 3.002e-02 3.269e-03 2.949e-02 2.954e-02 2.801e-02 2.252e-02 2.733e-02 2.479e-02 2.052e-02 1.918e-02 1.943e-02 3.537e-02 3.251e-02 2.151e-02 1.674e-02 1.656e-02 1.406e-02 1.124e-02 1.262e-02 1.103e-02 9.896e-03 7.315e-03 6.164e-03 3.107e-02 3.230e-02 1.614e-02 4.547e-03 3.818e-03 2.726e-03 1.216e-03 2.955e-02 3.215e-02 1.606e-02 3.271e-02 3.333e-02 3.126e-02 3.346e-02 1.337e-02 3.412e-02 2.803e-02 4.678e-01 2.288e-01 2.240e-01 2.195e-01 2.151e-01 2.110e-01 2.071e-01 2.033e-01 1.998e-01 1.965e-01 1.934e-01 1.907e-01 1.883e-01 1.862e-01 1.845e-01 1.830e-01 1.815e-01 1.802e-01 1.789e-01 1.777e-01 1.766e-01 1.756e-01 1.746e-01 1.737e-01 1.729e-01 1.722e-01 1.716e-01 1.710e-01 1.705e-01 1.701e-01 1.697e-01 1.695e-01 1.693e-01 1.692e-01
           </DataArray>
           <DataArray type="Float32" Name="nitrate/rootSegmentNutrientUptake" NumberOfComponents="1" format="ascii">
 0.000e+00 0.000e+00 3.086e-01 2.660e-01 1.400e-01 9.998e-02 5.151e-02 5.166e-03 0.000e+00 0.000e+00 3.086e-01 2.660e-01 1.400e-01 9.998e-02 5.151e-02 5.165e-03 0.000e+00 0.000e+00 3.091e-01 2.660e-01 1.400e-01 9.998e-02 5.151e-02 5.166e-03 0.000e+00 0.000e+00 3.091e-01 2.659e-01 1.400e-01 9.997e-02 5.150e-02 5.166e-03 0.000e+00 0.000e+00 0.000e+00 0.000e+00 4.618e+00 4.990e+00 2.743e+00 2.909e+00 2.890e+00 2.852e+00 2.829e+00 2.786e+00 2.564e+00 0.000e+00 0.000e+00 0.000e+00 0.000e+00 0.000e+00 2.429e-02 0.000e+00 0.000e+00 3.795e-02 0.000e+00 0.000e+00 5.113e-03 0.000e+00 0.000e+00 6.263e-03 0.000e+00 0.000e+00 0.000e+00 0.000e+00 0.000e+00 0.000e+00 2.885e-03 0.000e+00 0.000e+00 0.000e+00 0.000e+00 0.000e+00 0.000e+00 0.000e+00 0.000e+00 0.000e+00 0.000e+00 0.000e+00 0.000e+00 0.000e+00 0.000e+00 0.000e+00 0.000e+00 0.000e+00 0.000e+00 0.000e+00 0.000e+00 0.000e+00 0.000e+00 0.000e+00 0.000e+00 0.000e+00 0.000e+00 0.000e+00 0.000e+00 0.000e+00 0.000e+00 0.000e+00 0.000e+00 0.000e+00 0.000e+00 2.628e-02 0.000e+00 0.000e+00 0.000e+00 0.000e+00 0.000e+00 0.000e+00 0.000e+00 0.000e+00 0.000e+00 0.000e+00 0.000e+00 0.000e+00 0.000e+00 0.000e+00 0.000e+00 0.000e+00 0.000e+00 0.000e+00 0.000e+00 1.384e-03 0.000e+00 0.000e+00 0.000e+00 0.000e+00 0.000e+00 0.000e+00 0.000e+00 0.000e+00 0.000e+00 0.000e+00 0.000e+00 0.000e+00 0.000e+00 0.000e+00 0.000e+00 0.000e+00 0.000e+00 0.000e+00 0.000e+00 0.000e+00 0.000e+00 0.000e+00 0.000e+00 0.000e+00 0.000e+00 1.735e-02 0.000e+00 0.000e+00 0.000e+00 0.000e+00 0.000e+00 0.000e+00 1.763e-02 0.000e+00 0.000e+00 0.000e+00 0.000e+00 1.104e-02 0.000e+00 0.000e+00 2.877e+00 1.229e+00 1.436e+00 1.417e+00 1.392e+00 1.362e+00 1.328e+00 1.289e+00 1.248e+00 1.204e+00 1.158e+00 1.112e+00 1.064e+00 1.016e+00 9.678e-01 9.190e-01 8.699e-01 8.206e-01 7.712e-01 7.215e-01 6.718e-01 6.218e-01 5.716e-01 5.214e-01 4.712e-01 4.210e-01 3.709e-01 3.207e-01 2.705e-01 2.204e-01 1.702e-01 1.200e-01 6.984e-02 1.995e-02
           </DataArray>
           <DataArray type="Float32" Name="nitrate/rootSegmentOptimalNutrientContent" NumberOfComponents="1" format="ascii">
 3.889e-01 3.003e-01 2.812e-01 3.291e-01 2.460e-01 2.673e-01 2.886e-01 1.523e-01 3.889e-01 3.003e-01 2.812e-01 3.291e-01 2.460e-01 2.673e-01 2.886e-01 1.523e-01 3.889e-01 3.003e-01 2.812e-01 3.291e-01 2.460e-01 2.673e-01 2.886e-01 1.523e-01 3.889e-01 3.003e-01 2.812e-01 3.291e-01 2.460e-01 2.673e-01 2.886e-01 1.523e-01 1.805e-01 1.805e-01 1.805e-01 1.805e-01 1.549e+01 7.636e+00 8.831e+00 9.382e+00 9.306e+00 9.233e+00 9.163e+00 9.097e+00 8.432e+00 7.181e+00 1.071e+01 1.180e+01 6.948e-02 6.219e-02 3.728e-02 6.897e-02 7.080e-02 4.951e-02 6.355e-02 6.405e-02 1.920e-02 6.290e-02 6.624e-02 1.986e-02 6.516e-02 6.472e-02 6.339e-02 5.441e-02 6.146e-02 6.665e-02 1.332e-02 6.986e-02 5.327e-02 6.803e-02 5.382e-02 6.630e-02 6.664e-02 6.923e-02 4.804e-02 6.283e-02 6.907e-02 6.644e-02 6.480e-02 7.021e-02 2.566e-02 7.139e-02 4.441e-02 6.253e-02 5.091e-02 6.519e-02 3.430e-02 6.393e-02 4.486e-02 6.893e-02 2.983e-02 6.805e-02 3.058e-02 6.146e-02 2.100e-02 7.129e-02 2.528e-02 6.265e-02 3.179e-02 6.669e-02 6.742e-02 4.041e-02 6.379e-02 1.674e-02 6.721e-02 2.687e-02 6.417e-02 1.108e-02 6.927e-02 1.242e-02 6.163e-02 1.900e-02 6.293e-02 2.029e-02 6.398e-02 1.295e-02 6.698e-02 6.949e-02 6.307e-02 6.383e-02 6.676e-02 1.112e-02 6.004e-02 6.539e-03 5.897e-02 5.908e-02 5.603e-02 4.504e-02 5.466e-02 4.957e-02 4.105e-02 3.837e-02 3.886e-02 7.074e-02 6.503e-02 4.302e-02 3.348e-02 3.311e-02 2.813e-02 2.247e-02 2.524e-02 2.206e-02 1.979e-02 1.463e-02 1.233e-02 6.214e-02 6.461e-02 3.228e-02 9.093e-03 7.636e-03 5.452e-03 2.432e-03 5.911e-02 6.430e-02 3.212e-02 6.541e-02 6.666e-02 6.252e-02 6.691e-02 2.675e-02 6.825e-02 5.605e-02 9.357e-01 4.576e-01 4.481e-01 4.389e-01 4.302e-01 4.220e-01 4.141e-01 4.067e-01 3.996e-01 3.929e-01 3.868e-01 3.814e-01 3.766e-01 3.725e-01 3.690e-01 3.660e-01 3.631e-01 3.604e-01 3.578e-01 3.554e-01 3.532e-01 3.511e-01 3.492e-01 3.474e-01 3.458e-01 3.444e-01 3.431e-01 3.420e-01 3.410e-01 3.402e-01 3.395e-01 3.390e-01 3.386e-01 3.384e-01
           </DataArray>
           <DataArray type="Float32" Name="parentRootClassID" NumberOfComponents="1" format="ascii">
 -2.000e+00 -2.000e+00 -2.000e+00 -2.000e+00 -2.000e+00 -2.000e+00 -2.000e+00 -2.000e+00 -2.000e+00 -2.000e+00 -2.000e+00 -2.000e+00 -2.000e+00 -2.000e+00 -2.000e+00 -2.000e+00 -2.000e+00 -2.000e+00 -2.000e+00 -2.000e+00 -2.000e+00 -2.000e+00 -2.000e+00 -2.000e+00 -2.000e+00 -2.000e+00 -2.000e+00 -2.000e+00 -2.000e+00 -2.000e+00 -2.000e+00 -2.000e+00 -2.000e+00 -2.000e+00 -2.000e+00 -2.000e+00 -3.000e+00 -3.000e+00 -3.000e+00 -3.000e+00 -3.000e+00 -3.000e+00 -3.000e+00 -3.000e+00 -3.000e+00 -3.000e+00 -3.000e+00 -3.000e+00 -4.000e+00 -4.000e+00 -4.000e+00 -4.000e+00 -4.000e+00 -4.000e+00 -4.000e+00 -4.000e+00 -4.000e+00 -4.000e+00 -4.000e+00 -4.000e+00 -4.000e+00 -4.000e+00 -4.000e+00 -4.000e+00 -4.000e+00 -4.000e+00 -4.000e+00 -4.000e+00 -4.000e+00 -4.000e+00 -4.000e+00 -4.000e+00 -4.000e+00 -4.000e+00 -4.000e+00 -4.000e+00 -4.000e+00 -4.000e+00 -4.000e+00 -4.000e+00 -4.000e+00 -4.000e+00 -4.000e+00 -4.000e+00 -4.000e+00 -4.000e+00 -4.000e+00 -4.000e+00 -4.000e+00 -4.000e+00 -4.000e+00 -4.000e+00 -4.000e+00 -4.000e+00 -4.000e+00 -4.000e+00 -4.000e+00 -4.000e+00 -4.000e+00 -4.000e+00 -4.000e+00 -4.000e+00 -4.000e+00 -4.000e+00 -4.000e+00 -4.000e+00 -4.000e+00 -4.000e+00 -4.000e+00 -4.000e+00 -4.000e+00 -4.000e+00 -4.000e+00 -4.000e+00 -4.000e+00 -4.000e+00 -4.000e+00 -4.000e+00 -4.000e+00 -4.000e+00 -4.000e+00 -4.000e+00 -4.000e+00 -4.000e+00 -4.000e+00 -4.000e+00 -4.000e+00 -4.000e+00 -4.000e+00 -4.000e+00 -4.000e+00 -4.000e+00 -4.000e+00 -4.000e+00 -4.000e+00 -4.000e+00 -4.000e+00 -4.000e+00 -4.000e+00 -4.000e+00 -4.000e+00 -4.000e+00 -4.000e+00 -4.000e+00 -4.000e+00 -4.000e+00 -4.000e+00 -4.000e+00 -4.000e+00 -4.000e+00 -4.000e+00 -4.000e+00 -4.000e+00 -4.000e+00 -4.000e+00 -4.000e+00 -4.000e+00 -4.000e+00 -4.000e+00 -4.000e+00 -4.000e+00 -4.000e+00 -3.000e+00 -3.000e+00 -3.000e+00 -3.000e+00 -3.000e+00 -3.000e+00 -3.000e+00 -3.000e+00 -3.000e+00 -3.000e+00 -3.000e+00 -3.000e+00 -3.000e+00 -3.000e+00 -3.000e+00 -3.000e+00 -3.000e+00 -3.000e+00 -3.000e+00 -3.000e+00 -3.000e+00 -3.000e+00 -3.000e+00 -3.000e+00 -3.000e+00 -3.000e+00 -3.000e+00 -3.000e+00 -3.000e+00 -3.000e+00 -3.000e+00 -3.000e+00 -3.000e+00 -3.000e+00
           </DataArray>
           <DataArray type="Float32" Name="plantID" NumberOfComponents="1" format="ascii">
 8.000e+00 8.000e+00 8.000e+00 8.000e+00 8.000e+00 8.000e+00 8.000e+00 8.000e+00 8.000e+00 8.000e+00 8.000e+00 8.000e+00 8.000e+00 8.000e+00 8.000e+00 8.000e+00 8.000e+00 8.000e+00 8.000e+00 8.000e+00 8.000e+00 8.000e+00 8.000e+00 8.000e+00 8.000e+00 8.000e+00 8.000e+00 8.000e+00 8.000e+00 8.000e+00 8.000e+00 8.000e+00 8.000e+00 8.000e+00 8.000e+00 8.000e+00 8.000e+00 8.000e+00 8.000e+00 8.000e+00 8.000e+00 8.000e+00 8.000e+00 8.000e+00 8.000e+00 8.000e+00 8.000e+00 8.000e+00 8.000e+00 8.000e+00 8.000e+00 8.000e+00 8.000e+00 8.000e+00 8.000e+00 8.000e+00 8.000e+00 8.000e+00 8.000e+00 8.000e+00 8.000e+00 8.000e+00 8.000e+00 8.000e+00 8.000e+00 8.000e+00 8.000e+00 8.000e+00 8.000e+00 8.000e+00 8.000e+00 8.000e+00 8.000e+00 8.000e+00 8.000e+00 8.000e+00 8.000e+00 8.000e+00 8.000e+00 8.000e+00 8.000e+00 8.000e+00 8.000e+00 8.000e+00 8.000e+00 8.000e+00 8.000e+00 8.000e+00 8.000e+00 8.000e+00 8.000e+00 8.000e+00 8.000e+00 8.000e+00 8.000e+00 8.000e+00 8.000e+00 8.000e+00 8.000e+00 8.000e+00 8.000e+00 8.000e+00 8.000e+00 8.000e+00 8.000e+00 8.000e+00 8.000e+00 8.000e+00 8.000e+00 8.000e+00 8.000e+00 8.000e+00 8.000e+00 8.000e+00 8.000e+00 8.000e+00 8.000e+00 8.000e+00 8.000e+00 8.000e+00 8.000e+00 8.000e+00 8.000e+00 8.000e+00 8.000e+00 8.000e+00 8.000e+00 8.000e+00 8.000e+00 8.000e+00 8.000e+00 8.000e+00 8.000e+00 8.000e+00 8.000e+00 8.000e+00 8.000e+00 8.000e+00 8.000e+00 8.000e+00 8.000e+00 8.000e+00 8.000e+00 8.000e+00 8.000e+00 8.000e+00 8.000e+00 8.000e+00 8.000e+00 8.000e+00 8.000e+00 8.000e+00 8.000e+00 8.000e+00 8.000e+00 8.000e+00 8.000e+00 8.000e+00 8.000e+00 8.000e+00 8.000e+00 8.000e+00 8.000e+00 8.000e+00 8.000e+00 8.000e+00 8.000e+00 8.000e+00 8.000e+00 8.000e+00 8.000e+00 8.000e+00 8.000e+00 8.000e+00 8.000e+00 8.000e+00 8.000e+00 8.000e+00 8.000e+00 8.000e+00 8.000e+00 8.000e+00 8.000e+00 8.000e+00 8.000e+00 8.000e+00 8.000e+00 8.000e+00 8.000e+00 8.000e+00 8.000e+00 8.000e+00 8.000e+00 8.000e+00 8.000e+00 8.000e+00
           </DataArray>
           <DataArray type="Float32" Name="plantTypeID" NumberOfComponents="1" format="ascii">