<?xml version="1.0"?>
<VTKFile type="UnstructuredGrid" version="0.1" byte_order="LittleEndian">
   <UnstructuredGrid>
      <Piece NumberOfPoints="47120" NumberOfCells="3410">
         <Points>
            <DataArray type="Float32" Name="Position" NumberOfComponents="3" format="ascii">
-0.067	-5.033	-0.121
-0.067	-5.026	-0.116
-0.068	-5.017	-0.115
-0.071	-5.010	-0.119
-0.075	-5.006	-0.127
-0.077	-5.009	-0.136
-0.078	-5.016	-0.142
-0.076	-5.025	-0.143
-0.073	-5.033	-0.138
-0.069	-5.036	-0.130
-0.889	-5.216	0.155
-0.889	-5.209	0.161
-0.891	-5.200	0.163
-0.895	-5.193	0.159
-0.899	-5.189	0.152
-0.902	-5.191	0.144
-0.903	-5.198	0.137
-0.901	-5.207	0.136
-0.897	-5.215	0.139
-0.892	-5.218	0.147
-1.536	-5.493	0.523
-1.535	-5.487	0.530
-1.538	-5.479	0.533
-1.544	-5.472	0.532
-1.550	-5.468	0.525
-1.554	-5.469	0.517
-1.554	-5.475	0.510
-1.551	-5.483	0.507
-1.546	-5.490	0.508
-1.540	-5.494	0.515
-2.098	-5.958	0.846
-2.098	-5.954	0.854
-2.102	-5.947	0.859
-2.108	-5.940	0.859
-2.115	-5.936	0.854
-2.119	-5.936	0.845
-2.119	-5.941	0.837
-2.115	-5.947	0.832
-2.108	-5.954	0.832
-2.102	-5.958	0.837
-2.641	-6.559	1.088
-2.637	-6.551	1.088
-2.638	-6.542	1.088
-2.645	-6.535	1.088
-2.654	-6.534	1.088
-2.662	-6.538	1.088
-2.666	-6.546	1.088
-2.665	-6.555	1.088
-2.658	-6.562	1.088
-2.649	-6.563	1.088
-0.142	-5.073	-0.244
-0.141	-5.065	-0.239
-0.142	-5.056	-0.239
-0.144	-5.048	-0.244
-0.147	-5.046	-0.253
-0.149	-5.049	-0.261
-0.150	-5.056	-0.267
-0.149	-5.066	-0.267
-0.147	-5.073	-0.262
-0.144	-5.076	-0.253
-0.942	-5.149	-0.032
-0.941	-5.141	-0.027
-0.942	-5.132	-0.027
-0.944	-5.124	-0.031
-0.948	-5.122	-0.039
-0.951	-5.124	-0.048
-0.952	-5.132	-0.053
-0.951	-5.141	-0.053
-0.948	-5.148	-0.049
-0.945	-5.151	-0.041
-1.673	-5.258	0.360
-1.671	-5.250	0.365
-1.671	-5.241	0.365
-1.675	-5.233	0.361
-1.679	-5.230	0.353
-1.683	-5.233	0.346
-1.685	-5.241	0.340
-1.684	-5.250	0.340
-1.681	-5.257	0.344
-1.677	-5.260	0.352
-2.399	-5.301	0.770
-2.398	-5.294	0.775
-2.399	-5.285	0.776
-2.402	-5.277	0.771
-2.406	-5.274	0.763
-2.408	-5.277	0.754
-2.409	-5.285	0.749
-2.408	-5.294	0.748
-2.405	-5.301	0.753
-2.401	-5.304	0.761
-3.213	-5.503	0.895
-3.214	-5.497	0.902
-3.217	-5.488	0.903
-3.220	-5.480	0.898
-3.222	-5.477	0.890
-3.223	-5.479	0.881
-3.222	-5.486	0.875
-3.219	-5.495	0.874
-3.216	-5.502	0.878
-3.214	-5.505	0.886
-3.324	-5.546	0.914
-3.326	-5.539	0.920
-3.329	-5.531	0.922
-3.332	-5.523	0.918
-3.335	-5.519	0.910
-3.336	-5.521	0.901
-3.334	-5.528	0.894
-3.331	-5.536	0.892
-3.328	-5.544	0.896
-3.325	-5.547	0.905
-0.714	-5.773	-1.239
-0.711	-5.768	-1.232
-0.714	-5.764	-1.224
-0.721	-5.763	-1.219
-0.730	-5.764	-1.217
-0.738	-5.768	-1.221
-0.741	-5.774	-1.228
-0.738	-5.778	-1.236
-0.731	-5.779	-1.242
-0.722	-5.777	-1.243
-0.516	-6.498	-0.809
-0.513	-6.492	-0.803
-0.516	-6.487	-0.795
-0.523	-6.485	-0.790
-0.532	-6.487	-0.789
-0.540	-6.491	-0.792
-0.542	-6.497	-0.798
-0.540	-6.502	-0.806
-0.532	-6.504	-0.811
-0.523	-6.502	-0.812
-0.299	-7.109	-0.190
-0.296	-7.102	-0.184
-0.299	-7.097	-0.177
-0.307	-7.095	-0.172
-0.316	-7.097	-0.170
-0.323	-7.103	-0.173
-0.325	-7.109	-0.179
-0.322	-7.114	-0.186
-0.315	-7.116	-0.192
-0.306	-7.114	-0.193
-0.023	-7.790	0.311
-0.020	-7.784	0.318
-0.023	-7.780	0.326
-0.030	-7.779	0.332
-0.038	-7.781	0.334
-0.046	-7.786	0.330
-0.049	-7.791	0.324
-0.046	-7.796	0.316
-0.039	-7.797	0.310
-0.030	-7.794	0.308
0.095	-8.124	0.511
0.098	-8.118	0.518
0.096	-8.115	0.526
0.089	-8.113	0.532
0.080	-8.116	0.534
0.073	-8.120	0.530
0.070	-8.125	0.523
0.072	-8.129	0.515
0.079	-8.130	0.509
0.088	-8.128	0.508
-3.288	-17.487	-6.990
-3.285	-17.479	-6.986
-3.288	-17.472	-6.982
-3.296	-17.467	-6.979
-3.305	-17.467	-6.978
-3.312	-17.472	-6.981
-3.315	-17.480	-6.985
-3.312	-17.488	-6.989
-3.305	-17.492	-6.992
-3.296	-17.492	-6.992
-3.246	-17.908	-6.217
-3.243	-17.900	-6.213
-3.246	-17.893	-6.209
-3.254	-17.888	-6.207
-3.263	-17.888	-6.206
-3.271	-17.893	-6.209
-3.273	-17.901	-6.212
-3.271	-17.909	-6.217
-3.263	-17.913	-6.219
-3.254	-17.913	-6.220
-3.240	-18.037	-5.947
-3.237	-18.029	-5.943
-3.240	-18.021	-5.940
-3.248	-18.017	-5.937
-3.257	-18.017	-5.937
-3.264	-18.021	-5.939
-3.267	-18.029	-5.943
-3.265	-18.037	-5.947
-3.257	-18.042	-5.949
-3.248	-18.042	-5.949
-3.295	-17.631	-7.031
-3.292	-17.623	-7.027
-3.295	-17.616	-7.022
-3.303	-17.611	-7.019
-3.312	-17.612	-7.019
-3.319	-17.617	-7.021
-3.322	-17.625	-7.025
-3.319	-17.632	-7.030
-3.312	-17.637	-7.033
-3.303	-17.636	-7.033
-3.239	-18.046	-6.286
-3.236	-18.038	-6.281
-3.239	-18.031	-6.277
-3.246	-18.027	-6.274
-3.256	-18.027	-6.273
-3.263	-18.032	-6.275
-3.266	-18.040	-6.279
-3.263	-18.048	-6.284
-3.255	-18.052	-6.287
-3.246	-18.051	-6.288
-3.200	-18.198	-6.031
-3.197	-18.190	-6.027
-3.200	-18.182	-6.022
-3.208	-18.178	-6.018
-3.217	-18.179	-6.017
-3.224	-18.185	-6.019
-3.227	-18.192	-6.024
-3.224	-18.200	-6.028
-3.216	-18.204	-6.032
-3.207	-18.203	-6.033
-3.326	-17.759	-7.064
-3.319	-17.754	-7.066
-3.310	-17.754	-7.068
-3.303	-17.759	-7.070
-3.300	-17.768	-7.071
-3.303	-17.777	-7.070
-3.310	-17.782	-7.068
-3.319	-17.782	-7.065
-3.326	-17.777	-7.063
-3.329	-17.768	-7.063
-3.533	-17.777	-7.830
-3.526	-17.772	-7.832
-3.517	-17.772	-7.834
-3.510	-17.778	-7.836
-3.507	-17.787	-7.836
-3.510	-17.796	-7.835
-3.517	-17.801	-7.832
-3.526	-17.801	-7.830
-3.534	-17.795	-7.829
-3.536	-17.786	-7.828
-3.562	-17.787	-7.948
-3.555	-17.782	-7.950
-3.546	-17.783	-7.952
-3.538	-17.789	-7.953
-3.536	-17.798	-7.953
-3.539	-17.806	-7.952
-3.547	-17.811	-7.949
-3.556	-17.811	-7.947
-3.563	-17.805	-7.946
-3.565	-17.796	-7.946
-3.318	-17.903	-7.116
-3.315	-17.899	-7.108
-3.314	-17.900	-7.099
-3.314	-17.907	-7.093
-3.316	-17.915	-7.091
-3.320	-17.923	-7.094
-3.322	-17.927	-7.102
-3.324	-17.926	-7.111
-3.323	-17.920	-7.118
-3.321	-17.911	-7.120
-2.582	-18.126	-7.272
-2.579	-18.122	-7.264
-2.577	-18.124	-7.255
-2.577	-18.130	-7.248
-2.580	-18.139	-7.246
-2.584	-18.147	-7.250
-2.587	-18.150	-7.257
-2.589	-18.149	-7.266
-2.589	-18.142	-7.273
-2.586	-18.134	-7.275
-2.408	-18.201	-7.339
-2.404	-18.198	-7.331
-2.401	-18.199	-7.323
-2.401	-18.206	-7.316
-2.404	-18.215	-7.314
-2.409	-18.222	-7.317
-2.413	-18.225	-7.325
-2.416	-18.223	-7.333
-2.415	-18.217	-7.340
-2.412	-18.208	-7.342
-3.320	-18.070	-7.134
-3.322	-18.062	-7.129
-3.323	-18.053	-7.129
-3.325	-18.046	-7.135
-3.325	-18.043	-7.144
-3.325	-18.047	-7.152
-3.324	-18.054	-7.158
-3.322	-18.063	-7.157
-3.321	-18.070	-7.152
-3.320	-18.073	-7.143
-4.066	-18.209	-7.116
-4.068	-18.201	-7.111
-4.069	-18.192	-7.111
-4.071	-18.185	-7.117
-4.071	-18.182	-7.126
-4.071	-18.186	-7.135
-4.070	-18.193	-7.140
-4.068	-18.202	-7.139
-4.067	-18.209	-7.134
-4.066	-18.212	-7.125
-3.326	-18.193	-7.192
-3.324	-18.189	-7.184
-3.323	-18.190	-7.175
-3.324	-18.196	-7.168
-3.325	-18.205	-7.167
-3.327	-18.214	-7.170
-3.329	-18.218	-7.179
-3.330	-18.216	-7.188
-3.330	-18.210	-7.194
-3.328	-18.201	-7.196
-2.499	-18.358	-7.297
-2.495	-18.350	-7.297
-2.496	-18.341	-7.297
-2.503	-18.335	-7.297
-2.512	-18.333	-7.297
-2.520	-18.337	-7.297
-2.524	-18.346	-7.297
-2.523	-18.355	-7.297
-2.516	-18.361	-7.297
-2.507	-18.363	-7.297
-3.332	-18.337	-7.229
-3.329	-18.333	-7.221
-3.326	-18.336	-7.212
-3.325	-18.343	-7.206
-3.326	-18.352	-7.205
-3.329	-18.360	-7.210
-3.332	-18.363	-7.218
-3.335	-18.361	-7.226
-3.336	-18.354	-7.232
-3.335	-18.345	-7.233
-2.675	-18.440	-7.435
-2.667	-18.440	-7.431
-2.657	-18.440	-7.432
-2.651	-18.440	-7.439
-2.649	-18.440	-7.448
-2.654	-18.440	-7.456
-2.662	-18.440	-7.460
-2.671	-18.440	-7.459
-2.678	-18.440	-7.452
-2.679	-18.440	-7.443
-3.329	-18.506	-7.250
-3.330	-18.499	-7.244
-3.332	-18.490	-7.243
-3.335	-18.482	-7.247
-3.338	-18.479	-7.255
-3.340	-18.481	-7.264
-3.339	-18.488	-7.270
-3.337	-18.497	-7.272
-3.333	-18.504	-7.267
-3.331	-18.508	-7.259
-4.012	-18.718	-7.089
-4.013	-18.711	-7.083
-4.015	-18.702	-7.082
-4.018	-18.695	-7.086
-4.021	-18.691	-7.094
-4.023	-18.693	-7.103
-4.022	-18.700	-7.109
-4.020	-18.709	-7.110
-4.016	-18.716	-7.106
-4.014	-18.720	-7.098
-3.335	-18.629	-7.307
-3.333	-18.624	-7.299
-3.333	-18.625	-7.290
-3.334	-18.631	-7.283
-3.337	-18.639	-7.281
-3.339	-18.648	-7.284
-3.340	-18.652	-7.292
-3.341	-18.652	-7.301
-3.339	-18.646	-7.308
-3.337	-18.637	-7.311
-2.702	-18.803	-7.325
-2.697	-18.803	-7.317
-2.699	-18.803	-7.308
-2.705	-18.803	-7.301
-2.715	-18.803	-7.300
-2.723	-18.803	-7.304
-2.727	-18.803	-7.312
-2.726	-18.803	-7.322
-2.719	-18.803	-7.328
-2.710	-18.803	-7.330
-3.325	-18.789	-7.341
-3.323	-18.781	-7.336
-3.326	-18.774	-7.331
-3.334	-18.771	-7.327
-3.343	-18.772	-7.326
-3.350	-18.778	-7.328
-3.352	-18.785	-7.332
-3.349	-18.792	-7.337
-3.342	-18.796	-7.341
-3.332	-18.795	-7.343
-3.175	-19.199	-6.699
-3.173	-19.191	-6.695
-3.176	-19.184	-6.690
-3.184	-19.181	-6.686
-3.193	-19.183	-6.684
-3.200	-19.189	-6.685
-3.202	-19.197	-6.689
-3.198	-19.204	-6.694
-3.191	-19.207	-6.698
-3.182	-19.205	-6.700
-3.150	-19.226	-6.642
-3.148	-19.218	-6.639
-3.151	-19.211	-6.634
-3.159	-19.208	-6.629
-3.168	-19.210	-6.627
-3.174	-19.217	-6.627
-3.176	-19.225	-6.630
-3.172	-19.232	-6.635
-3.164	-19.235	-6.640
-3.156	-19.233	-6.643
-0.785	-5.853	-1.340
-0.780	-5.850	-1.333
-0.775	-5.853	-1.326
-0.772	-5.861	-1.322
-0.773	-5.870	-1.321
-0.776	-5.878	-1.325
-0.782	-5.880	-1.332
-0.787	-5.878	-1.339
-0.790	-5.870	-1.344
-0.789	-5.861	-1.344
-0.078	-5.918	-1.877
-0.073	-5.915	-1.870
-0.069	-5.918	-1.862
-0.067	-5.925	-1.857
-0.067	-5.935	-1.857
-0.070	-5.942	-1.861
-0.075	-5.945	-1.869
-0.079	-5.942	-1.876
-0.081	-5.935	-1.881
-0.081	-5.926	-1.882
0.680	-5.948	-2.190
0.684	-5.944	-2.182
0.687	-5.947	-2.174
0.689	-5.954	-2.168
0.688	-5.963	-2.168
0.685	-5.971	-2.172
0.681	-5.974	-2.180
0.678	-5.972	-2.188
0.676	-5.964	-2.193
0.677	-5.955	-2.194
1.376	-6.078	-2.577
1.382	-6.075	-2.570
1.387	-6.078	-2.562
1.388	-6.085	-2.557
1.386	-6.094	-2.555
1.382	-6.101	-2.559
1.376	-6.104	-2.566
1.372	-6.101	-2.573
1.370	-6.094	-2.579
1.372	-6.085	-2.580
1.570	-6.163	-2.747
1.576	-6.160	-2.741
1.581	-6.163	-2.733
1.583	-6.170	-2.728
1.581	-6.179	-2.726
1.575	-6.186	-2.729
1.569	-6.189	-2.735
[...]
         <CellData>
           <DataArray type="Float32" Name="combinedRootClassID" NumberOfComponents="1" format="ascii">
 -1.300e+01 -1.300e+01 -1.300e+01 -1.300e+01 -1.300e+01 -1.300e+01 -1.300e+01 -1.300e+01 -1.300e+01 -1.300e+01 -1.300e+01 -1.300e+01 -1.300e+01 -1.300e+01 -1.300e+01 -1.300e+01 -1.300e+01 -1.300e+01 -1.300e+01 -1.300e+01 -1.300e+01 -1.300e+01 -1.300e+01 -1.300e+01 -1.300e+01 -1.300e+01 -1.300e+01 -1.300e+01 -1.300e+01 -1.300e+01 -1.300e+01 -1.300e+01 -1.300e+01 -1.300e+01 -1.300e+01 -1.300e+01 -1.300e+01 -1.300e+01 -1.300e+01 -1.300e+01 -1.300e+01 -1.300e+01 -1.300e+01 -1.300e+01 -1.300e+01 -1.300e+01 -1.300e+01 -1.300e+01 -1.300e+01 -1.300e+01 -1.300e+01 -1.300e+01 -1.300e+01 -1.300e+01 -1.300e+01 -1.300e+01 -1.300e+01 -1.300e+01 -1.300e+01 -1.300e+01 -1.300e+01 -1.300e+01 -1.300e+01 -1.300e+01 -1.300e+01 -1.300e+01 -1.300e+01 -1.300e+01 -1.300e+01 -1.300e+01 -1.300e+01 -1.300e+01 -1.300e+01 -1.300e+01 -1.300e+01 -1.300e+01 -1.300e+01 -1.300e+01 -1.300e+01 -1.300e+01 -1.300e+01 -1.300e+01 -1.300e+01 -1.300e+01 -1.300e+01 -1.300e+01 -1.300e+01 -1.300e+01 -1.300e+01 -1.300e+01 -1.300e+01 -1.300e+01 -1.300e+01 -1.300e+01 -1.300e+01 -1.300e+01 -1.300e+01 -1.300e+01 -1.300e+01 -1.300e+01 -1.300e+01 -1.300e+01 -1.300e+01 -1.300e+01 -1.300e+01 -1.300e+01 -1.300e+01 -1.300e+01 -1.300e+01 -1.300e+01 -1.300e+01 -1.300e+01 -1.300e+01 -1.300e+01 -1.300e+01 -1.300e+01 -1.300e+01 -1.300e+01 -1.300e+01 -1.300e+01 -1.300e+01 -1.300e+01 -1.300e+01 -1.300e+01 -1.300e+01 -1.300e+01 -1.300e+01 -1.300e+01 -1.300e+01 -1.300e+01 -1.300e+01 -1.300e+01 -1.300e+01 -1.300e+01 -1.300e+01 -1.300e+01 -1.300e+01 -1.300e+01 -1.300e+01 -1.300e+01 -1.300e+01 -1.300e+01 -1.300e+01 -1.300e+01 -1.300e+01 -1.300e+01 -1.300e+01 -1.300e+01 -1.300e+01 -1.300e+01 -1.300e+01 -1.300e+01 -1.300e+01 -1.300e+01 -1.300e+01 -1.300e+01 -1.300e+01 -1.300e+01 -1.300e+01 -1.300e+01 -1.300e+01 -1.300e+01 -1.300e+01 -1.300e+01 -1.300e+01 -1.300e+01 -1.300e+01 -1.300e+01 -1.300e+01 -1.300e+01 -1.300e+01 -1.300e+01 -1.300e+01 -1.300e+01 -1.300e+01 -1.300e+01 -1.300e+01 -1.300e+01 -1.300e+01 -1.300e+01 -1.300e+01 -1.300e+01 -1.300e+01 -1.300e+01 -1.300e+01 -1.300e+01 -1.300e+01 -1.300e+01 -1.300e+01 -1.300e+01 -1.300e+01 -1.300e+01 -1.300e+01 -1.300e+01 -1.300e+01 -1.300e+01 -1.300e+01 -1.300e+01 -1.300e+01 -1.300e+01 -1.300e+01 -1.300e+01 -1.300e+01 -1.300e+01 -1.300e+01 -1.300e+01 -1.300e+01 -1.300e+01 -1.300e+01 -1.300e+01 -1.300e+01 -1.300e+01 -1.300e+01 -1.300e+01 -1.300e+01 -1.300e+01 -1.300e+01 -1.300e+01 -1.300e+01 -1.300e+01 -1.300e+01 -1.300e+01 -1.300e+01 -1.300e+01 -1.300e+01 -1.300e+01 -1.300e+01 -1.300e+01 -1.300e+01 -1.300e+01 -1.300e+01 -1.300e+01 -1.300e+01 -1.300e+01 -1.300e+01 -1.300e+01 -1.300e+01 -1.300e+01 -1.300e+01 -1.300e+01 -1.300e+01 -1.300e+01 -1.300e+01 -1.300e+01 -1.300e+01 -1.300e+01 -1.300e+01 -1.300e+01 -1.300e+01 -1.300e+01 -1.300e+01 -1.300e+01 -1.300e+01 -1.300e+01 -1.300e+01 -1.300e+01 -1.300e+01 -1.300e+01 -1.300e+01 -1.300e+01 -1.300e+01 -1.300e+01 -1.300e+01 -1.300e+01 -1.300e+01 -1.300e+01 -1.300e+01 -1.300e+01 -1.300e+01 -1.300e+01 -1.300e+01 -1.300e+01 -1.300e+01 -1.300e+01 -1.300e+01 -1.300e+01 -1.300e+01 -1.300e+01 -1.300e+01 -1.300e+01 -1.300e+01 -1.300e+01 -1.300e+01 -1.300e+01 -1.300e+01 -1.300e+01 -1.300e+01 -1.300e+01 -1.300e+01 -1.300e+01 -1.300e+01 -1.300e+01 -1.300e+01 -1.300e+01 -1.300e+01 -1.300e+01 -1.300e+01 -1.300e+01 -1.300e+01 -1.300e+01 -1.300e+01 -1.300e+01 -1.300e+01 -1.300e+01 -1.300e+01 -1.300e+01 -1.300e+01 -1.300e+01 -1.300e+01 -1.300e+01 -1.300e+01 -1.300e+01 -1.300e+01 -1.300e+01 -1.300e+01 -1.300e+01 -1.300e+01 -1.300e+01 -1.300e+01 -1.300e+01 -1.300e+01 -1.300e+01 -1.300e+01 -1.300e+01 -1.300e+01 -1.300e+01 -1.300e+01 -1.300e+01 -1.300e+01 -1.300e+01 -1.300e+01 -1.300e+01 -1.300e+01 -1.300e+01 -1.300e+01 -1.300e+01 -1.300e+01 -1.300e+01 -1.300e+01 -1.300e+01 -1.300e+01 -1.300e+01 -1.300e+01 -1.300e+01 -1.300e+01 -1.300e+01 -1.300e+01 -5.000e+00 -5.000e+00 -5.000e+00 -5.000e+00 -5.000e+00 -5.000e+00 -5.000e+00 -5.000e+00 -5.000e+00 -5.000e+00 -5.000e+00 -5.000e+00 -5.000e+00 -5.000e+00 -5.000e+00 -5.000e+00 -5.000e+00 -5.000e+00 -5.000e+00 -5.000e+00 -5.000e+00 -5.000e+00 -5.000e+00 -5.000e+00 -5.000e+00 -5.000e+00 -5.000e+00 -5.000e+00 -5.000e+00 -5.000e+00 -5.000e+00 -5.000e+00 -5.000e+00 -5.000e+00 -5.000e+00 -5.000e+00 -5.000e+00 -5.000e+00 -1.300e+01 -1.300e+01 -1.300e+01 -1.300e+01 -1.300e+01 -1.300e+01 -1.300e+01 -1.300e+01 -1.300e+01 -1.300e+01 -1.300e+01 -1.300e+01 -1.300e+01 -1.300e+01 -1.300e+01 -1.300e+01 -1.300e+01 -1.300e+01 -1.300e+01 -1.300e+01 -1.300e+01 -1.300e+01 -1.300e+01 -1.300e+01 -1.300e+01 -1.300e+01 -1.300e+01 -1.300e+01 -1.300e+01 -1.300e+01 -1.300e+01 -1.300e+01 -1.300e+01 -1.300e+01 -1.300e+01 -1.300e+01 -1.300e+01 -1.300e+01 -1.300e+01 -1.300e+01 -1.300e+01 -1.300e+01 -1.300e+01 -1.300e+01 -1.300e+01 -1.300e+01 -1.300e+01 -1.300e+01 -1.300e+01 -1.300e+01 -1.300e+01 -1.300e+01 -1.300e+01 -1.300e+01 -1.300e+01 -1.300e+01 -1.300e+01 -1.300e+01 -1.300e+01 -1.300e+01 -1.300e+01 -1.300e+01 -1.300e+01 -1.300e+01 -1.300e+01 -1.300e+01 -1.300e+01 -1.300e+01 -1.300e+01 -1.300e+01 -1.300e+01 -1.300e+01 -1.300e+01 -1.300e+01 -1.300e+01 -1.300e+01 -1.300e+01 -1.300e+01 -1.300e+01 -1.300e+01 -1.300e+01 -1.300e+01 -1.300e+01 -1.300e+01 -1.300e+01 -1.300e+01 -1.300e+01 -1.300e+01 -1.300e+01 -1.300e+01 -1.300e+01 -1.300e+01 -1.300e+01 -1.300e+01 -1.300e+01 -1.300e+01 -1.300e+01 -1.300e+01 -1.300e+01 -1.300e+01 -1.300e+01 -1.300e+01 -1.300e+01 -1.300e+01 -1.300e+01 -1.300e+01 -1.300e+01 -1.300e+01 -1.300e+01 -1.300e+01 -1.300e+01 -1.300e+01 -1.300e+01 -1.300e+01 -1.300e+01 -1.300e+01 -1.300e+01 -1.300e+01 -1.300e+01 -1.300e+01 -1.300e+01 -1.300e+01 -1.300e+01 -1.300e+01 -1.300e+01 -1.300e+01 -1.300e+01 -1.300e+01 -1.300e+01 -1.300e+01 -1.300e+01 -1.300e+01 -1.300e+01 -1.300e+01 -1.300e+01 -1.300e+01 -1.300e+01 -1.300e+01 -1.300e+01 -1.300e+01 -1.300e+01 -1.300e+01 -1.300e+01 -1.300e+01 -1.300e+01 -1.300e+01 -1.300e+01 -1.300e+01 -1.300e+01 -1.300e+01 -1.300e+01 -1.300e+01 -1.300e+01 -1.300e+01 -1.300e+01 -1.300e+01 -1.300e+01 -1.300e+01 -1.300e+01 -1.300e+01 -1.300e+01 -1.300e+01 -1.300e+01 -1.300e+01 -1.300e+01 -1.300e+01 -1.300e+01 -1.300e+01 -1.300e+01 -1.300e+01 -1.300e+01 -1.300e+01 -1.300e+01 -1.300e+01 -1.300e+01 -1.300e+01 -1.300e+01 -1.300e+01 -1.300e+01 -1.300e+01 -1.300e+01 -1.300e+01 -1.300e+01 -1.300e+01 -1.300e+01 -1.300e+01 -1.300e+01 -1.300e+01 -1.300e+01 -1.300e+01 -1.300e+01 -1.300e+01 -1.300e+01 -1.300e+01 -1.300e+01 -1.300e+01 -1.300e+01 -1.300e+01 -1.300e+01 -1.300e+01 -1.300e+01 -1.300e+01 -1.300e+01 -1.300e+01 -1.300e+01 -1.300e+01 -1.300e+01 -1.300e+01 -1.300e+01 -1.300e+01 -1.300e+01 -1.300e+01 -1.300e+01 -1.300e+01 -1.300e+01 -1.300e+01 -1.300e+01 -1.300e+01 -1.300e+01 -1.300e+01 -1.300e+01 -1.300e+01 -1.300e+01 -1.300e+01 -1.300e+01 -1.300e+01 -1.300e+01 -1.300e+01 -1.300e+01 -1.300e+01 -1.300e+01 -1.300e+01 -1.300e+01 -1.300e+01 -1.300e+01 -1.300e+01 -1.300e+01 -1.300e+01 -1.300e+01 -1.300e+01 -1.300e+01 -1.300e+01 -1.300e+01 -1.300e+01 -1.300e+01 -1.300e+01 -1.300e+01 -1.300e+01 -1.300e+01 -1.300e+01 -1.300e+01 -1.300e+01 -1.300e+01 -1.300e+01 -1.300e+01 -1.300e+01 -1.300e+01 -1.300e+01 -1.300e+01 -1.300e+01 -1.300e+01 -1.300e+01 -1.300e+01 -1.300e+01 -1.300e+01 -1.300e+01 -1.300e+01 -1.300e+01 -1.300e+01 -1.300e+01 -1.300e+01 -1.300e+01 -1.300e+01 -1.300e+01 -1.300e+01 -1.300e+01 -1.300e+01 -1.300e+01 -1.300e+01 -1.300e+01 -1.300e+01 -1.300e+01 -1.300e+01 -1.300e+01 -1.300e+01 -1.300e+01 -1.300e+01 -1.300e+01 -1.300e+01 -1.300e+01 -1.300e+01 -1.300e+01 -1.300e+01 -1.300e+01 -1.300e+01 -1.300e+01 -1.300e+01 -1.300e+01 -1.300e+01 -1.300e+01 -1.300e+01 -1.300e+01 -1.300e+01 -1.300e+01 -1.300e+01 -1.300e+01 -1.300e+01 -1.300e+01 -1.300e+01 -1.300e+01 -1.300e+01 -1.300e+01 -1.300e+01 -1.300e+01 -1.300e+01 -1.300e+01 -1.300e+01 -1.300e+01 -1.300e+01 -1.300e+01 -1.300e+01 -1.300e+01 -1.300e+01 -1.300e+01 -1.300e+01 -1.300e+01 -1.300e+01 -1.300e+01 -1.300e+01 -1.300e+01 -1.300e+01 -1.300e+01 -1.300e+01 -1.300e+01 -1.300e+01 -1.300e+01 -5.000e+00 -5.000e+00 -5.000e+00 -5.000e+00 -5.000e+00 -5.000e+00 -5.000e+00 -5.000e+00 -5.000e+00 -5.000e+00 -5.000e+00 -5.000e+00 -5.000e+00 -5.000e+00 -5.000e+00 -5.000e+00 -5.000e+00 -5.000e+00 -5.000e+00 -5.000e+00 -5.000e+00 -5.000e+00 -5.000e+00 -5.000e+00 -5.000e+00 -5.000e+00 -5.000e+00 -5.000e+00 -5.000e+00 -5.000e+00 -5.000e+00 -5.000e+00 -5.000e+00 -5.000e+00 -5.000e+00 -5.000e+00 -5.000e+00 -5.000e+00 -1.300e+01 -1.300e+01 -1.300e+01 -1.300e+01 -1.300e+01 -1.300e+01 -1.300e+01 -1.300e+01 -1.300e+01 -1.300e+01 -1.300e+01 -1.300e+01 -1.300e+01 -1.300e+01 -1.300e+01 -1.300e+01 -1.300e+01 -1.300e+01 -1.300e+01 -1.300e+01 -1.300e+01 -1.300e+01 -1.300e+01 -1.300e+01 -1.300e+01 -1.300e+01 -1.300e+01 -1.300e+01 -1.300e+01 -1.300e+01 -1.300e+01 -1.300e+01 -1.300e+01 -1.300e+01 -1.300e+01 -1.300e+01 -1.300e+01 -1.300e+01 -1.300e+01 -1.300e+01 -1.300e+01 -1.300e+01 -1.300e+01 -1.300e+01 -1.300e+01 -1.300e+01 -1.300e+01 -1.300e+01 -1.300e+01 -1.300e+01 -1.300e+01 -1.300e+01 -1.300e+01 -1.300e+01 -1.300e+01 -1.300e+01 -1.300e+01 -1.300e+01 -1.300e+01 -1.300e+01 -1.300e+01 -1.300e+01 -1.300e+01 -1.300e+01 -1.300e+01 -1.300e+01 -1.300e+01 -1.300e+01 -1.300e+01 -1.300e+01 -1.300e+01 -1.300e+01 -1.300e+01 -1.300e+01 -1.300e+01 -1.300e+01 -1.300e+01 -1.300e+01 -1.300e+01 -1.300e+01 -1.300e+01 -1.300e+01 -1.300e+01 -1.300e+01 -1.300e+01 -1.300e+01 -1.300e+01 -1.300e+01 -1.300e+01 -1.300e+01 -1.300e+01 -1.300e+01 -1.300e+01 -1.300e+01 -1.300e+01 -1.300e+01 -1.300e+01 -1.300e+01 -1.300e+01 -1.300e+01 -1.300e+01 -1.300e+01 -1.300e+01 -1.300e+01 -1.300e+01 -1.300e+01 -1.300e+01 -1.300e+01 -1.300e+01 -1.300e+01 -1.300e+01 -1.300e+01 -1.300e+01 -1.300e+01 -1.300e+01 -1.300e+01 -1.300e+01 -1.300e+01 -1.300e+01 -1.300e+01 -1.300e+01 -1.300e+01 -1.300e+01 -1.300e+01 -1.300e+01 -1.300e+01 -1.300e+01 -1.300e+01 -1.300e+01 -1.300e+01 -1.300e+01 -1.300e+01 -1.300e+01 -1.300e+01 -1.300e+01 -1.300e+01 -1.300e+01 -1.300e+01 -1.300e+01 -1.300e+01 -1.300e+01 -1.300e+01 -1.300e+01 -1.300e+01 -1.300e+01 -1.300e+01 -1.300e+01 -1.300e+01 -1.300e+01 -1.300e+01 -1.300e+01 -1.300e+01 -1.300e+01 -1.300e+01 -1.300e+01 -1.300e+01 -1.300e+01 -1.300e+01 -1.300e+01 -1.300e+01 -1.300e+01 -1.300e+01 -1.300e+01 -1.300e+01 -1.300e+01 -1.300e+01 -1.300e+01 -1.300e+01 -1.300e+01 -1.300e+01 -1.300e+01 -1.300e+01 -1.300e+01 -1.300e+01 -1.300e+01 -1.300e+01 -1.300e+01 -1.300e+01 -1.300e+01 -1.300e+01 -1.300e+01 -1.300e+01 -1.300e+01 -1.300e+01 -1.300e+01 -1.300e+01 -1.300e+01 -1.300e+01 -1.300e+01 -1.300e+01 -1.300e+01 -1.300e+01 -1.300e+01 -1.300e+01 -1.300e+01 -1.300e+01 -1.300e+01 -1.300e+01 -1.300e+01 -1.300e+01 -1.300e+01 -1.300e+01 -1.300e+01 -1.300e+01 -1.300e+01 -1.300e+01 -1.300e+01 -1.300e+01 -1.300e+01 -1.300e+01 -1.300e+01 -1.300e+01 -1.300e+01 -1.300e+01 -1.300e+01 -1.300e+01 -1.300e+01 -1.300e+01 -1.300e+01 -1.300e+01 -1.300e+01 -1.300e+01 -1.300e+01 -1.300e+01 -1.300e+01 -1.300e+01 -1.300e+01 -1.300e+01 -1.300e+01 -1.300e+01 -1.300e+01 -1.300e+01 -1.300e+01 -1.300e+01 -1.300e+01 -1.300e+01 -1.300e+01 -1.300e+01 -1.300e+01 -1.300e+01 -1.300e+01 -1.300e+01 -1.300e+01 -1.300e+01 -1.300e+01 -1.300e+01 -1.300e+01 -1.300e+01 -1.300e+01 -1.300e+01 -1.300e+01 -1.300e+01 -1.300e+01 -1.300e+01 -1.300e+01 -1.300e+01 -1.300e+01 -1.300e+01 -1.300e+01 -1.300e+01 -1.300e+01 -1.300e+01 -1.300e+01 -1.300e+01 -1.300e+01 -1.300e+01 -1.300e+01 -1.300e+01 -1.300e+01 -1.300e+01 -1.300e+01 -1.300e+01 -1.300e+01 -1.300e+01 -1.300e+01 -1.300e+01 -1.300e+01 -1.300e+01 -1.300e+01 -1.300e+01 -1.300e+01 -1.300e+01 -1.300e+01 -1.300e+01 -1.300e+01 -1.300e+01 -1.300e+01 -1.300e+01 -1.300e+01 -1.300e+01 -1.300e+01 -1.300e+01 -1.300e+01 -1.300e+01 -1.300e+01 -1.300e+01 -1.300e+01 -1.300e+01 -1.300e+01 -1.300e+01 -1.300e+01 -1.300e+01 -1.300e+01 -1.300e+01 -1.300e+01 -1.300e+01 -1.300e+01 -1.300e+01 -1.300e+01 -1.300e+01 -1.300e+01 -1.300e+01 -1.300e+01 -1.300e+01 -1.300e+01 -1.300e+01 -1.300e+01 -1.300e+01 -1.300e+01 -1.300e+01 -1.300e+01 -1.300e+01 -1.300e+01 -1.300e+01 -1.300e+01 -1.300e+01 -1.300e+01 -1.300e+01 -1.300e+01 -1.300e+01 -1.300e+01 -1.300e+01 -1.300e+01 -1.300e+01 -1.300e+01 -1.300e+01 -1.300e+01 -5.000e+00 -5.000e+00 -5.000e+00 -5.000e+00 -5.000e+00 -5.000e+00 -5.000e+00 -5.000e+00 -5.000e+00 -5.000e+00 -5.000e+00 -5.000e+00 -5.000e+00 -5.000e+00 -5.000e+00 -5.000e+00 -5.000e+00 -5.000e+00 -5.000e+00 -5.000e+00 -5.000e+00 -5.000e+00 -5.000e+00 -5.000e+00 -5.000e+00 -5.000e+00 -5.000e+00 -5.000e+00 -5.000e+00 -5.000e+00 -5.000e+00 -5.000e+00 -5.000e+00 -5.000e+00 -5.000e+00 -5.000e+00 -5.000e+00 -5.000e+00 -1.300e+01 -1.300e+01 -1.300e+01 -1.300e+01 -1.300e+01 -1.300e+01 -1.300e+01 -1.300e+01 -1.300e+01 -1.300e+01 -1.300e+01 -1.300e+01 -1.300e+01 -1.300e+01 -1.300e+01 -1.300e+01 -1.300e+01 -1.300e+01 -1.300e+01 -1.300e+01 -1.300e+01 -1.300e+01 -1.300e+01 -1.300e+01 -1.300e+01 -1.300e+01 -1.300e+01 -1.300e+01 -1.300e+01 -1.300e+01 -1.300e+01 -1.300e+01 -1.300e+01 -1.300e+01 -1.300e+01 -1.300e+01 -1.300e+01 -1.300e+01 -1.300e+01 -1.300e+01 -1.300e+01 -1.300e+01 -1.300e+01 -1.300e+01 -1.300e+01 -1.300e+01 -1.300e+01 -1.300e+01 -1.300e+01 -1.300e+01 -1.300e+01 -1.300e+01 -1.300e+01 -1.300e+01 -1.300e+01 -1.300e+01 -1.300e+01 -1.300e+01 -1.300e+01 -1.300e+01 -1.300e+01 -1.300e+01 -1.300e+01 -1.300e+01 -1.300e+01 -1.300e+01 -1.300e+01 -1.300e+01 -1.300e+01 -1.300e+01 -1.300e+01 -1.300e+01 -1.300e+01 -1.300e+01 -1.300e+01 -1.300e+01 -1.300e+01 -1.300e+01 -1.300e+01 -1.300e+01 -1.300e+01 -1.300e+01 -1.300e+01 -1.300e+01 -1.300e+01 -1.300e+01 -1.300e+01 -1.300e+01 -1.300e+01 -1.300e+01 -1.300e+01 -1.300e+01 -1.300e+01 -1.300e+01 -1.300e+01 -1.300e+01 -1.300e+01 -1.300e+01 -1.300e+01 -1.300e+01 -1.300e+01 -1.300e+01 -1.300e+01 -1.300e+01 -1.300e+01 -1.300e+01 -1.300e+01 -1.300e+01 -1.300e+01 -1.300e+01 -1.300e+01 -1.300e+01 -1.300e+01 -1.300e+01 -1.300e+01 -1.300e+01 -1.300e+01 -1.300e+01 -1.300e+01 -1.300e+01 -1.300e+01 -1.300e+01 -1.300e+01 -1.300e+01 -1.300e+01 -1.300e+01 -1.300e+01 -1.300e+01 -1.300e+01 -1.300e+01 -1.300e+01 -1.300e+01 -1.300e+01 -1.300e+01 -1.300e+01 -1.300e+01 -1.300e+01 -1.300e+01 -1.300e+01 -1.300e+01 -1.300e+01 -1.300e+01 -1.300e+01 -1.300e+01 -1.300e+01 -1.300e+01 -1.300e+01 -1.300e+01 -1.300e+01 -1.300e+01 -1.300e+01 -1.300e+01 -1.300e+01 -1.300e+01 -1.300e+01 -1.300e+01 -1.300e+01 -1.300e+01 -1.300e+01 -1.300e+01 -1.300e+01 -1.300e+01 -1.300e+01 -1.300e+01 -1.300e+01 -1.300e+01 -1.300e+01 -1.300e+01 -1.300e+01 -1.300e+01 -1.300e+01 -1.300e+01 -1.300e+01 -1.300e+01 -1.300e+01 -1.300e+01 -1.300e+01 -1.300e+01 -1.300e+01 -1.300e+01 -1.300e+01 -1.300e+01 -1.300e+01 -1.300e+01 -1.300e+01 -1.300e+01 -1.300e+01 -1.300e+01 -1.300e+01 -1.300e+01 -1.300e+01 -1.300e+01 -1.300e+01 -1.300e+01 -1.300e+01 -1.300e+01 -1.300e+01 -1.300e+01 -1.300e+01 -1.300e+01 -1.300e+01 -1.300e+01 -1.300e+01 -1.300e+01 -1.300e+01 -1.300e+01 -1.300e+01 -1.300e+01 -1.300e+01 -1.300e+01 -1.300e+01 -1.300e+01 -1.300e+01 -1.300e+01 -1.300e+01 -1.300e+01 -1.300e+01 -1.300e+01 -1.300e+01 -1.300e+01 -1.300e+01 -1.300e+01 -1.300e+01 -1.300e+01 -1.300e+01 -1.300e+01 -1.300e+01 -1.300e+01 -1.300e+01 -1.300e+01 -1.300e+01 -1.300e+01 -1.300e+01 -1.300e+01 -1.300e+01 -1.300e+01 -1.300e+01 -1.300e+01 -1.300e+01 -1.300e+01 -1.300e+01 -1.300e+01 -1.300e+01 -1.300e+01 -1.300e+01 -1.300e+01 -1.300e+01 -1.300e+01 -1.300e+01 -1.300e+01 -1.300e+01 -1.300e+01 -1.300e+01 -1.300e+01 -1.300e+01 -1.300e+01 -1.300e+01 -1.300e+01 -1.300e+01 -1.300e+01 -1.300e+01 -1.300e+01 -1.300e+01 -1.300e+01 -1.300e+01 -1.300e+01 -1.300e+01 -1.300e+01 -1.300e+01 -1.300e+01 -1.300e+01 -1.300e+01 -1.300e+01 -1.300e+01 -1.300e+01 -1.300e+01 -1.300e+01 -1.300e+01 -1.300e+01 -1.300e+01 -1.300e+01 -1.300e+01 -1.300e+01 -1.300e+01 -1.300e+01 -1.300e+01 -1.300e+01 -1.300e+01 -1.300e+01 -1.300e+01 -1.300e+01 -1.300e+01 -1.300e+01 -1.300e+01 -1.300e+01 -1.300e+01 -1.300e+01 -1.300e+01 -1.300e+01 -1.300e+01 -1.300e+01 -1.300e+01 -1.300e+01 -1.300e+01 -1.300e+01 -1.300e+01 -1.300e+01 -1.300e+01 -1.300e+01 -1.300e+01 -1.300e+01 -1.300e+01 -1.300e+01 -1.300e+01 -1.300e+01 -1.300e+01 -1.300e+01 -1.300e+01 -1.300e+01 -1.300e+01 -1.300e+01 -1.300e+01 -1.300e+01 -1.300e+01 -1.300e+01 -1.300e+01 -1.300e+01 -1.300e+01 -1.300e+01 -1.300e+01 -1.300e+01 -1.300e+01 -1.300e+01 -1.300e+01 -1.300e+01 -1.300e+01 -1.300e+01 -1.300e+01 -1.300e+01 -1.300e+01 -1.300e+01 -1.300e+01 -1.300e+01 -1.300e+01 -1.300e+01 -1.300e+01 -1.300e+01 -1.300e+01 -1.300e+01 -1.300e+01 -1.300e+01 -1.300e+01 -1.300e+01 -1.300e+01 -1.300e+01 -1.300e+01 -5.000e+00 -5.000e+00 -5.000e+00 -5.000e+00 -5.000e+00 -5.000e+00 -5.000e+00 -5.000e+00 -5.000e+00 -5.000e+00 -5.000e+00 -5.000e+00 -5.000e+00 -5.000e+00 -5.000e+00 -5.000e+00 -5.000e+00 -5.000e+00 -5.000e+00 -5.000e+00 -5.000e+00 -5.000e+00 -5.000e+00 -5.000e+00 -5.000e+00 -5.000e+00 -5.000e+00 -5.000e+00 -5.000e+00 -5.000e+00 -5.000e+00 -5.000e+00 -5.000e+00 -5.000e+00 -5.000e+00 -5.000e+00 -5.000e+00 -5.000e+00 -1.900e+01 -1.900e+01 -1.900e+01 -1.900e+01 -1.900e+01 -1.900e+01 -1.900e+01 -1.900e+01 -1.900e+01 -1.900e+01 -1.900e+01 -1.900e+01 -1.900e+01 -1.900e+01 -1.900e+01 -1.900e+01 -1.900e+01 -1.900e+01 -1.900e+01 -1.900e+01 -1.900e+01 -1.900e+01 -1.900e+01 -1.900e+01 -1.900e+01 -1.900e+01 -1.900e+01 -1.900e+01 -1.900e+01 -1.900e+01 -1.900e+01 -1.900e+01 -1.900e+01 -1.900e+01 -1.900e+01 -1.900e+01 -1.900e+01 -1.900e+01 -1.900e+01 -1.900e+01 -1.900e+01 -1.900e+01 -1.900e+01 -1.900e+01 -1.900e+01 -1.900e+01 -1.900e+01 -1.900e+01 -1.900e+01 -1.900e+01 -1.900e+01 -1.900e+01 -1.900e+01 -1.900e+01 -1.900e+01 -1.900e+01 -1.900e+01 -1.900e+01 -1.900e+01 -1.900e+01 -1.900e+01 -1.900e+01 -1.900e+01 -1.900e+01 -1.900e+01 -1.900e+01 -1.900e+01 -1.900e+01 -1.900e+01 -1.900e+01 -1.900e+01 -1.900e+01 -1.900e+01 -1.900e+01 -1.900e+01 -1.900e+01 -1.900e+01 -1.900e+01 -1.900e+01 -1.900e+01 -1.900e+01 -1.900e+01 -1.900e+01 -1.900e+01 -1.900e+01 -1.900e+01 -1.900e+01 -1.900e+01 -1.900e+01 -1.900e+01 -1.900e+01 -1.900e+01 -1.900e+01 -1.900e+01 -1.900e+01 -1.900e+01 -1.900e+01 -1.900e+01 -1.900e+01 -1.900e+01 -1.900e+01 -1.900e+01 -1.900e+01 -1.900e+01 -1.900e+01 -1.900e+01 -1.900e+01 -1.900e+01 -1.900e+01 -1.900e+01 -1.900e+01 -1.900e+01 -1.900e+01 -1.900e+01 -1.900e+01 -1.900e+01 -1.900e+01 -1.100e+01 -1.100e+01 -1.100e+01 -1.100e+01 -1.100e+01 -1.100e+01 -1.100e+01 -1.100e+01 -1.100e+01 -1.100e+01 -1.100e+01 -1.100e+01 -1.100e+01 -1.100e+01 -1.100e+01 -1.100e+01 -1.100e+01 -1.100e+01 -1.100e+01 -1.100e+01 -1.100e+01 -1.100e+01 -1.100e+01 -1.100e+01 -1.100e+01 -1.100e+01 -1.100e+01 -1.100e+01 -1.900e+01 -1.900e+01 -1.900e+01 -1.900e+01 -1.900e+01 -1.900e+01 -1.900e+01 -1.900e+01 -1.900e+01 -1.900e+01 -1.900e+01 -1.900e+01 -1.900e+01 -1.900e+01 -1.900e+01 -1.900e+01 -1.900e+01 -1.900e+01 -1.900e+01 -1.900e+01 -1.900e+01 -1.900e+01 -1.900e+01 -1.900e+01 -1.900e+01 -1.900e+01 -1.900e+01 -1.900e+01 -1.900e+01 -1.900e+01 -1.900e+01 -1.900e+01 -1.900e+01 -1.900e+01 -1.900e+01 -1.900e+01 -1.900e+01 -1.900e+01 -1.900e+01 -1.900e+01 -1.900e+01 -1.900e+01 -1.900e+01 -1.900e+01 -1.900e+01 -1.900e+01 -1.900e+01 -1.900e+01 -1.900e+01 -1.900e+01 -1.900e+01 -1.900e+01 -1.900e+01 -1.900e+01 -1.900e+01 -1.900e+01 -1.900e+01 -1.900e+01 -1.900e+01 -1.900e+01 -1.900e+01 -1.900e+01 -1.900e+01 -1.900e+01 -1.900e+01 -1.900e+01 -1.900e+01 -1.900e+01 -1.900e+01 -1.900e+01 -1.900e+01 -1.900e+01 -1.900e+01 -1.900e+01 -1.900e+01 -1.900e+01 -1.900e+01 -1.900e+01 -1.900e+01 -1.900e+01 -1.900e+01 -1.900e+01 -1.900e+01 -1.900e+01 -1.900e+01 -1.900e+01 -1.900e+01 -1.900e+01 -1.900e+01 -1.900e+01 -1.900e+01 -1.900e+01 -1.900e+01 -1.900e+01 -1.900e+01 -1.900e+01 -1.900e+01 -1.900e+01 -1.900e+01 -1.900e+01 -1.900e+01 -1.900e+01 -1.900e+01 -1.900e+01 -1.900e+01 -1.900e+01 -1.900e+01 -1.900e+01 -1.900e+01 -1.900e+01 -1.900e+01 -1.900e+01 -1.900e+01 -1.900e+01 -1.900e+01 -1.900e+01 -1.100e+01 -1.100e+01 -1.100e+01 -1.100e+01 -1.100e+01 -1.100e+01 -1.100e+01 -1.100e+01 -1.100e+01 -1.100e+01 -1.100e+01 -1.100e+01 -1.100e+01 -1.100e+01 -1.100e+01 -1.100e+01 -1.100e+01 -1.100e+01