<?xml version="1.0"?>
<VTKFile type="UnstructuredGrid" version="0.1" byte_order="LittleEndian">
   <UnstructuredGrid>
      <Piece NumberOfPoints="4990" NumberOfCells="361">
         <Points>
            <DataArray type="Float32" Name="Position" NumberOfComponents="3" format="ascii">
-0.068	-5.033	-0.121
-0.067	-5.026	-0.115
-0.068	-5.016	-0.115
-0.071	-5.009	-0.120
-0.074	-5.006	-0.128
-0.076	-5.009	-0.137
-0.077	-5.016	-0.142
-0.076	-5.026	-0.142
-0.073	-5.033	-0.137
-0.070	-5.036	-0.129
-0.278	-5.059	-0.055
-0.277	-5.052	-0.049
-0.278	-5.043	-0.049
-0.281	-5.035	-0.054
-0.284	-5.032	-0.062
-0.286	-5.035	-0.071
-0.287	-5.043	-0.076
-0.286	-5.052	-0.077
-0.283	-5.059	-0.072
-0.280	-5.062	-0.063
-0.143	-5.073	-0.244
-0.141	-5.065	-0.239
-0.142	-5.056	-0.239
-0.144	-5.048	-0.245
-0.146	-5.046	-0.253
-0.148	-5.049	-0.262
-0.150	-5.057	-0.267
-0.149	-5.066	-0.267
-0.147	-5.073	-0.261
-0.145	-5.076	-0.252
-0.341	-5.078	-0.188
-0.340	-5.070	-0.183
-0.340	-5.061	-0.183
-0.342	-5.054	-0.189
-0.344	-5.051	-0.197
-0.347	-5.055	-0.206
-0.348	-5.062	-0.211
-0.347	-5.072	-0.210
-0.346	-5.079	-0.205
-0.343	-5.081	-0.196
-0.215	-5.122	-0.366
-0.214	-5.115	-0.361
-0.216	-5.106	-0.360
-0.219	-5.098	-0.365
-0.222	-5.095	-0.373
-0.224	-5.098	-0.381
-0.225	-5.105	-0.387
-0.224	-5.114	-0.388
-0.221	-5.122	-0.383
-0.217	-5.125	-0.375
-0.372	-5.150	-0.313
-0.371	-5.142	-0.308
-0.372	-5.133	-0.307
-0.375	-5.126	-0.312
-0.379	-5.123	-0.320
-0.381	-5.125	-0.328
-0.382	-5.133	-0.334
-0.380	-5.142	-0.335
-0.377	-5.149	-0.330
-0.374	-5.152	-0.322
-0.297	-5.156	-0.498
-0.291	-5.154	-0.492
-0.285	-5.157	-0.485
-0.282	-5.164	-0.481
-0.282	-5.173	-0.481
-0.286	-5.181	-0.484
-0.292	-5.184	-0.491
-0.298	-5.181	-0.498
-0.301	-5.173	-0.502
-0.301	-5.164	-0.502
-0.187	-5.164	-0.596
-0.181	-5.161	-0.590
-0.175	-5.164	-0.583
-0.172	-5.172	-0.579
-0.173	-5.181	-0.579
-0.177	-5.188	-0.583
-0.183	-5.191	-0.589
-0.188	-5.188	-0.596
-0.192	-5.181	-0.600
-0.191	-5.171	-0.600
-0.347	-5.241	-0.615
-0.343	-5.239	-0.607
-0.345	-5.237	-0.598
-0.352	-5.237	-0.592
-0.361	-5.237	-0.591
-0.369	-5.239	-0.595
-0.373	-5.241	-0.603
-0.371	-5.243	-0.612
-0.364	-5.243	-0.618
-0.355	-5.243	-0.619
-0.336	-5.348	-0.594
-0.333	-5.346	-0.586
-0.335	-5.344	-0.577
-0.341	-5.343	-0.570
-0.350	-5.344	-0.569
-0.359	-5.346	-0.574
-0.362	-5.348	-0.582
-0.360	-5.349	-0.591
-0.354	-5.350	-0.597
-0.344	-5.349	-0.598
-0.412	-5.318	-0.727
-0.408	-5.315	-0.719
-0.410	-5.313	-0.710
-0.416	-5.313	-0.704
-0.425	-5.314	-0.702
-0.433	-5.316	-0.706
-0.437	-5.319	-0.714
-0.435	-5.321	-0.723
-0.429	-5.321	-0.730
-0.420	-5.320	-0.731
-0.396	-5.411	-0.705
-0.392	-5.409	-0.697
-0.394	-5.407	-0.688
-0.401	-5.407	-0.681
-0.410	-5.408	-0.680
-0.418	-5.410	-0.684
-0.422	-5.413	-0.692
-0.420	-5.415	-0.701
-0.413	-5.415	-0.708
-0.404	-5.414	-0.709
-0.473	-5.403	-0.833
-0.470	-5.400	-0.825
-0.472	-5.397	-0.817
-0.479	-5.396	-0.811
-0.488	-5.398	-0.809
-0.496	-5.401	-0.813
-0.499	-5.405	-0.821
-0.497	-5.407	-0.830
-0.490	-5.408	-0.836
-0.481	-5.407	-0.837
-0.460	-5.461	-0.812
-0.457	-5.457	-0.804
-0.459	-5.455	-0.795
-0.466	-5.454	-0.789
-0.475	-5.456	-0.788
-0.483	-5.459	-0.792
-0.486	-5.462	-0.800
-0.484	-5.465	-0.808
-0.477	-5.466	-0.814
-0.468	-5.464	-0.816
-0.534	-5.493	-0.937
-0.531	-5.489	-0.929
-0.533	-5.486	-0.921
-0.540	-5.486	-0.915
-0.549	-5.487	-0.913
-0.557	-5.490	-0.918
-0.560	-5.493	-0.925
-0.558	-5.496	-0.934
-0.551	-5.497	-0.940
-0.542	-5.495	-0.941
-0.538	-5.517	-0.925
-0.538	-5.512	-0.917
-0.538	-5.514	-0.908
-0.538	-5.520	-0.901
-0.538	-5.530	-0.900
-0.538	-5.538	-0.904
-0.538	-5.542	-0.912
-0.538	-5.541	-0.921
-0.538	-5.534	-0.928
-0.538	-5.525	-0.929
-0.618	-5.576	-1.024
-0.613	-5.569	-1.027
-0.605	-5.567	-1.031
-0.597	-5.571	-1.035
-0.593	-5.579	-1.037
-0.594	-5.588	-1.036
-0.599	-5.595	-1.033
-0.607	-5.597	-1.028
-0.614	-5.594	-1.025
-0.619	-5.586	-1.023
-0.628	-5.578	-1.043
-0.623	-5.571	-1.046
-0.615	-5.569	-1.050
-0.608	-5.572	-1.054
-0.603	-5.580	-1.056
-0.604	-5.590	-1.055
-0.609	-5.597	-1.052
-0.617	-5.599	-1.048
-0.625	-5.595	-1.044
-0.629	-5.587	-1.042
-0.027	-4.969	0.005
-0.014	-4.959	-0.007
0.005	-4.961	-0.017
0.021	-4.973	-0.021
0.030	-4.992	-0.017
0.026	-5.011	-0.007
0.013	-5.021	0.006
-0.006	-5.019	0.016
-0.022	-5.007	0.020
-0.030	-4.988	0.016
-0.473	-5.328	-0.743
-0.464	-5.315	-0.757
-0.447	-5.312	-0.769
-0.429	-5.320	-0.775
-0.416	-5.336	-0.772
-0.413	-5.354	-0.761
-0.422	-5.368	-0.747
-0.439	-5.371	-0.735
-0.457	-5.363	-0.730
-0.470	-5.346	-0.733
-0.769	-5.777	-1.245
-0.760	-5.766	-1.261
-0.743	-5.764	-1.272
-0.723	-5.772	-1.276
-0.710	-5.787	-1.269
-0.707	-5.803	-1.256
-0.716	-5.814	-1.241
-0.734	-5.816	-1.229
-0.753	-5.808	-1.226
-0.767	-5.793	-1.232
-1.013	-6.216	-1.717
-1.000	-6.208	-1.731
-0.981	-6.210	-1.740
-0.962	-6.220	-1.738
-0.952	-6.235	-1.728
-0.954	-6.249	-1.712
-0.967	-6.257	-1.698
-0.986	-6.255	-1.689
-1.004	-6.245	-1.691
-1.014	-6.230	-1.701
-1.267	-6.792	-2.219
-1.251	-6.788	-2.232
-1.231	-6.792	-2.237
-1.214	-6.803	-2.231
-1.207	-6.817	-2.217
-1.213	-6.829	-2.201
-1.228	-6.833	-2.187
-1.248	-6.829	-2.183
-1.265	-6.817	-2.188
-1.272	-6.803	-2.202
-1.433	-7.250	-2.573
-1.416	-7.248	-2.585
-1.396	-7.253	-2.587
-1.380	-7.264	-2.579
-1.375	-7.277	-2.563
-1.383	-7.287	-2.546
-1.400	-7.290	-2.534
-1.420	-7.285	-2.532
-1.435	-7.273	-2.540
-1.441	-7.260	-2.556
-1.601	-7.772	-2.931
-1.583	-7.770	-2.942
-1.563	-7.776	-2.942
-1.548	-7.787	-2.932
-1.544	-7.799	-2.915
-1.553	-7.808	-2.898
-1.571	-7.809	-2.887
-1.591	-7.803	-2.887
-1.606	-7.792	-2.897
-1.610	-7.780	-2.914
-1.770	-8.357	-3.287
-1.752	-8.356	-3.297
-1.731	-8.362	-3.296
-1.717	-8.373	-3.285
-1.715	-8.385	-3.268
-1.724	-8.392	-3.251
-1.743	-8.393	-3.241
-1.763	-8.387	-3.241
-1.777	-8.376	-3.252
-1.779	-8.364	-3.270
-1.963	-8.983	-3.666
-1.945	-8.982	-3.676
-1.925	-8.988	-3.675
-1.911	-8.999	-3.663
-1.908	-9.010	-3.646
-1.918	-9.017	-3.629
-1.936	-9.018	-3.619
-1.956	-9.012	-3.619
-1.971	-9.002	-3.631
-1.973	-8.991	-3.649
-2.126	-9.656	-4.051
-2.108	-9.655	-4.061
-2.088	-9.661	-4.059
-2.074	-9.671	-4.047
-2.072	-9.682	-4.029
-2.082	-9.689	-4.012
-2.100	-9.690	-4.002
-2.120	-9.684	-4.004
-2.134	-9.673	-4.016
-2.137	-9.663	-4.034
-2.307	-10.342	-4.423
-2.288	-10.342	-4.431
-2.268	-10.349	-4.429
-2.255	-10.359	-4.416
-2.254	-10.369	-4.397
-2.265	-10.374	-4.380
-2.284	-10.374	-4.371
-2.304	-10.367	-4.374
-2.317	-10.357	-4.387
-2.318	-10.347	-4.406
-2.492	-11.041	-4.766
-2.472	-11.042	-4.774
-2.453	-11.049	-4.770
-2.441	-11.059	-4.756
-2.440	-11.068	-4.737
-2.452	-11.073	-4.721
-2.472	-11.072	-4.713
-2.491	-11.065	-4.716
-2.503	-11.055	-4.730
-2.504	-11.046	-4.749
-2.677	-11.747	-5.096
-2.658	-11.748	-5.104
-2.638	-11.755	-5.099
-2.627	-11.765	-5.085
-2.627	-11.773	-5.065
-2.639	-11.777	-5.049
-2.659	-11.776	-5.041
-2.678	-11.769	-5.046
-2.690	-11.759	-5.060
-2.690	-11.751	-5.080
-2.726	-12.115	-5.252
-2.715	-12.124	-5.237
-2.715	-12.132	-5.217
-2.728	-12.136	-5.201
-2.747	-12.134	-5.194
-2.767	-12.127	-5.198
-2.778	-12.118	-5.213
-2.778	-12.110	-5.233
-2.765	-12.106	-5.249
-2.746	-12.108	-5.256
-0.118	-5.014	0.062
-0.114	-5.014	0.070
-0.116	-5.015	0.079
-0.122	-5.015	0.086
-0.131	-5.014	0.087
-0.140	-5.014	0.083
-0.144	-5.013	0.075
-0.142	-5.013	0.065
-0.136	-5.013	0.059
-0.126	-5.013	0.057
-0.126	-5.225	0.055
-0.122	-5.225	0.063
-0.124	-5.226	0.072
-0.130	-5.226	0.079
-0.139	-5.225	0.080
-0.148	-5.225	0.076
-0.152	-5.224	0.068
-0.150	-5.224	0.059
-0.144	-5.224	0.052
-0.135	-5.224	0.051
-0.263	-5.054	0.159
-0.261	-5.045	0.157
-0.256	-5.039	0.151
-0.250	-5.039	0.144
-0.245	-5.044	0.139
-0.242	-5.052	0.137
-0.244	-5.061	0.139
-0.248	-5.067	0.144
-0.255	-5.067	0.151
-0.260	-5.062	0.156
-0.426	-5.063	0.003
-0.425	-5.054	0.001
-0.420	-5.048	-0.004
-0.414	-5.048	-0.011
-0.408	-5.053	-0.016
-0.406	-5.061	-0.018
-0.407	-5.070	-0.016
-0.412	-5.076	-0.011
-0.419	-5.077	-0.004
-0.424	-5.071	0.001
-0.385	-5.099	0.231
-0.383	-5.090	0.228
-0.378	-5.085	0.223
-0.371	-5.086	0.216
-0.365	-5.092	0.212
-0.363	-5.101	0.212
-0.365	-5.109	0.215
-0.371	-5.114	0.220
-0.377	-5.114	0.226
-0.383	-5.108	0.231
-0.480	-5.107	0.094
-0.480	-5.102	0.103
-0.480	-5.104	0.112
-0.480	-5.110	0.118
-0.480	-5.119	0.120
-0.480	-5.128	0.116
-0.480	-5.132	0.107
-0.480	-5.130	0.098
-0.480	-5.124	0.092
-0.480	-5.115	0.090
-0.487	-5.174	0.298
-0.485	-5.166	0.303
-0.485	-5.157	0.303
-0.488	-5.150	0.299
-0.493	-5.147	0.291
-0.497	-5.149	0.283
-0.499	-5.157	0.278
-0.499	-5.166	0.278
-0.496	-5.174	0.282
-0.491	-5.177	0.290
-0.604	-5.159	0.350
-0.596	-5.154	0.350
-0.587	-5.156	0.350
-0.580	-5.162	0.350
-0.579	-5.172	0.350
-0.583	-5.180	0.350
-0.591	-5.184	0.350
-0.600	-5.183	0.350
-0.607	-5.176	0.350
-0.608	-5.167	0.350
-0.600	-5.249	0.363
-0.597	-5.241	0.367
-0.597	-5.232	0.368
-0.600	-5.224	0.363
-0.605	-5.222	0.355
-0.609	-5.224	0.348
-0.612	-5.232	0.343
-0.612	-5.241	0.343
-0.609	-5.249	0.347
-0.604	-5.252	0.355
-0.696	-5.251	0.415
-0.692	-5.243	0.415
-0.694	-5.234	0.415
-0.700	-5.227	0.415
-0.709	-5.226	0.415
-0.718	-5.230	0.415
-0.722	-5.238	0.415
-0.720	-5.248	0.415
-0.714	-5.254	0.415
-0.705	-5.256	0.415
-0.711	-5.327	0.425
-0.708	-5.320	0.429
-0.708	-5.311	0.430
-0.712	-5.303	0.425
-0.716	-5.300	0.418
-0.721	-5.303	0.410
-0.724	-5.310	0.406
-0.724	-5.320	0.405
-0.720	-5.327	0.410
-0.716	-5.330	0.417
-0.796	-5.307	0.461
-0.788	-5.303	0.461
-0.778	-5.304	0.461
-0.772	-5.311	0.461
-0.770	-5.320	0.461
-0.775	-5.328	0.461
-0.783	-5.332	0.461
-0.792	-5.331	0.461
-0.799	-5.324	0.461
-0.800	-5.315	0.461
-0.818	-5.413	0.485
-0.816	-5.406	0.490
-0.816	-5.397	0.490
-0.819	-5.389	0.485
-0.823	-5.386	0.478
-0.827	-5.389	0.470
-0.830	-5.397	0.465
-0.830	-5.406	0.465
-0.827	-5.413	0.470
-0.823	-5.416	0.478
-0.873	-5.415	0.516
-0.870	-5.407	0.521
-0.870	-5.398	0.521
-0.873	-5.390	0.516
-0.877	-5.388	0.509
-0.882	-5.390	0.501
-0.884	-5.398	0.496
-0.884	-5.407	0.496
-0.881	-5.415	0.501
-0.877	-5.417	0.509
-0.915	-5.497	0.531
-0.914	-5.488	0.532
-0.917	-5.480	0.535
-0.925	-5.476	0.539
-0.933	-5.478	0.542
-0.940	-5.485	0.543
-0.941	-5.494	0.542
[...]
         <CellData>
           <DataArray type="Float32" Name="combinedRootClassID" NumberOfComponents="1" format="ascii">
 -1.300e+01 -1.300e+01 -1.300e+01 -1.300e+01 -1.300e+01 -1.300e+01 -1.300e+01 -1.300e+01 -1.300e+01 -5.000e+00 -5.000e+00 -5.000e+00 -5.000e+00 -5.000e+00 -5.000e+00 -5.000e+00 -5.000e+00 -5.000e+00 -5.000e+00 -5.000e+00 -5.000e+00 -5.000e+00 -1.300e+01 -1.300e+01 -1.300e+01 -1.300e+01 -1.300e+01 -1.300e+01 -1.300e+01 -1.300e+01 -1.300e+01 -5.000e+00 -5.000e+00 -5.000e+00 -5.000e+00 -5.000e+00 -5.000e+00 -5.000e+00 -5.000e+00 -5.000e+00 -5.000e+00 -5.000e+00 -5.000e+00 -5.000e+00 -1.300e+01 -1.300e+01 -1.300e+01 -1.300e+01 -1.300e+01 -1.300e+01 -1.300e+01 -1.300e+01 -1.300e+01 -5.000e+00 -5.000e+00 -5.000e+00 -5.000e+00 -5.000e+00 -5.000e+00 -5.000e+00 -5.000e+00 -5.000e+00 -5.000e+00 -5.000e+00 -5.000e+00 -5.000e+00 -1.300e+01 -1.300e+01 -1.300e+01 -1.300e+01 -1.300e+01 -1.300e+01 -1.300e+01 -1.300e+01 -1.300e+01 -5.000e+00 -5.000e+00 -5.000e+00 -5.000e+00 -5.000e+00 -5.000e+00 -5.000e+00 -5.000e+00 -5.000e+00 -5.000e+00 -5.000e+00 -5.000e+00 -5.000e+00 -1.100e+01 -1.100e+01 -1.100e+01 -1.100e+01 -1.100e+01 -1.100e+01 -1.100e+01 -1.100e+01 -1.100e+01 -1.100e+01 -1.100e+01 -1.100e+01 -2.000e+00 -2.000e+00 -2.000e+00 -2.000e+00 -2.000e+00 -2.000e+00 -2.000e+00 -2.000e+00 -2.000e+00 -2.000e+00 -2.000e+00 -2.000e+00 -7.000e+00 -7.000e+00 -7.000e+00 -7.000e+00 -7.000e+00 -7.000e+00 -7.000e+00 -7.000e+00 -7.000e+00 -7.000e+00 -7.000e+00 -7.000e+00 -7.000e+00 -7.000e+00 -7.000e+00 -7.000e+00 -7.000e+00 -7.000e+00 -7.000e+00 -7.000e+00 -7.000e+00 -7.000e+00 -7.000e+00 -7.000e+00 -7.000e+00 -7.000e+00 -7.000e+00 -7.000e+00 -7.000e+00 -7.000e+00 -7.000e+00 -7.000e+00 -7.000e+00 -7.000e+00 -7.000e+00 -7.000e+00 -7.000e+00 -7.000e+00 -7.000e+00 -7.000e+00 -7.000e+00 -7.000e+00 -7.000e+00 -7.000e+00 -7.000e+00 -7.000e+00 -7.000e+00 -7.000e+00 -7.000e+00 -7.000e+00 -7.000e+00 -7.000e+00 -7.000e+00 -7.000e+00 -7.000e+00 -7.000e+00 -7.000e+00 -7.000e+00 -7.000e+00 -7.000e+00 -7.000e+00 -7.000e+00 -7.000e+00 -7.000e+00 -7.000e+00 -7.000e+00 -7.000e+00 -7.000e+00 -7.000e+00 -7.000e+00 -7.000e+00 -7.000e+00 -7.000e+00 -7.000e+00 -7.000e+00 -7.000e+00 -7.000e+00 -7.000e+00 -7.000e+00 -7.000e+00 -7.000e+00 -7.000e+00 -7.000e+00 -7.000e+00 -7.000e+00 -7.000e+00 -7.000e+00 -7.000e+00 -7.000e+00 -7.000e+00 -7.000e+00 -7.000e+00 -7.000e+00 -7.000e+00 -7.000e+00 -7.000e+00 -7.000e+00 -7.000e+00 -7.000e+00 -7.000e+00 -7.000e+00 -7.000e+00 -7.000e+00 -7.000e+00 -7.000e+00 -7.000e+00 -7.000e+00 -7.000e+00 -7.000e+00 -7.000e+00 -7.000e+00 -7.000e+00 -7.000e+00 -7.000e+00 -7.000e+00 -7.000e+00 -7.000e+00 -7.000e+00 -7.000e+00 -7.000e+00 -7.000e+00 -7.000e+00 -7.000e+00 -7.000e+00 -7.000e+00 -7.000e+00 -7.000e+00 -7.000e+00 -7.000e+00 -7.000e+00 -7.000e+00 -7.000e+00 -7.000e+00 -7.000e+00 -7.000e+00 -7.000e+00 -7.000e+00 -7.000e+00 -7.000e+00 -7.000e+00 -7.000e+00 -7.000e+00 -7.000e+00 -7.000e+00 -7.000e+00 -7.000e+00 -7.000e+00 -7.000e+00 -7.000e+00 -7.000e+00 -7.000e+00 -7.000e+00 -7.000e+00 -7.000e+00 -7.000e+00 -7.000e+00 -7.000e+00 -7.000e+00 -7.000e+00 -7.000e+00 -7.000e+00 -7.000e+00 -7.000e+00 -7.000e+00 -7.000e+00 -7.000e+00 -7.000e+00 -7.000e+00 -7.000e+00 -7.000e+00 -7.000e+00 -7.000e+00 -7.000e+00 -7.000e+00 -7.000e+00 -7.000e+00 -7.000e+00 -7.000e+00 -7.000e+00 -7.000e+00 -7.000e+00 -7.000e+00 -7.000e+00 -7.000e+00 -7.000e+00 -7.000e+00 -7.000e+00 -7.000e+00 -7.000e+00 -7.000e+00 -7.000e+00 -7.000e+00 -7.000e+00 -7.000e+00 -7.000e+00 -7.000e+00 -7.000e+00 -9.000e+00 -9.000e+00 -9.000e+00 -9.000e+00 -9.000e+00 -9.000e+00 -9.000e+00 -9.000e+00 -9.000e+00 -9.000e+00 -9.000e+00 -9.000e+00 -9.000e+00 -4.000e+00 -4.000e+00 -4.000e+00 -4.000e+00 -4.000e+00 -4.000e+00 -4.000e+00 -4.000e+00 -4.000e+00 -4.000e+00 -4.000e+00 -4.000e+00 -4.000e+00 -4.000e+00 -4.000e+00 -4.000e+00 -4.000e+00 -4.000e+00 -4.000e+00 -4.000e+00 -4.000e+00 -4.000e+00 -4.000e+00 -4.000e+00 -4.000e+00 -4.000e+00 -4.000e+00 -4.000e+00 -4.000e+00 -4.000e+00 -4.000e+00 -4.000e+00 -4.000e+00 -4.000e+00 -4.000e+00 -4.000e+00 -4.000e+00 -4.000e+00 -4.000e+00
           </DataArray>
           <DataArray type="Float32" Name="nitrate/minimalNutrientConcentration" NumberOfComponents="1" format="ascii">
 6.000e+02 6.000e+02 6.000e+02 6.000e+02 6.000e+02 6.000e+02 6.000e+02 6.000e+02 6.000e+02 6.000e+02 6.000e+02 6.000e+02 6.000e+02 6.000e+02 6.000e+02 6.000e+02 6.000e+02 6.000e+02 6.000e+02 6.000e+02 6.000e+02 6.000e+02 6.000e+02 6.000e+02 6.000e+02 6.000e+02 6.000e+02 6.000e+02 6.000e+02 6.000e+02 6.000e+02 6.000e+02 6.000e+02 6.000e+02 6.000e+02 6.000e+02 6.000e+02 6.000e+02 6.000e+02 6.000e+02 6.000e+02 6.000e+02 6.000e+02 6.000e+02 6.000e+02 6.000e+02 6.000e+02 6.000e+02 6.000e+02 6.000e+02 6.000e+02 6.000e+02 6.000e+02 6.000e+02 6.000e+02 6.000e+02 6.000e+02 6.000e+02 6.000e+02 6.000e+02 6.000e+02 6.000e+02 6.000e+02 6.000e+02 6.000e+02 6.000e+02 6.000e+02 6.000e+02 6.000e+02 6.000e+02 6.000e+02 6.000e+02 6.000e+02 6.000e+02 6.000e+02 6.000e+02 6.000e+02 6.000e+02 6.000e+02 6.000e+02 6.000e+02 6.000e+02 6.000e+02 6.000e+02 6.000e+02 6.000e+02 6.000e+02 6.000e+02 6.000e+02 6.000e+02 6.000e+02 6.000e+02 6.000e+02 6.000e+02 6.000e+02 6.000e+02 6.000e+02 6.000e+02 6.000e+02 6.000e+02 6.000e+02 6.000e+02 6.000e+02 6.000e+02 6.000e+02 6.000e+02 6.000e+02 6.000e+02 6.000e+02 6.000e+02 6.000e+02 6.000e+02 6.000e+02 6.000e+02 6.000e+02 6.000e+02 6.000e+02 6.000e+02 6.000e+02 6.000e+02 6.000e+02 6.000e+02 6.000e+02 6.000e+02 6.000e+02 6.000e+02 6.000e+02 6.000e+02 6.000e+02 6.000e+02 6.000e+02 6.000e+02 6.000e+02 6.000e+02 6.000e+02 6.000e+02 6.000e+02 6.000e+02 6.000e+02 6.000e+02 6.000e+02 6.000e+02 6.000e+02 6.000e+02 6.000e+02 6.000e+02 6.000e+02 6.000e+02 6.000e+02 6.000e+02 6.000e+02 6.000e+02 6.000e+02 6.000e+02 6.000e+02 6.000e+02 6.000e+02 6.000e+02 6.000e+02 6.000e+02 6.000e+02 6.000e+02 6.000e+02 6.000e+02 6.000e+02 6.000e+02 6.000e+02 6.000e+02 6.000e+02 6.000e+02 6.000e+02 6.000e+02 6.000e+02 6.000e+02 6.000e+02 6.000e+02 6.000e+02 6.000e+02 6.000e+02 6.000e+02 6.000e+02 6.000e+02 6.000e+02 6.000e+02 6.000e+02 6.000e+02 6.000e+02 6.000e+02 6.000e+02 6.000e+02 6.000e+02 6.000e+02 6.000e+02 6.000e+02 6.000e+02 6.000e+02 6.000e+02 6.000e+02 6.000e+02 6.000e+02 6.000e+02 6.000e+02 6.000e+02 6.000e+02 6.000e+02 6.000e+02 6.000e+02 6.000e+02 6.000e+02 6.000e+02 6.000e+02 6.000e+02 6.000e+02 6.000e+02 6.000e+02 6.000e+02 6.000e+02 6.000e+02 6.000e+02 6.000e+02 6.000e+02 6.000e+02 6.000e+02 6.000e+02 6.000e+02 6.000e+02 6.000e+02 6.000e+02 6.000e+02 6.000e+02 6.000e+02 6.000e+02 6.000e+02 6.000e+02 6.000e+02 6.000e+02 6.000e+02 6.000e+02 6.000e+02 6.000e+02 6.000e+02 6.000e+02 6.000e+02 6.000e+02 6.000e+02 6.000e+02 6.000e+02 6.000e+02 6.000e+02 6.000e+02 6.000e+02 6.000e+02 6.000e+02 6.000e+02 6.000e+02 6.000e+02 6.000e+02 6.000e+02 6.000e+02 6.000e+02 6.000e+02 6.000e+02 6.000e+02 6.000e+02 6.000e+02 6.000e+02 6.000e+02 6.000e+02 6.000e+02 6.000e+02 6.000e+02 6.000e+02 6.000e+02 6.000e+02 6.000e+02 6.000e+02 6.000e+02 6.000e+02 6.000e+02 6.000e+02 6.000e+02 6.000e+02 6.000e+02 6.000e+02 6.000e+02 6.000e+02 6.000e+02 6.000e+02 6.000e+02 6.000e+02 6.000e+02 6.000e+02 6.000e+02 6.000e+02 6.000e+02 6.000e+02 6.000e+02 6.000e+02 6.000e+02 6.000e+02 6.000e+02 6.000e+02 6.000e+02 6.000e+02 6.000e+02 6.000e+02 6.000e+02 6.000e+02 6.000e+02 6.000e+02 6.000e+02 6.000e+02 6.000e+02 6.000e+02 6.000e+02 6.000e+02 6.000e+02 6.000e+02 6.000e+02 6.000e+02 6.000e+02 6.000e+02 6.000e+02 6.000e+02 6.000e+02 6.000e+02 6.000e+02 6.000e+02 6.000e+02 6.000e+02 6.000e+02 6.000e+02 6.000e+02 6.000e+02 6.000e+02 6.000e+02 6.000e+02 6.000e+02 6.000e+02 6.000e+02 6.000e+02 6.000e+02 6.000e+02 6.000e+02 6.000e+02 6.000e+02 6.000e+02 6.000e+02 6.000e+02 6.000e+02 6.000e+02 6.000e+02 6.000e+02 6.000e+02 6.000e+02 6.000e+02 6.000e+02 6.000e+02 6.000e+02 6.000e+02 6.000e+02
           </DataArray>
           <DataArray type="Float32" Name="nitrate/optimalNutrientConcentration" NumberOfComponents="1" format="ascii">
 1.200e+03 1.200e+03 1.200e+03 1.200e+03 1.200e+03 1.200e+03 1.200e+03 1.200e+03 1.200e+03 1.200e+03 1.200e+03 1.200e+03 1.200e+03 1.200e+03 1.200e+03 1.200e+03 1.200e+03 1.200e+03 1.200e+03 1.200e+03 1.200e+03 1.200e+03 1.200e+03 1.200e+03 1.200e+03 1.200e+03 1.200e+03 1.200e+03 1.200e+03 1.200e+03 1.200e+03 1.200e+03 1.200e+03 1.200e+03 1.200e+03 1.200e+03 1.200e+03 1.200e+03 1.200e+03 1.200e+03 1.200e+03 1.200e+03 1.200e+03 1.200e+03 1.200e+03 1.200e+03 1.200e+03 1.200e+03 1.200e+03 1.200e+03 1.200e+03 1.200e+03 1.200e+03 1.200e+03 1.200e+03 1.200e+03 1.200e+03 1.200e+03 1.200e+03 1.200e+03 1.200e+03 1.200e+03 1.200e+03 1.200e+03 1.200e+03 1.200e+03 1.200e+03 1.200e+03 1.200e+03 1.200e+03 1.200e+03 1.200e+03 1.200e+03 1.200e+03 1.200e+03 1.200e+03 1.200e+03 1.200e+03 1.200e+03 1.200e+03 1.200e+03 1.200e+03 1.200e+03 1.200e+03 1.200e+03 1.200e+03 1.200e+03 1.200e+03 1.200e+03 1.200e+03 1.200e+03 1.200e+03 1.200e+03 1.200e+03 1.200e+03 1.200e+03 1.200e+03 1.200e+03 1.200e+03 1.200e+03 1.200e+03 1.200e+03 1.200e+03 1.200e+03 1.200e+03 1.200e+03 1.200e+03 1.200e+03 1.200e+03 1.200e+03 1.200e+03 1.200e+03 1.200e+03 1.200e+03 1.200e+03 1.200e+03 1.200e+03 1.200e+03 1.200e+03 1.200e+03 1.200e+03 1.200e+03 1.200e+03 1.200e+03 1.200e+03 1.200e+03 1.200e+03 1.200e+03 1.200e+03 1.200e+03 1.200e+03 1.200e+03 1.200e+03 1.200e+03 1.200e+03 1.200e+03 1.200e+03 1.200e+03 1.200e+03 1.200e+03 1.200e+03 1.200e+03 1.200e+03 1.200e+03 1.200e+03 1.200e+03 1.200e+03 1.200e+03 1.200e+03 1.200e+03 1.200e+03 1.200e+03 1.200e+03 1.200e+03 1.200e+03 1.200e+03 1.200e+03 1.200e+03 1.200e+03 1.200e+03 1.200e+03 1.200e+03 1.200e+03 1.200e+03 1.200e+03 1.200e+03 1.200e+03 1.200e+03 1.200e+03 1.200e+03 1.200e+03 1.200e+03 1.200e+03 1.200e+03 1.200e+03 1.200e+03 1.200e+03 1.200e+03 1.200e+03 1.200e+03 1.200e+03 1.200e+03 1.200e+03 1.200e+03 1.200e+03 1.200e+03 1.200e+03 1.200e+03 1.200e+03 1.200e+03 1.200e+03 1.200e+03 1.200e+03 1.200e+03 1.200e+03 1.200e+03 1.200e+03 1.200e+03 1.200e+03 1.200e+03 1.200e+03 1.200e+03 1.200e+03 1.200e+03 1.200e+03 1.200e+03 1.200e+03 1.200e+03 1.200e+03 1.200e+03 1.200e+03 1.200e+03 1.200e+03 1.200e+03 1.200e+03 1.200e+03 1.200e+03 1.200e+03 1.200e+03 1.200e+03 1.200e+03 1.200e+03 1.200e+03 1.200e+03 1.200e+03 1.200e+03 1.200e+03 1.200e+03 1.200e+03 1.200e+03 1.200e+03 1.200e+03 1.200e+03 1.200e+03 1.200e+03 1.200e+03 1.200e+03 1.200e+03 1.200e+03 1.200e+03 1.200e+03 1.200e+03 1.200e+03 1.200e+03 1.200e+03 1.200e+03 1.200e+03 1.200e+03 1.200e+03 1.200e+03 1.200e+03 1.200e+03 1.200e+03 1.200e+03 1.200e+03 1.200e+03 1.200e+03 1.200e+03 1.200e+03 1.200e+03 1.200e+03 1.200e+03 1.200e+03 1.200e+03 1.200e+03 1.200e+03 1.200e+03 1.200e+03 1.200e+03 1.200e+03 1.200e+03 1.200e+03 1.200e+03 1.200e+03 1.200e+03 1.200e+03 1.200e+03 1.200e+03 1.200e+03 1.200e+03 1.200e+03 1.200e+03 1.200e+03 1.200e+03 1.200e+03 1.200e+03 1.200e+03 1.200e+03 1.200e+03 1.200e+03 1.200e+03 1.200e+03 1.200e+03 1.200e+03 1.200e+03 1.200e+03 1.200e+03 1.200e+03 1.200e+03 1.200e+03 1.200e+03 1.200e+03 1.200e+03 1.200e+03 1.200e+03 1.200e+03 1.200e+03 1.200e+03 1.200e+03 1.200e+03 1.200e+03 1.200e+03 1.200e+03 1.200e+03 1.200e+03 1.200e+03 1.200e+03 1.200e+03 1.200e+03 1.200e+03 1.200e+03 1.200e+03 1.200e+03 1.200e+03 1.200e+03 1.200e+03 1.200e+03 1.200e+03 1.200e+03 1.200e+03 1.200e+03 1.200e+03 1.200e+03 1.200e+03 1.200e+03 1.200e+03 1.200e+03 1.200e+03 1.200e+03 1.200e+03 1.200e+03 1.200e+03 1.200e+03 1.200e+03 1.200e+03 1.200e+03 1.200e+03 1.200e+03 1.200e+03 1.200e+03 1.200e+03 1.200e+03 1.200e+03 1.200e+03 1.200e+03 1.200e+03 1.200e+03 1.200e+03 1.200e+03 1.200e+03 1.200e+03
           </DataArray>
           <DataArray type="Float32" Name="nitrate/radiusDepletionZone" NumberOfComponents="1" format="ascii">
 1.500e-02 1.500e-02 1.500e-02 1.500e-02 1.500e-02 1.500e-02 1.500e-02 6.896e-02 7.276e-02 3.409e-02 3.401e-02 1.134e+00 9.055e-01 8.624e-01 8.359e-01 6.569e-01 6.378e-01 4.745e-01 4.615e-01 3.115e-01 3.034e-01 1.651e-01 1.500e-02 1.500e-02 1.500e-02 1.500e-02 1.500e-02 1.500e-02 1.834e-01 1.176e-01 1.091e-01 3.409e-02 3.401e-02 1.045e+00 9.055e-01 8.624e-01 8.359e-01 6.569e-01 6.378e-01 4.745e-01 4.615e-01 3.115e-01 3.034e-01 1.651e-01 1.500e-02 1.500e-02 1.500e-02 1.500e-02 1.500e-02 1.500e-02 1.819e-01 1.248e-01 9.640e-02 3.409e-02 3.401e-02 1.027e+00 9.055e-01 8.624e-01 8.359e-01 6.569e-01 6.378e-01 4.745e-01 4.615e-01 3.115e-01 3.034e-01 1.651e-01 1.500e-02 1.500e-02 1.500e-02 1.500e-02 1.500e-02 1.500e-02 1.381e-01 1.094e-01 6.449e-02 3.409e-02 3.401e-02 1.134e+00 9.055e-01 8.624e-01 8.359e-01 6.569e-01 6.378e-01 4.745e-01 4.615e-01 3.115e-01 3.034e-01 1.651e-01 3.400e-02 3.400e-02 3.217e-01 3.400e-02 3.400e-02 3.558e-01 3.400e-02 3.400e-02 3.474e-01 3.400e-02 3.400e-02 3.682e-01 1.768e+00 4.520e+00 1.634e+01 1.307e+01 1.088e+01 9.321e+00 8.152e+00 7.242e+00 5.998e+00 2.076e-01 2.068e-01 2.055e-01 1.503e-02 1.501e-02 3.080e-01 1.503e-02 1.502e-02 7.720e-01 4.277e-01 1.503e-02 1.501e-02 5.491e-01 1.496e-01 1.503e-02 1.501e-02 6.368e-01 1.807e-01 1.502e-02 1.501e-02 4.662e-01 1.459e-01 1.502e-02 1.501e-02 4.604e-01 1.502e-02 1.501e-02 3.145e-01 1.502e-02 1.501e-02 7.215e-01 1.595e-01 1.502e-02 1.501e-02 4.277e-01 1.502e-02 1.501e-02 5.227e-01 1.502e-02 1.501e-02 5.478e-01 1.502e-02 1.501e-02 4.680e-01 1.503e-02 9.888e-01 6.939e-01 3.921e-01 1.502e-02 9.268e-01 3.782e-01 1.502e-02 1.501e-02 4.745e-01 1.502e-02 1.500e-02 2.817e-01 1.502e-02 1.501e-02 4.608e-01 2.277e-01 1.502e-02 1.501e-02 4.238e-01 1.502e-02 1.501e-02 2.992e-01 1.502e-02 1.500e-02 2.860e-01 1.501e-02 1.500e-02 2.980e-01 1.501e-02 1.500e-02 2.169e-01 1.501e-02 1.501e-02 3.915e-01 1.503e-02 8.251e-01 3.891e-01 1.501e-02 1.500e-02 2.239e-01 1.501e-02 1.500e-02 3.101e-01 1.501e-02 1.500e-02 3.706e-01 1.501e-02 1.500e-02 1.501e-02 1.500e-02 1.501e-02 1.500e-02 1.065e-01 1.501e-02 1.500e-02 1.501e-02 1.500e-02 1.853e-01 1.501e-02 1.500e-02 1.501e-02 1.500e-02 1.265e-01 1.503e-02 1.502e-02 7.352e-01 3.912e-01 1.501e-02 1.500e-02 1.501e-02 1.500e-02 1.501e-02 1.500e-02 1.501e-02 1.500e-02 1.501e-02 1.500e-02 1.501e-02 1.500e-02 1.501e-02 1.500e-02 1.501e-02 1.500e-02 1.501e-02 1.500e-02 1.500e-02 1.500e-02 1.503e-02 1.501e-02 5.711e-01 1.500e-02 1.500e-02 1.500e-02 1.500e-02 1.500e-02 1.500e-02 1.500e-02 1.500e-02 1.500e-02 1.500e-02 1.500e-02 1.500e-02 1.500e-02 1.500e-02 1.500e-02 1.500e-02 1.500e-02 1.500e-02 1.500e-02 1.500e-02 1.503e-02 1.501e-02 6.757e-01 2.958e-01 1.500e-02 1.500e-02 1.500e-02 1.500e-02 1.500e-02 1.500e-02 1.500e-02 1.500e-02 1.500e-02 1.500e-02 1.500e-02 1.500e-02 1.503e-02 1.501e-02 7.099e-01 2.913e-01 1.500e-02 1.500e-02 1.500e-02 1.500e-02 1.500e-02 1.500e-02 1.500e-02 1.500e-02 1.500e-02 1.500e-02 1.503e-02 1.501e-02 6.552e-01 2.561e-01 1.500e-02 1.500e-02 1.500e-02 1.500e-02 1.500e-02 1.500e-02 1.500e-02 1.500e-02 1.503e-02 1.501e-02 4.971e-01 1.507e-02 1.505e-02 8.539e-01 6.438e-01 4.468e-01 1.477e-01 1.503e-02 1.501e-02 4.595e-01 2.874e-01 1.500e-02 1.500e-02 1.500e-02 1.346e+00 2.713e+01 1.793e+01 1.344e+01 1.075e+01 8.951e+00 7.669e+00 6.063e+00 5.387e+00 4.846e+00 4.404e+00 4.035e+00 3.724e+00 3.088e+00 2.881e+00 2.700e+00 2.541e+00 2.399e+00 2.272e+00 1.900e+00 1.809e+00 1.727e+00 1.651e+00 1.582e+00 1.312e+00 1.262e+00 1.215e+00 1.171e+00 1.131e+00 9.208e-01 8.909e-01 8.630e-01 6.804e-01 6.603e-01 6.414e-01 4.802e-01 4.672e-01 3.190e-01 1.785e-01
           </DataArray>
           <DataArray type="Float32" Name="nitrate/rootSegmentMinimalNutrientContent" NumberOfComponents="1" format="ascii">
 8.840e-03 8.221e-03 6.701e-03 5.884e-03 4.357e-03 3.895e-03 2.513e-03 1.552e-03 8.667e-04 1.958e-01 1.504e-01 1.406e-01 1.646e-01 1.230e-01 1.337e-01 1.443e-01 1.550e-01 1.621e-01 1.639e-01 1.639e-01 1.639e-01 8.193e-02 8.426e-03 9.003e-03 6.325e-03 4.693e-03 4.736e-03 3.264e-03 2.493e-03 1.453e-03 7.431e-04 1.958e-01 1.504e-01 1.406e-01 1.646e-01 1.230e-01 1.337e-01 1.443e-01 1.550e-01 1.621e-01 1.639e-01 1.639e-01 1.639e-01 8.193e-02 7.330e-03 7.794e-03 7.086e-03 5.246e-03 4.925e-03 3.518e-03 2.194e-03 1.300e-03 8.516e-04 1.958e-01 1.504e-01 1.406e-01 1.646e-01 1.230e-01 1.337e-01 1.443e-01 1.550e-01 1.621e-01 1.639e-01 1.639e-01 1.639e-01 8.193e-02 8.749e-03 7.685e-03 6.289e-03 4.887e-03 4.990e-03 3.212e-03 2.886e-03 1.930e-03 7.278e-04 1.958e-01 1.504e-01 1.406e-01 1.646e-01 1.230e-01 1.337e-01 1.443e-01 1.550e-01 1.621e-01 1.639e-01 1.639e-01 1.639e-01 8.193e-02 1.396e-01 1.307e-01 1.733e-01 1.396e-01 1.307e-01 1.733e-01 1.396e-01 1.307e-01 1.733e-01 1.396e-01 1.307e-01 1.733e-01 8.134e+00 3.985e+00 4.604e+00 4.885e+00 4.861e+00 4.816e+00 4.773e+00 4.731e+00 4.378e+00 3.722e+00 5.499e+00 5.985e+00 3.239e-02 3.437e-02 2.450e-02 3.086e-02 3.165e-02 3.159e-02 2.209e-02 3.276e-02 3.299e-02 3.294e-02 9.877e-03 3.220e-02 3.388e-02 3.383e-02 1.014e-02 3.445e-02 3.108e-02 3.104e-02 3.102e-03 3.299e-02 3.394e-02 2.260e-02 3.351e-02 3.542e-02 1.011e-02 2.872e-02 2.946e-02 2.942e-02 2.572e-02 3.377e-02 3.558e-02 2.073e-02 3.313e-02 3.327e-02 3.323e-02 3.205e-02 3.363e-02 3.358e-02 3.573e-02 3.216e-02 2.570e-02 3.479e-02 3.069e-02 3.064e-02 1.531e-02 3.798e-02 3.249e-02 2.272e-02 3.322e-02 3.589e-02 3.227e-02 3.510e-02 3.557e-02 1.184e-02 3.461e-02 2.943e-02 2.941e-02 7.348e-03 3.274e-02 3.279e-02 2.293e-02 3.191e-02 3.338e-02 2.334e-02 3.417e-02 3.068e-02 1.533e-02 3.545e-02 3.026e-02 1.209e-02 3.362e-02 3.573e-02 5.950e-03 2.890e-02 3.679e-02 2.572e-02 3.417e-02 3.436e-02 1.960e-02 3.427e-02 2.996e-02 8.981e-03 3.126e-02 3.122e-02 1.248e-02 3.481e-02 2.905e-02 2.177e-02 3.128e-02 3.362e-02 3.183e-02 2.982e-02 3.545e-02 3.132e-02 3.131e-03 3.536e-02 2.973e-02 3.072e-02 3.246e-02 6.489e-03 3.585e-02 3.247e-02 3.185e-02 3.313e-02 3.311e-03 3.288e-02 3.470e-02 3.464e-02 2.076e-02 3.792e-02 2.011e-02 3.125e-02 3.200e-02 3.307e-02 2.332e-02 3.387e-02 3.074e-02 3.539e-02 2.155e-02 3.102e-02 1.961e-02 3.392e-02 1.747e-02 3.124e-02 2.711e-02 3.139e-02 2.244e-02 3.558e-02 1.565e-02 3.154e-02 3.423e-02 3.417e-02 3.397e-02 2.050e-02 3.405e-02 1.182e-02 2.952e-02 1.947e-02 3.412e-02 8.768e-03 3.041e-02 1.644e-02 3.092e-02 5.231e-03 3.404e-02 5.972e-03 2.929e-02 1.837e-02 3.388e-02 2.933e-03 3.525e-02 3.169e-03 3.123e-02 3.244e-02 3.239e-02 1.618e-02 3.361e-02 3.270e-02 7.053e-03 3.224e-02 3.273e-03 2.689e-02 3.108e-02 2.539e-02 2.753e-02 2.579e-02 2.293e-02 2.082e-02 3.228e-02 3.509e-02 3.503e-02 1.750e-02 2.090e-02 2.396e-02 1.809e-02 1.955e-02 1.745e-02 1.558e-02 1.575e-02 1.481e-02 1.096e-02 1.252e-02 3.475e-02 3.554e-02 3.548e-02 1.418e-02 9.660e-03 9.064e-03 6.523e-03 5.487e-03 5.054e-03 3.841e-03 1.947e-03 7.784e-04 3.190e-02 3.369e-02 2.803e-02 2.913e-02 2.913e-02 2.903e-02 2.896e-02 2.891e-02 9.630e-03 2.869e-02 3.233e-02 3.227e-02 2.149e-02 2.803e-02 9.695e-03 1.613e-02 5.236e-01 2.558e-01 2.501e-01 2.445e-01 2.391e-01 2.338e-01 2.288e-01 2.240e-01 2.195e-01 2.151e-01 2.110e-01 2.071e-01 2.033e-01 1.998e-01 1.965e-01 1.934e-01 1.907e-01 1.883e-01 1.862e-01 1.845e-01 1.830e-01 1.815e-01 1.802e-01 1.789e-01 1.777e-01 1.766e-01 1.756e-01 1.746e-01 1.737e-01 1.729e-01 1.722e-01 1.716e-01 1.710e-01 1.705e-01 1.701e-01 1.697e-01 1.695e-01 1.693e-01 1.692e-01
           </DataArray>
           <DataArray type="Float32" Name="nitrate/rootSegmentNutrientUptake" NumberOfComponents="1" format="ascii">