<?xml version="1.0"?>
<VTKFile type="UnstructuredGrid" version="0.1" byte_order="LittleEndian">
   <UnstructuredGrid>
      <Piece NumberOfPoints="2770" NumberOfCells="201">
         <Points>
            <DataArray type="Float32" Name="Position" NumberOfComponents="3" format="ascii">
-0.027	-4.970	0.005
-0.013	-4.959	-0.007
0.005	-4.961	-0.017
0.021	-4.974	-0.021
0.029	-4.992	-0.017
0.026	-5.011	-0.007
0.013	-5.021	0.006
-0.006	-5.019	0.016
-0.022	-5.007	0.020
-0.030	-4.988	0.016
-0.473	-5.328	-0.743
-0.464	-5.315	-0.757
-0.447	-5.312	-0.769
-0.429	-5.320	-0.775
-0.416	-5.336	-0.772
-0.413	-5.354	-0.761
-0.422	-5.368	-0.747
-0.439	-5.371	-0.735
-0.457	-5.363	-0.730
-0.470	-5.346	-0.733
-0.769	-5.777	-1.245
-0.760	-5.766	-1.261
-0.743	-5.764	-1.272
-0.723	-5.772	-1.276
-0.710	-5.787	-1.269
-0.707	-5.803	-1.256
-0.716	-5.814	-1.241
-0.734	-5.816	-1.229
-0.753	-5.808	-1.226
-0.767	-5.793	-1.232
-1.013	-6.216	-1.717
-1.000	-6.208	-1.731
-0.981	-6.210	-1.740
-0.962	-6.220	-1.738
-0.952	-6.235	-1.728
-0.954	-6.249	-1.712
-0.967	-6.257	-1.698
-0.986	-6.255	-1.689
-1.004	-6.245	-1.691
-1.014	-6.230	-1.701
-1.267	-6.792	-2.219
-1.251	-6.788	-2.232
-1.231	-6.792	-2.237
-1.214	-6.803	-2.231
-1.207	-6.817	-2.217
-1.213	-6.829	-2.201
-1.228	-6.833	-2.187
-1.248	-6.829	-2.183
-1.265	-6.817	-2.188
-1.272	-6.803	-2.202
-1.433	-7.250	-2.573
-1.416	-7.248	-2.585
-1.396	-7.253	-2.587
-1.380	-7.264	-2.579
-1.375	-7.277	-2.563
-1.383	-7.287	-2.546
-1.400	-7.290	-2.534
-1.420	-7.285	-2.532
-1.435	-7.273	-2.540
-1.441	-7.260	-2.556
-1.601	-7.772	-2.931
-1.583	-7.770	-2.942
-1.563	-7.776	-2.942
-1.548	-7.787	-2.932
-1.544	-7.799	-2.915
-1.553	-7.808	-2.898
-1.571	-7.809	-2.887
-1.591	-7.803	-2.887
-1.606	-7.792	-2.897
-1.610	-7.780	-2.914
-1.770	-8.357	-3.286
-1.752	-8.356	-3.297
-1.732	-8.362	-3.296
-1.718	-8.373	-3.286
-1.715	-8.385	-3.268
-1.724	-8.392	-3.251
-1.742	-8.393	-3.241
-1.762	-8.387	-3.241
-1.777	-8.376	-3.252
-1.780	-8.364	-3.269
-1.818	-8.704	-3.458
-1.808	-8.686	-3.458
-1.811	-8.665	-3.458
-1.826	-8.650	-3.458
-1.847	-8.647	-3.458
-1.866	-8.656	-3.458
-1.875	-8.675	-3.458
-1.872	-8.696	-3.458
-1.857	-8.711	-3.458
-1.836	-8.714	-3.458
0.018	-5.017	0.009
0.020	-5.003	0.024
0.014	-4.983	0.029
0.003	-4.967	0.024
-0.009	-4.959	0.009
-0.018	-4.963	-0.010
-0.020	-4.977	-0.025
-0.015	-4.997	-0.031
-0.004	-5.014	-0.025
0.009	-5.021	-0.010
-0.731	-5.367	0.443
-0.730	-5.354	0.460
-0.737	-5.336	0.468
-0.750	-5.320	0.464
-0.763	-5.311	0.450
-0.772	-5.314	0.432
-0.773	-5.327	0.415
-0.766	-5.345	0.407
-0.753	-5.361	0.410
-0.740	-5.369	0.424
-1.238	-5.813	0.715
-1.238	-5.803	0.733
-1.246	-5.787	0.744
-1.261	-5.772	0.743
-1.275	-5.763	0.731
-1.285	-5.764	0.712
-1.285	-5.774	0.694
-1.276	-5.790	0.683
-1.262	-5.805	0.684
-1.247	-5.814	0.696
-1.703	-6.258	0.945
-1.703	-6.249	0.964
-1.712	-6.235	0.976
-1.728	-6.220	0.977
-1.743	-6.211	0.966
-1.753	-6.211	0.948
-1.753	-6.220	0.928
-1.744	-6.234	0.916
-1.729	-6.248	0.915
-1.713	-6.257	0.926
-2.180	-6.853	1.186
-2.179	-6.846	1.205
-2.188	-6.833	1.220
-2.204	-6.820	1.223
-2.221	-6.812	1.213
-2.232	-6.811	1.196
-2.233	-6.818	1.176
-2.223	-6.830	1.162
-2.207	-6.843	1.159
-2.190	-6.852	1.168
-2.502	-7.326	1.360
-2.500	-7.320	1.380
-2.509	-7.308	1.395
-2.526	-7.296	1.400
-2.543	-7.288	1.392
-2.555	-7.287	1.374
-2.557	-7.293	1.354
-2.547	-7.304	1.339
-2.531	-7.317	1.335
-2.513	-7.325	1.343
-2.829	-7.857	1.550
-2.827	-7.851	1.570
-2.836	-7.840	1.586
-2.853	-7.828	1.591
-2.871	-7.820	1.583
-2.883	-7.819	1.566
-2.885	-7.824	1.546
-2.876	-7.835	1.531
-2.859	-7.847	1.526
-2.841	-7.855	1.533
-3.170	-8.442	1.739
-3.167	-8.437	1.759
-3.176	-8.427	1.775
-3.193	-8.416	1.781
-3.212	-8.408	1.774
-3.224	-8.406	1.758
-3.226	-8.411	1.737
-3.217	-8.421	1.721
-3.200	-8.432	1.716
-3.182	-8.440	1.722
-3.336	-8.759	1.836
-3.334	-8.754	1.857
-3.343	-8.744	1.873
-3.360	-8.733	1.879
-3.378	-8.726	1.873
-3.391	-8.724	1.856
-3.394	-8.729	1.836
-3.385	-8.739	1.820
-3.368	-8.750	1.814
-3.349	-8.757	1.820
0.027	-4.998	-0.020
0.029	-4.978	-0.013
0.020	-4.963	-0.002
0.003	-4.958	0.010
-0.015	-4.965	0.018
-0.027	-4.982	0.018
-0.030	-5.002	0.012
-0.021	-5.017	0.001
-0.004	-5.022	-0.011
0.014	-5.015	-0.019
0.477	-5.300	0.750
0.480	-5.281	0.759
0.472	-5.266	0.771
0.455	-5.261	0.783
0.437	-5.269	0.790
0.423	-5.285	0.789
0.420	-5.304	0.781
0.429	-5.319	0.769
0.445	-5.323	0.757
0.464	-5.316	0.750
0.799	-5.654	1.304
0.803	-5.637	1.314
0.796	-5.623	1.328
0.779	-5.619	1.341
0.760	-5.625	1.346
0.746	-5.640	1.344
0.742	-5.658	1.333
0.750	-5.672	1.319
0.766	-5.676	1.307
0.785	-5.670	1.301
1.065	-6.039	1.806
1.070	-6.022	1.817
1.063	-6.010	1.832
1.046	-6.005	1.845
1.027	-6.012	1.850
1.012	-6.026	1.846
1.007	-6.043	1.834
1.014	-6.055	1.819
1.031	-6.059	1.806
1.050	-6.053	1.801
1.357	-6.561	2.340
1.363	-6.545	2.353
1.356	-6.534	2.369
1.340	-6.530	2.382
1.320	-6.536	2.387
1.305	-6.549	2.382
1.299	-6.565	2.368
1.306	-6.577	2.352
1.322	-6.580	2.339
1.342	-6.574	2.335
1.572	-6.980	2.712
1.578	-6.965	2.726
1.572	-6.955	2.743
1.556	-6.951	2.756
1.536	-6.957	2.760
1.520	-6.970	2.754
1.514	-6.984	2.740
1.521	-6.995	2.723
1.537	-6.998	2.710
1.557	-6.992	2.706
1.783	-7.467	3.091
1.789	-7.453	3.106
1.783	-7.443	3.123
1.767	-7.440	3.136
1.747	-7.445	3.140
1.731	-7.457	3.134
1.724	-7.471	3.119
1.731	-7.481	3.102
1.747	-7.484	3.089
1.767	-7.479	3.085
2.005	-8.010	3.480
2.011	-7.997	3.495
2.005	-7.987	3.513
1.989	-7.984	3.526
1.969	-7.989	3.530
1.953	-8.001	3.523
1.947	-8.014	3.508
1.953	-8.024	3.491
1.969	-8.027	3.477
1.989	-8.022	3.473
2.129	-8.294	3.685
2.135	-8.281	3.700
2.129	-8.271	3.717
2.113	-8.268	3.731
2.094	-8.274	3.735
2.077	-8.286	3.728
2.071	-8.299	3.713
2.077	-8.309	3.696
2.093	-8.312	3.682
2.113	-8.306	3.678
-0.004	-4.964	-0.023
0.005	-4.957	-0.005
0.013	-4.962	0.014
0.015	-4.978	0.027
0.011	-4.998	0.030
0.003	-5.016	0.022
-0.006	-5.023	0.004
-0.013	-5.018	-0.015
-0.015	-5.002	-0.029
-0.012	-4.982	-0.032
0.845	-5.167	-0.387
0.855	-5.160	-0.371
0.862	-5.164	-0.351
0.863	-5.180	-0.337
0.858	-5.200	-0.333
0.848	-5.217	-0.341
0.839	-5.224	-0.358
0.832	-5.220	-0.377
0.831	-5.204	-0.392
0.836	-5.184	-0.396
1.471	-5.439	-0.662
1.482	-5.432	-0.646
1.488	-5.437	-0.626
1.488	-5.451	-0.611
1.481	-5.470	-0.607
1.469	-5.487	-0.614
1.459	-5.494	-0.630
1.452	-5.489	-0.650
1.453	-5.475	-0.665
1.460	-5.456	-0.670
2.033	-5.745	-0.918
2.044	-5.738	-0.901
2.050	-5.743	-0.882
2.049	-5.757	-0.866
2.040	-5.775	-0.861
2.027	-5.790	-0.867
2.016	-5.797	-0.883
2.010	-5.793	-0.903
2.011	-5.779	-0.918
2.020	-5.761	-0.924
2.654	-6.180	-1.189
2.666	-6.173	-1.173
2.672	-6.178	-1.153
2.669	-6.191	-1.137
2.659	-6.208	-1.131
2.645	-6.223	-1.137
2.633	-6.229	-1.153
2.627	-6.225	-1.173
2.630	-6.212	-1.189
2.641	-6.194	-1.195
3.094	-6.540	-1.389
3.107	-6.534	-1.373
3.112	-6.538	-1.353
3.108	-6.551	-1.337
3.097	-6.567	-1.330
3.082	-6.581	-1.336
3.069	-6.587	-1.352
3.064	-6.583	-1.372
3.068	-6.570	-1.388
3.079	-6.554	-1.395
3.542	-6.973	-1.590
3.555	-6.967	-1.574
3.560	-6.971	-1.554
3.555	-6.983	-1.537
3.543	-6.999	-1.531
3.527	-7.012	-1.536
3.514	-7.017	-1.552
3.509	-7.013	-1.572
3.514	-7.001	-1.588
3.526	-6.986	-1.595
4.000	-7.465	-1.804
4.013	-7.460	-1.788
4.018	-7.464	-1.768
4.012	-7.475	-1.751
3.999	-7.490	-1.744
3.983	-7.502	-1.750
3.970	-7.508	-1.766
3.965	-7.504	-1.786
3.971	-7.492	-1.802
3.984	-7.478	-1.809
4.236	-7.737	-1.901
4.249	-7.731	-1.885
4.253	-7.735	-1.865
4.248	-7.746	-1.848
4.234	-7.760	-1.841
4.218	-7.773	-1.846
4.205	-7.778	-1.862
4.201	-7.774	-1.882
4.207	-7.763	-1.899
4.220	-7.749	-1.906
-0.027	-4.677	-0.001
-0.009	-4.667	-0.006
0.012	-4.669	-0.009
0.027	-4.684	-0.010
0.032	-4.704	-0.009
0.023	-4.723	-0.005
0.005	-4.733	-0.001
-0.015	-4.731	0.002
-0.031	-4.717	0.003
-0.035	-4.696	0.002
-0.102	-4.722	-0.433
-0.084	-4.712	-0.437
-0.064	-4.714	-0.440
-0.048	-4.729	-0.441
-0.044	-4.749	-0.440
-0.052	-4.768	-0.437
-0.070	-4.778	-0.432
-0.091	-4.776	-0.429
-0.106	-4.762	-0.428
-0.110	-4.741	-0.429
0.004	-4.727	0.017
0.005	-4.709	0.029
0.003	-4.688	0.028
-0.001	-4.672	0.016
-0.005	-4.666	-0.004
-0.008	-4.674	-0.024
-0.008	-4.691	-0.036
-0.006	-4.712	-0.035
-0.002	-4.728	-0.022
0.002	-4.734	-0.002
-0.428	-4.766	0.091
-0.428	-4.748	0.103
-0.430	-4.727	0.102
-0.433	-4.711	0.090
-0.437	-4.706	0.070
-0.440	-4.713	0.050
-0.440	-4.730	0.039
-0.438	-4.751	0.039
-0.435	-4.768	0.052
-0.431	-4.773	0.072
0.025	-4.721	-0.009
0.032	-4.701	-0.008
0.027	-4.681	-0.006
0.010	-4.668	-0.003
-0.010	-4.667	0.000
-0.028	-4.679	0.002
-0.035	-4.699	0.001
-0.030	-4.719	-0.001
-0.014	-4.732	-0.004
0.007	-4.733	-0.007
0.059	-4.709	0.407
0.059	-4.700	0.426
0.059	-4.703	0.447
0.059	-4.718	0.462
0.059	-4.739	0.465
0.059	-4.757	0.455
0.059	-4.767	0.437
0.059	-4.764	0.416
0.059	-4.749	0.401
0.059	-4.728	0.398
-0.004	-4.675	-0.026
0.000	-4.666	-0.008
0.004	-4.671	0.013
0.005	-4.686	0.027
0.004	-4.707	0.030
0.000	-4.725	0.020
-0.004	-4.734	0.001
-0.007	-4.730	-0.019
-0.008	-4.714	-0.034
-0.007	-4.693	-0.036
0.428	-4.711	-0.105
0.432	-4.703	-0.086
0.435	-4.707	-0.066
0.437	-4.722	-0.052
0.435	-4.743	-0.049
0.432	-4.761	-0.059
0.428	-4.770	-0.078
0.425	-4.766	-0.098
0.423	-4.750	-0.112
0.425	-4.729	-0.115
-0.152	-5.000	0.152
-0.034	-5.000	0.212
0.098	-4.999	0.191
0.191	-4.999	0.098
0.212	-5.000	-0.034
0.152	-5.000	-0.152
0.034	-5.000	-0.212
-0.098	-5.001	-0.191
-0.191	-5.001	-0.098
-0.212	-5.000	0.034
-0.152	-4.040	0.148
-0.035	-4.040	0.207
0.094	-4.040	0.186
0.187	-4.040	0.094
0.207	-4.040	-0.036
0.148	-4.040	-0.152
0.031	-4.040	-0.212
-0.098	-4.040	-0.191
-0.191	-4.040	-0.098
-0.211	-4.040	0.031
-0.151	-3.560	0.150
-0.035	-3.561	0.209
0.094	-3.561	0.188
0.186	-3.561	0.096
0.207	-3.561	-0.033
0.148	-3.560	-0.149
0.031	-3.560	-0.208
-0.097	-3.559	-0.188
-0.190	-3.559	-0.095
-0.210	-3.559	0.033
-0.147	-3.000	0.150
-0.031	-3.001	0.209
0.097	-3.001	0.188
0.189	-3.001	0.096
0.209	-3.001	-0.032
0.150	-3.000	-0.148
0.035	-2.999	-0.206
-0.093	-2.999	-0.186
-0.185	-2.999	-0.094
-0.206	-2.999	0.034
-0.145	-2.401	0.153
-0.030	-2.401	0.212
0.098	-2.402	0.191
0.189	-2.401	0.100
0.209	-2.400	-0.028
[...]
         <CellData>
           <DataArray type="Float32" Name="combinedRootClassID" NumberOfComponents="1" format="ascii">
 -5.000e+00 -5.000e+00 -5.000e+00 -5.000e+00 -5.000e+00 -5.000e+00 -5.000e+00 -5.000e+00 -5.000e+00 -5.000e+00 -5.000e+00 -5.000e+00 -5.000e+00 -5.000e+00 -5.000e+00 -5.000e+00 -5.000e+00 -5.000e+00 -5.000e+00 -5.000e+00 -5.000e+00 -5.000e+00 -5.000e+00 -5.000e+00 -5.000e+00 -5.000e+00 -5.000e+00 -5.000e+00 -5.000e+00 -5.000e+00 -5.000e+00 -5.000e+00 -1.100e+01 -1.100e+01 -1.100e+01 -1.100e+01 -2.000e+00 -2.000e+00 -2.000e+00 -2.000e+00 -2.000e+00 -2.000e+00 -2.000e+00 -2.000e+00 -2.000e+00 -2.000e+00 -2.000e+00 -2.000e+00 -7.000e+00 -7.000e+00 -7.000e+00 -7.000e+00 -7.000e+00 -7.000e+00 -7.000e+00 -7.000e+00 -7.000e+00 -7.000e+00 -7.000e+00 -7.000e+00 -7.000e+00 -7.000e+00 -7.000e+00 -7.000e+00 -7.000e+00 -7.000e+00 -7.000e+00 -7.000e+00 -7.000e+00 -7.000e+00 -7.000e+00 -7.000e+00 -7.000e+00 -7.000e+00 -7.000e+00 -7.000e+00 -7.000e+00 -7.000e+00 -7.000e+00 -7.000e+00 -7.000e+00 -7.000e+00 -7.000e+00 -7.000e+00 -7.000e+00 -7.000e+00 -7.000e+00 -7.000e+00 -7.000e+00 -7.000e+00 -7.000e+00 -7.000e+00 -7.000e+00 -7.000e+00 -7.000e+00 -7.000e+00 -7.000e+00 -7.000e+00 -7.000e+00 -7.000e+00 -7.000e+00 -7.000e+00 -7.000e+00 -7.000e+00 -7.000e+00 -7.000e+00 -7.000e+00 -7.000e+00 -7.000e+00 -7.000e+00 -7.000e+00 -7.000e+00 -7.000e+00 -7.000e+00 -7.000e+00 -7.000e+00 -7.000e+00 -7.000e+00 -7.000e+00 -7.000e+00 -7.000e+00 -7.000e+00 -7.000e+00 -7.000e+00 -7.000e+00 -7.000e+00 -7.000e+00 -7.000e+00 -7.000e+00 -7.000e+00 -7.000e+00 -7.000e+00 -7.000e+00 -7.000e+00 -7.000e+00 -7.000e+00 -7.000e+00 -7.000e+00 -7.000e+00 -7.000e+00 -7.000e+00 -7.000e+00 -7.000e+00 -7.000e+00 -7.000e+00 -7.000e+00 -7.000e+00 -7.000e+00 -7.000e+00 -7.000e+00 -7.000e+00 -7.000e+00 -7.000e+00 -7.000e+00 -7.000e+00 -7.000e+00 -7.000e+00 -7.000e+00 -7.000e+00 -7.000e+00 -7.000e+00 -9.000e+00 -9.000e+00 -9.000e+00 -9.000e+00 -9.000e+00 -9.000e+00 -4.000e+00 -4.000e+00 -4.000e+00 -4.000e+00 -4.000e+00 -4.000e+00 -4.000e+00 -4.000e+00 -4.000e+00 -4.000e+00 -4.000e+00 -4.000e+00 -4.000e+00 -4.000e+00 -4.000e+00 -4.000e+00 -4.000e+00 -4.000e+00 -4.000e+00 -4.000e+00 -4.000e+00 -4.000e+00 -4.000e+00 -4.000e+00 -4.000e+00 -4.000e+00 -4.000e+00 -4.000e+00 -4.000e+00 -4.000e+00 -4.000e+00 -4.000e+00 -4.000e+00 -4.000e+00
           </DataArray>
           <DataArray type="Float32" Name="nitrate/minimalNutrientConcentration" NumberOfComponents="1" format="ascii">
 6.000e+02 6.000e+02 6.000e+02 6.000e+02 6.000e+02 6.000e+02 6.000e+02 6.000e+02 6.000e+02 6.000e+02 6.000e+02 6.000e+02 6.000e+02 6.000e+02 6.000e+02 6.000e+02 6.000e+02 6.000e+02 6.000e+02 6.000e+02 6.000e+02 6.000e+02 6.000e+02 6.000e+02 6.000e+02 6.000e+02 6.000e+02 6.000e+02 6.000e+02 6.000e+02 6.000e+02 6.000e+02 6.000e+02 6.000e+02 6.000e+02 6.000e+02 6.000e+02 6.000e+02 6.000e+02 6.000e+02 6.000e+02 6.000e+02 6.000e+02 6.000e+02 6.000e+02 6.000e+02 6.000e+02 6.000e+02 6.000e+02 6.000e+02 6.000e+02 6.000e+02 6.000e+02 6.000e+02 6.000e+02 6.000e+02 6.000e+02 6.000e+02 6.000e+02 6.000e+02 6.000e+02 6.000e+02 6.000e+02 6.000e+02 6.000e+02 6.000e+02 6.000e+02 6.000e+02 6.000e+02 6.000e+02 6.000e+02 6.000e+02 6.000e+02 6.000e+02 6.000e+02 6.000e+02 6.000e+02 6.000e+02 6.000e+02 6.000e+02 6.000e+02 6.000e+02 6.000e+02 6.000e+02 6.000e+02 6.000e+02 6.000e+02 6.000e+02 6.000e+02 6.000e+02 6.000e+02 6.000e+02 6.000e+02 6.000e+02 6.000e+02 6.000e+02 6.000e+02 6.000e+02 6.000e+02 6.000e+02 6.000e+02 6.000e+02 6.000e+02 6.000e+02 6.000e+02 6.000e+02 6.000e+02 6.000e+02 6.000e+02 6.000e+02 6.000e+02 6.000e+02 6.000e+02 6.000e+02 6.000e+02 6.000e+02 6.000e+02 6.000e+02 6.000e+02 6.000e+02 6.000e+02 6.000e+02 6.000e+02 6.000e+02 6.000e+02 6.000e+02 6.000e+02 6.000e+02 6.000e+02 6.000e+02 6.000e+02 6.000e+02 6.000e+02 6.000e+02 6.000e+02 6.000e+02 6.000e+02 6.000e+02 6.000e+02 6.000e+02 6.000e+02 6.000e+02 6.000e+02 6.000e+02 6.000e+02 6.000e+02 6.000e+02 6.000e+02 6.000e+02 6.000e+02 6.000e+02 6.000e+02 6.000e+02 6.000e+02 6.000e+02 6.000e+02 6.000e+02 6.000e+02 6.000e+02 6.000e+02 6.000e+02 6.000e+02 6.000e+02 6.000e+02 6.000e+02 6.000e+02 6.000e+02 6.000e+02 6.000e+02 6.000e+02 6.000e+02 6.000e+02 6.000e+02 6.000e+02 6.000e+02 6.000e+02 6.000e+02 6.000e+02 6.000e+02 6.000e+02 6.000e+02 6.000e+02 6.000e+02 6.000e+02 6.000e+02 6.000e+02 6.000e+02 6.000e+02 6.000e+02 6.000e+02 6.000e+02 6.000e+02 6.000e+02 6.000e+02 6.000e+02 6.000e+02 6.000e+02 6.000e+02 6.000e+02 6.000e+02 6.000e+02
           </DataArray>
           <DataArray type="Float32" Name="nitrate/optimalNutrientConcentration" NumberOfComponents="1" format="ascii">
 1.200e+03 1.200e+03 1.200e+03 1.200e+03 1.200e+03 1.200e+03 1.200e+03 1.200e+03 1.200e+03 1.200e+03 1.200e+03 1.200e+03 1.200e+03 1.200e+03 1.200e+03 1.200e+03 1.200e+03 1.200e+03 1.200e+03 1.200e+03 1.200e+03 1.200e+03 1.200e+03 1.200e+03 1.200e+03 1.200e+03 1.200e+03 1.200e+03 1.200e+03 1.200e+03 1.200e+03 1.200e+03 1.200e+03 1.200e+03 1.200e+03 1.200e+03 1.200e+03 1.200e+03 1.200e+03 1.200e+03 1.200e+03 1.200e+03 1.200e+03 1.200e+03 1.200e+03 1.200e+03 1.200e+03 1.200e+03 1.200e+03 1.200e+03 1.200e+03 1.200e+03 1.200e+03 1.200e+03 1.200e+03 1.200e+03 1.200e+03 1.200e+03 1.200e+03 1.200e+03 1.200e+03 1.200e+03 1.200e+03 1.200e+03 1.200e+03 1.200e+03 1.200e+03 1.200e+03 1.200e+03 1.200e+03 1.200e+03 1.200e+03 1.200e+03 1.200e+03 1.200e+03 1.200e+03 1.200e+03 1.200e+03 1.200e+03 1.200e+03 1.200e+03 1.200e+03 1.200e+03 1.200e+03 1.200e+03 1.200e+03 1.200e+03 1.200e+03 1.200e+03 1.200e+03 1.200e+03 1.200e+03 1.200e+03 1.200e+03 1.200e+03 1.200e+03 1.200e+03 1.200e+03 1.200e+03 1.200e+03 1.200e+03 1.200e+03 1.200e+03 1.200e+03 1.200e+03 1.200e+03 1.200e+03 1.200e+03 1.200e+03 1.200e+03 1.200e+03 1.200e+03 1.200e+03 1.200e+03 1.200e+03 1.200e+03 1.200e+03 1.200e+03 1.200e+03 1.200e+03 1.200e+03 1.200e+03 1.200e+03 1.200e+03 1.200e+03 1.200e+03 1.200e+03 1.200e+03 1.200e+03 1.200e+03 1.200e+03 1.200e+03 1.200e+03 1.200e+03 1.200e+03 1.200e+03 1.200e+03 1.200e+03 1.200e+03 1.200e+03 1.200e+03 1.200e+03 1.200e+03 1.200e+03 1.200e+03 1.200e+03 1.200e+03 1.200e+03 1.200e+03 1.200e+03 1.200e+03 1.200e+03 1.200e+03 1.200e+03 1.200e+03 1.200e+03 1.200e+03 1.200e+03 1.200e+03 1.200e+03 1.200e+03 1.200e+03 1.200e+03 1.200e+03 1.200e+03 1.200e+03 1.200e+03 1.200e+03 1.200e+03 1.200e+03 1.200e+03 1.200e+03 1.200e+03 1.200e+03 1.200e+03 1.200e+03 1.200e+03 1.200e+03 1.200e+03 1.200e+03 1.200e+03 1.200e+03 1.200e+03 1.200e+03 1.200e+03 1.200e+03 1.200e+03 1.200e+03 1.200e+03 1.200e+03 1.200e+03 1.200e+03 1.200e+03 1.200e+03 1.200e+03 1.200e+03 1.200e+03 1.200e+03 1.200e+03 1.200e+03 1.200e+03
           </DataArray>
           <DataArray type="Float32" Name="nitrate/radiusDepletionZone" NumberOfComponents="1" format="ascii">
 3.401e-02 3.400e-02 6.756e-01 6.418e-01 4.679e-01 4.535e-01 3.051e-01 1.654e-01 3.401e-02 3.400e-02 6.651e-01 6.418e-01 4.679e-01 4.535e-01 3.051e-01 1.654e-01 3.401e-02 3.400e-02 7.555e-01 6.418e-01 4.679e-01 4.535e-01 3.051e-01 1.654e-01 3.401e-02 3.400e-02 6.756e-01 6.418e-01 4.679e-01 4.535e-01 3.051e-01 1.654e-01 3.400e-02 3.400e-02 3.400e-02 3.400e-02 1.633e+00 3.897e+00 1.426e+01 1.050e+01 8.742e+00 7.490e+00 6.550e+00 5.819e+00 4.784e+00 2.043e-01 2.039e-01 2.032e-01 1.502e-02 1.500e-02 1.502e-02 1.501e-02 4.559e-01 1.501e-02 1.500e-02 2.481e-01 1.501e-02 1.500e-02 2.684e-01 1.501e-02 1.500e-02 1.461e-01 1.501e-02 1.500e-02 1.501e-02 1.500e-02 1.501e-02 1.500e-02 3.622e-01 1.501e-02 1.500e-02 1.501e-02 1.500e-02 1.501e-02 1.500e-02 1.501e-02 1.500e-02 1.502e-02 8.652e-01 3.583e-01 1.501e-02 4.138e-01 1.501e-02 1.500e-02 1.501e-02 1.500e-02 1.501e-02 1.500e-02 1.501e-02 1.500e-02 1.500e-02 1.500e-02 1.500e-02 1.500e-02 1.500e-02 1.500e-02 1.500e-02 1.500e-02 1.500e-02 1.500e-02 1.501e-02 7.220e-01 1.500e-02 1.500e-02 1.500e-02 1.500e-02 1.500e-02 1.500e-02 1.500e-02 1.500e-02 1.500e-02 1.500e-02 1.500e-02 1.500e-02 1.500e-02 1.500e-02 1.500e-02 1.500e-02 1.500e-02 1.500e-02 1.501e-02 1.500e-02 4.082e-01 1.500e-02 1.500e-02 1.500e-02 1.500e-02 1.500e-02 1.500e-02 1.500e-02 1.500e-02 1.500e-02 1.500e-02 1.501e-02 1.500e-02 1.769e-01 1.500e-02 1.500e-02 1.500e-02 1.500e-02 1.500e-02 1.500e-02 1.500e-02 1.500e-02 1.500e-02 1.500e-02 1.501e-02 1.500e-02 3.516e-01 1.500e-02 1.500e-02 1.500e-02 1.500e-02 1.501e-02 1.500e-02 3.187e-01 1.501e-02 1.500e-02 3.160e-01 1.501e-02 1.500e-02 1.503e-02 1.501e-02 4.553e-01 2.896e-01 1.501e-02 1.500e-02 1.343e+00 2.217e+01 1.415e+01 1.061e+01 8.481e+00 7.065e+00 6.053e+00 5.295e+00 4.203e+00 3.781e+00 3.436e+00 3.149e+00 2.906e+00 2.698e+00 2.217e+00 2.078e+00 1.955e+00 1.846e+00 1.749e+00 1.435e+00 1.367e+00 1.304e+00 1.248e+00 1.195e+00 9.668e-01 9.295e-01 8.950e-01 7.016e-01 6.774e-01 6.547e-01 4.879e-01 4.726e-01 3.214e-01 1.792e-01
           </DataArray>
           <DataArray type="Float32" Name="nitrate/rootSegmentMinimalNutrientContent" NumberOfComponents="1" format="ascii">
 1.945e-01 1.502e-01 1.406e-01 1.646e-01 1.230e-01 1.337e-01 1.443e-01 7.615e-02 1.945e-01 1.502e-01 1.406e-01 1.646e-01 1.230e-01 1.337e-01 1.443e-01 7.615e-02 1.945e-01 1.502e-01 1.406e-01 1.646e-01 1.230e-01 1.337e-01 1.443e-01 7.615e-02 1.945e-01 1.502e-01 1.406e-01 1.646e-01 1.230e-01 1.337e-01 1.443e-01 7.615e-02 9.025e-02 9.025e-02 9.025e-02 9.025e-02 7.745e+00 3.818e+00 4.416e+00 4.691e+00 4.653e+00 4.616e+00 4.582e+00 4.548e+00 4.216e+00 3.590e+00 5.354e+00 5.898e+00 3.231e-02 3.432e-02 3.077e-02 3.159e-02 2.209e-02 3.268e-02 3.294e-02 9.877e-03 3.212e-02 3.383e-02 1.014e-02 3.437e-02 3.104e-02 3.102e-03 3.292e-02 2.825e-02 3.344e-02 2.022e-02 2.865e-02 2.941e-02 1.837e-02 3.369e-02 2.666e-02 3.306e-02 3.323e-02 3.198e-02 3.358e-02 3.566e-02 2.570e-02 3.469e-02 3.064e-02 1.531e-02 3.790e-02 2.272e-02 3.316e-02 3.227e-02 3.503e-02 1.777e-02 3.455e-02 2.940e-02 3.268e-02 2.293e-02 3.185e-02 2.334e-02 3.411e-02 1.533e-02 3.539e-02 1.209e-02 3.356e-02 1.190e-02 2.885e-02 2.572e-02 3.408e-02 2.941e-02 3.422e-02 8.981e-03 3.121e-02 1.248e-02 3.476e-02 1.451e-02 3.123e-02 5.600e-03 3.178e-02 2.709e-03 3.540e-02 3.131e-03 3.531e-02 3.068e-02 6.489e-03 3.581e-02 3.181e-02 3.311e-03 3.279e-02 3.464e-02 2.076e-02 2.925e-02 3.121e-02 2.720e-02 3.042e-02 2.611e-02 2.258e-02 2.223e-02 2.443e-02 2.174e-02 1.990e-02 3.147e-02 3.418e-02 5.692e-03 2.028e-02 1.629e-02 1.651e-02 1.363e-02 1.394e-02 9.976e-03 1.012e-02 1.090e-02 7.455e-03 6.709e-03 3.115e-02 3.239e-02 1.618e-02 4.864e-03 4.473e-03 2.764e-03 1.083e-03 3.220e-02 3.503e-02 1.750e-02 3.467e-02 3.548e-02 1.418e-02 3.182e-02 3.365e-02 2.893e-02 2.898e-02 2.893e-02 1.926e-02 2.857e-02 3.224e-02 4.678e-01 2.288e-01 2.240e-01 2.195e-01 2.151e-01 2.110e-01 2.071e-01 2.033e-01 1.998e-01 1.965e-01 1.934e-01 1.907e-01 1.883e-01 1.862e-01 1.845e-01 1.830e-01 1.815e-01 1.802e-01 1.789e-01 1.777e-01 1.766e-01 1.756e-01 1.746e-01 1.737e-01 1.729e-01 1.722e-01 1.716e-01 1.710e-01 1.705e-01 1.701e-01 1.697e-01 1.695e-01 1.693e-01 1.692e-01
           </DataArray>
           <DataArray type="Float32" Name="nitrate/rootSegmentNutrientUptake" NumberOfComponents="1" format="ascii">
 0.000e+00 0.000e+00 1.853e-01 1.713e-01 9.989e-02 7.675e-02 4.257e-02 3.934e-03 0.000e+00 0.000e+00 1.764e-01 1.714e-01 1.000e-01 7.706e-02 4.264e-02 3.935e-03 0.000e+00 0.000e+00 1.792e-01 1.690e-01 9.839e-02 7.584e-02 4.198e-02 3.931e-03 0.000e+00 0.000e+00 1.823e-01 1.663e-01 9.664e-02 7.416e-02 4.157e-02 3.922e-03 0.000e+00 0.000e+00 0.000e+00 0.000e+00 4.520e+00 1.460e+00 3.601e+00 4.161e+00 3.990e+00 5.214e+00 1.064e+01 6.529e+00 1.452e+01 0.000e+00 0.000e+00 0.000e+00 0.000e+00 0.000e+00 0.000e+00 0.000e+00 2.903e-02 0.000e+00 0.000e+00 5.676e-03 0.000e+00 0.000e+00 5.223e-03 0.000e+00 0.000e+00 4.188e-04 0.000e+00 0.000e+00 0.000e+00 0.000e+00 0.000e+00 0.000e+00 1.850e-02 0.000e+00 0.000e+00 0.000e+00 0.000e+00 0.000e+00 0.000e+00 0.000e+00 0.000e+00 0.000e+00 8.963e-02 1.576e-02 0.000e+00 3.343e-02 0.000e+00 0.000e+00 0.000e+00 0.000e+00 0.000e+00 0.000e+00 0.000e+00 0.000e+00 0.000e+00 0.000e+00 0.000e+00 0.000e+00 0.000e+00 0.000e+00 0.000e+00 0.000e+00 0.000e+00 0.000e+00 0.000e+00 3.856e-02 0.000e+00 0.000e+00 0.000e+00 0.000e+00 0.000e+00 0.000e+00 0.000e+00 0.000e+00 0.000e+00 0.000e+00 0.000e+00 0.000e+00 0.000e+00 0.000e+00 0.000e+00 0.000e+00 0.000e+00 0.000e+00 0.000e+00 0.000e+00 2.364e-02 0.000e+00 0.000e+00 0.000e+00 0.000e+00 0.000e+00 0.000e+00 0.000e+00 0.000e+00 0.000e+00 0.000e+00 0.000e+00 0.000e+00 2.150e-03 0.000e+00 0.000e+00 0.000e+00 0.000e+00 0.000e+00 0.000e+00 0.000e+00 0.000e+00 0.000e+00 0.000e+00 0.000e+00 0.000e+00 1.683e-02 0.000e+00 0.000e+00 0.000e+00 0.000e+00 0.000e+00 0.000e+00 1.774e-02 0.000e+00 0.000e+00 1.052e-02 0.000e+00 0.000e+00 0.000e+00 0.000e+00 8.572e-02 1.502e-02 0.000e+00 0.000e+00 1.172e+00 6.891e-01 6.056e-01 6.066e-01 6.068e-01 6.059e-01 6.039e-01 5.992e-01 5.932e-01 5.883e-01 5.807e-01 5.717e-01 5.642e-01 5.532e-01 5.396e-01 5.284e-01 5.164e-01 5.025e-01 4.875e-01 4.712e-01 4.523e-01 4.252e-01 3.924e-01 3.594e-01 3.263e-01 2.946e-01 2.627e-01 2.290e-01 1.969e-01 1.640e-01 1.300e-01 9.482e-02 5.755e-02 1.626e-02
           </DataArray>
           <DataArray type="Float32" Name="nitrate/rootSegmentOptimalNutrientContent" NumberOfComponents="1" format="ascii">
 3.889e-01 3.003e-01 2.812e-01 3.291e-01 2.460e-01 2.673e-01 2.886e-01 1.523e-01 3.889e-01 3.003e-01 2.812e-01 3.291e-01 2.460e-01 2.673e-01 2.886e-01 1.523e-01 3.889e-01 3.003e-01 2.812e-01 3.291e-01 2.460e-01 2.673e-01 2.886e-01 1.523e-01 3.889e-01 3.003e-01 2.812e-01 3.291e-01 2.460e-01 2.673e-01 2.886e-01 1.523e-01 1.805e-01 1.805e-01 1.805e-01 1.805e-01 1.549e+01 7.636e+00 8.831e+00 9.382e+00 9.306e+00 9.233e+00 9.163e+00 9.097e+00 8.432e+00 7.181e+00 1.071e+01 1.180e+01 6.461e-02 6.864e-02 6.155e-02 6.318e-02 4.418e-02 6.537e-02 6.589e-02 1.975e-02 6.424e-02 6.766e-02 2.028e-02 6.874e-02 6.207e-02 6.204e-03 6.583e-02 5.650e-02 6.688e-02 4.044e-02 5.731e-02 5.883e-02 3.675e-02 6.739e-02 5.331e-02 6.612e-02 6.647e-02 6.397e-02 6.717e-02 7.132e-02 5.140e-02 6.939e-02 6.129e-02 3.062e-02 7.581e-02 4.544e-02 6.632e-02 6.453e-02 7.006e-02 3.554e-02 6.909e-02 5.880e-02 6.536e-02 4.586e-02 6.370e-02 4.669e-02 6.823e-02 3.065e-02 7.078e-02 2.419e-02 6.712e-02 2.380e-02 5.770e-02 5.145e-02 6.817e-02 5.882e-02 6.843e-02 1.796e-02 6.241e-02 2.495e-02 6.951e-02 2.903e-02 6.247e-02 1.120e-02 6.357e-02 5.419e-03 7.080e-02 6.262e-03 7.062e-02 6.136e-02 1.298e-02 7.161e-02 6.362e-02 6.622e-03 6.559e-02 6.928e-02 4.153e-02 5.850e-02 6.242e-02 5.441e-02 6.084e-02 5.222e-02 4.515e-02 4.446e-02 4.885e-02 4.349e-02 3.980e-02 6.293e-02 6.836e-02 1.138e-02 4.055e-02 3.258e-02 3.302e-02 2.726e-02 2.788e-02 1.995e-02 2.025e-02 2.179e-02 1.491e-02 1.342e-02 6.230e-02 6.477e-02 3.236e-02 9.728e-03 8.947e-03 5.527e-03 2.167e-03 6.440e-02 7.006e-02 3.500e-02 6.933e-02 7.097e-02 2.837e-02 6.364e-02 6.729e-02 5.786e-02 5.796e-02 5.785e-02 3.853e-02 5.715e-02 6.448e-02 9.357e-01 4.576e-01 4.481e-01 4.389e-01 4.302e-01 4.220e-01 4.141e-01 4.067e-01 3.996e-01 3.929e-01 3.868e-01 3.814e-01 3.766e-01 3.725e-01 3.690e-01 3.660e-01 3.631e-01 3.604e-01 3.578e-01 3.554e-01 3.532e-01 3.511e-01 3.492e-01 3.474e-01 3.458e-01 3.444e-01 3.431e-01 3.420e-01 3.410e-01 3.402e-01 3.395e-01 3.390e-01 3.386e-01 3.384e-01
           </DataArray>
           <DataArray type="Float32" Name="parentRootClassID" NumberOfComponents="1" format="ascii">
 -2.000e+00 -2.000e+00 -2.000e+00 -2.000e+00 -2.000e+00 -2.000e+00 -2.000e+00 -2.000e+00 -2.000e+00 -2.000e+00 -2.000e+00 -2.000e+00 -2.000e+00 -2.000e+00 -2.000e+00 -2.000e+00 -2.000e+00 -2.000e+00 -2.000e+00 -2.000e+00 -2.000e+00 -2.000e+00 -2.000e+00 -2.000e+00 -2.000e+00 -2.000e+00 -2.000e+00 -2.000e+00 -2.000e+00 -2.000e+00 -2.000e+00 -2.000e+00 -2.000e+00 -2.000e+00 -2.000e+00 -2.000e+00 -3.000e+00 -3.000e+00 -3.000e+00 -3.000e+00 -3.000e+00 -3.000e+00 -3.000e+00 -3.000e+00 -3.000e+00 -3.000e+00 -3.000e+00 -3.000e+00 -4.000e+00 -4.000e+00 -4.000e+00 -4.000e+00 -4.000e+00 -4.000e+00 -4.000e+00 -4.000e+00 -4.000e+00 -4.000e+00 -4.000e+00 -4.000e+00 -4.000e+00 -4.000e+00 -4.000e+00 -4.000e+00 -4.000e+00 -4.000e+00 -4.000e+00 -4.000e+00 -4.000e+00 -4.000e+00 -4.000e+00 -4.000e+00 -4.000e+00 -4.000e+00 -4.000e+00 -4.000e+00 -4.000e+00 -4.000e+00 -4.000e+00 -4.000e+00 -4.000e+00 -4.000e+00 -4.000e+00 -4.000e+00 -4.000e+00 -4.000e+00 -4.000e+00 -4.000e+00 -4.000e+00 -4.000e+00 -4.000e+00 -4.000e+00 -4.000e+00 -4.000e+00 -4.000e+00 -4.000e+00 -4.000e+00 -4.000e+00 -4.000e+00 -4.000e+00 -4.000e+00 -4.000e+00 -4.000e+00 -4.000e+00 -4.000e+00 -4.000e+00 -4.000e+00 -4.000e+00 -4.000e+00 -4.000e+00 -4.000e+00 -4.000e+00 -4.000e+00 -4.000e+00 -4.000e+00 -4.000e+00 -4.000e+00 -4.000e+00 -4.000e+00 -4.000e+00 -4.000e+00 -4.000e+00 -4.000e+00 -4.000e+00 -4.000e+00 -4.000e+00 -4.000e+00 -4.000e+00 -4.000e+00 -4.000e+00 -4.000e+00 -4.000e+00 -4.000e+00 -4.000e+00 -4.000e+00 -4.000e+00 -4.000e+00 -4.000e+00 -4.000e+00 -4.000e+00 -4.000e+00 -4.000e+00 -4.000e+00 -4.000e+00 -4.000e+00 -4.000e+00 -4.000e+00 -4.000e+00 -4.000e+00 -4.000e+00 -4.000e+00 -4.000e+00 -4.000e+00 -4.000e+00 -4.000e+00 -4.000e+00 -4.000e+00 -4.000e+00 -4.000e+00 -4.000e+00 -4.000e+00 -4.000e+00 -4.000e+00 -4.000e+00 -4.000e+00 -4.000e+00 -4.000e+00 -3.000e+00 -3.000e+00 -3.000e+00 -3.000e+00 -3.000e+00 -3.000e+00 -3.000e+00 -3.000e+00 -3.000e+00 -3.000e+00 -3.000e+00 -3.000e+00 -3.000e+00 -3.000e+00 -3.000e+00 -3.000e+00 -3.000e+00 -3.000e+00 -3.000e+00 -3.000e+00 -3.000e+00 -3.000e+00 -3.000e+00 -3.000e+00 -3.000e+00 -3.000e+00 -3.000e+00 -3.000e+00 -3.000e+00 -3.000e+00 -3.000e+00 -3.000e+00 -3.000e+00 -3.000e+00
           </DataArray>
           <DataArray type="Float32" Name="plantID" NumberOfComponents="1" format="ascii">
 8.000e+00 8.000e+00 8.000e+00 8.000e+00 8.000e+00 8.000e+00 8.000e+00 8.000e+00 8.000e+00 8.000e+00 8.000e+00 8.000e+00 8.000e+00 8.000e+00 8.000e+00 8.000e+00 8.000e+00 8.000e+00 8.000e+00 8.000e+00 8.000e+00 8.000e+00 8.000e+00 8.000e+00 8.000e+00 8.000e+00 8.000e+00 8.000e+00 8.000e+00 8.000e+00 8.000e+00 8.000e+00 8.000e+00 8.000e+00 8.000e+00 8.000e+00 8.000e+00 8.000e+00 8.000e+00 8.000e+00 8.000e+00 8.000e+00 8.000e+00 8.000e+00 8.000e+00 8.000e+00 8.000e+00 8.000e+00 8.000e+00 8.000e+00 8.000e+00 8.000e+00 8.000e+00 8.000e+00 8.000e+00 8.000e+00 8.000e+00 8.000e+00 8.000e+00 8.000e+00 8.000e+00 8.000e+00 8.000e+00 8.000e+00 8.000e+00 8.000e+00 8.000e+00 8.000e+00 8.000e+00 8.000e+00 8.000e+00 8.000e+00 8.000e+00 8.000e+00 8.000e+00 8.000e+00 8.000e+00 8.000e+00 8.000e+00 8.000e+00 8.000e+00 8.000e+00 8.000e+00 8.000e+00 8.000e+00 8.000e+00 8.000e+00 8.000e+00 8.000e+00 8.000e+00 8.000e+00 8.000e+00 8.000e+00 8.000e+00 8.000e+00 8.000e+00 8.000e+00 8.000e+00 8.000e+00 8.000e+00 8.000e+00 8.000e+00 8.000e+00 8.000e+00 8.000e+00 8.000e+00 8.000e+00 8.000e+00 8.000e+00 8.000e+00 8.000e+00 8.000e+00 8.000e+00 8.000e+00 8.000e+00 8.000e+00 8.000e+00 8.000e+00 8.000e+00 8.000e+00 8.000e+00 8.000e+00 8.000e+00 8.000e+00 8.000e+00 8.000e+00 8.000e+00 8.000e+00 8.000e+00 8.000e+00 8.000e+00 8.000e+00 8.000e+00 8.000e+00 8.000e+00 8.000e+00 8.000e+00 8.000e+00 8.000e+00 8.000e+00 8.000e+00 8.000e+00 8.000e+00 8.000e+00 8.000e+00 8.000e+00 8.000e+00 8.000e+00 8.000e+00 8.000e+00 8.000e+00 8.000e+00 8.000e+00 8.000e+00 8.000e+00 8.000e+00 8.000e+00 8.000e+00 8.000e+00 8.000e+00 8.000e+00 8.000e+00 8.000e+00 8.000e+00 8.000e+00 8.000e+00 8.000e+00 8.000e+00 8.000e+00 8.000e+00 8.000e+00 8.000e+00 8.000e+00 8.000e+00 8.000e+00 8.000e+00 8.000e+00 8.000e+00 8.000e+00 8.000e+00 8.000e+00 8.000e+00 8.000e+00 8.000e+00 8.000e+00 8.000e+00 8.000e+00 8.000e+00 8.000e+00 8.000e+00 8.000e+00 8.000e+00 8.000e+00 8.000e+00 8.000e+00 8.000e+00 8.000e+00 8.000e+00 8.000e+00 8.000e+00 8.000e+00
           </DataArray>
           <DataArray type="Float32" Name="plantTypeID" NumberOfComponents="1" format="ascii">