<?xml version="1.0"?>
<VTKFile type="UnstructuredGrid" version="0.1" byte_order="LittleEndian">
   <UnstructuredGrid>
      <Piece NumberOfPoints="90" NumberOfCells="7">
         <Points>
            <DataArray type="Float32" Name="Position" NumberOfComponents="3" format="ascii">
-0.142	-5.000	0.142
-0.031	-5.000	0.198
0.091	-4.999	0.178
0.178	-4.999	0.091
0.198	-5.000	-0.031
0.142	-5.000	-0.142
0.031	-5.000	-0.198
-0.091	-5.001	-0.178
-0.178	-5.001	-0.091
-0.198	-5.000	0.031
-0.143	-4.040	0.139
-0.033	-4.040	0.195
0.089	-4.040	0.176
0.176	-4.040	0.088
0.195	-4.040	-0.034
0.139	-4.040	-0.144
0.029	-4.040	-0.200
-0.093	-4.040	-0.181
-0.180	-4.040	-0.093
-0.200	-4.040	0.029
-0.143	-3.560	0.142
-0.033	-3.561	0.198
0.089	-3.561	0.179
0.177	-3.561	0.091
0.196	-3.561	-0.031
0.140	-3.560	-0.141
0.030	-3.560	-0.197
-0.092	-3.559	-0.178
-0.180	-3.559	-0.090
-0.199	-3.560	0.032
-0.140	-2.999	0.142
-0.030	-3.000	0.198
0.092	-3.001	0.179
0.180	-3.001	0.092
0.200	-3.001	-0.030
0.144	-3.001	-0.140
0.034	-3.000	-0.196
-0.088	-2.999	-0.177
-0.176	-2.999	-0.090
-0.196	-2.999	0.032
0.031	-4.998	-0.033
0.044	-5.002	-0.009
0.041	-5.005	0.019
0.022	-5.006	0.039
-0.006	-5.005	0.044
-0.031	-5.002	0.033
-0.044	-4.998	0.009
-0.041	-4.995	-0.019
-0.022	-4.994	-0.039
0.006	-4.995	-0.044
-0.029	-5.930	-0.149
-0.015	-5.934	-0.125
-0.019	-5.938	-0.098
-0.038	-5.939	-0.077
-0.065	-5.938	-0.072
-0.090	-5.935	-0.083
-0.104	-5.930	-0.107
-0.100	-5.927	-0.135
-0.081	-5.925	-0.155
-0.054	-5.927	-0.161
-0.068	-6.395	-0.218
-0.055	-6.399	-0.194
-0.059	-6.402	-0.167
-0.078	-6.403	-0.147
-0.105	-6.402	-0.141
-0.130	-6.399	-0.153
-0.144	-6.395	-0.177
-0.140	-6.392	-0.205
-0.121	-6.391	-0.225
-0.093	-6.392	-0.230
-0.091	-6.866	-0.255
-0.078	-6.868	-0.230
-0.082	-6.870	-0.203
-0.102	-6.870	-0.183
-0.129	-6.869	-0.178
-0.154	-6.867	-0.191
-0.167	-6.864	-0.215
-0.163	-6.863	-0.243
-0.143	-6.863	-0.263
-0.116	-6.864	-0.267
-0.116	-7.336	-0.279
-0.104	-7.338	-0.254
-0.108	-7.340	-0.227
-0.128	-7.340	-0.207
-0.155	-7.338	-0.203
-0.180	-7.336	-0.215
-0.193	-7.334	-0.240
-0.188	-7.333	-0.267
-0.168	-7.333	-0.287
-0.141	-7.334	-0.291
		    </DataArray>
         </Points>
         <Cells>
            <DataArray type="Int32" Name="connectivity" NumberOfComponents="1" format="ascii">
 0 10 1 11 2 12 3 13 4 14 5 15 6 16 7 17 8 18 9 19 0 10
 10 20 11 21 12 22 13 23 14 24 15 25 16 26 17 27 18 28 19 29 10 20
 20 30 21 31 22 32 23 33 24 34 25 35 26 36 27 37 28 38 29 39 20 30
 40 50 41 51 42 52 43 53 44 54 45 55 46 56 47 57 48 58 49 59 40 50
 50 60 51 61 52 62 53 63 54 64 55 65 56 66 57 67 58 68 59 69 50 60
 60 70 61 71 62 72 63 73 64 74 65 75 66 76 67 77 68 78 69 79 60 70
 70 80 71 81 72 82 73 83 74 84 75 85 76 86 77 87 78 88 79 89 70 80

            </DataArray>
            <DataArray type="Int32" Name="offsets" NumberOfComponents="1" format="ascii">
 22 44 66 88 110 132 154
            </DataArray>
            <DataArray type="UInt8"  Name="types" NumberOfComponents="1" format="ascii">
6 6 6 6 6 6 6
            </DataArray>
         </Cells>
         <CellData>
           <DataArray type="Float32" Name="combinedRootClassID" NumberOfComponents="1" format="ascii">
 -2.000e+00 -2.000e+00 -2.000e+00 -4.000e+00 -4.000e+00 -4.000e+00 -4.000e+00
           </DataArray>
           <DataArray type="Float32" Name="nitrate/minimalNutrientConcentration" NumberOfComponents="1" format="ascii">
 6.000e+02 6.000e+02 6.000e+02 6.000e+02 6.000e+02 6.000e+02 6.000e+02
           </DataArray>
           <DataArray type="Float32" Name="nitrate/optimalNutrientConcentration" NumberOfComponents="1" format="ascii">
 1.200e+03 1.200e+03 1.200e+03 1.200e+03 1.200e+03 1.200e+03 1.200e+03
           </DataArray>
           <DataArray type="Float32" Name="nitrate/radiusDepletionZone" NumberOfComponents="1" format="ascii">
 7.163e-01 5.385e-01 5.726e-01 5.612e-01 9.803e-01 5.051e-01 3.788e-01
           </DataArray>
           <DataArray type="Float32" Name="nitrate/rootSegmentMinimalNutrientContent" NumberOfComponents="1" format="ascii">
 6.819e+00 3.403e+00 3.969e+00 3.402e-01 1.695e-01 1.693e-01 1.692e-01
           </DataArray>
           <DataArray type="Float32" Name="nitrate/rootSegmentNutrientUptake" NumberOfComponents="1" format="ascii">
 2.737e-01 7.677e-02 4.251e-02 1.856e-01 7.860e-02 4.516e-02 1.597e-02
           </DataArray>
           <DataArray type="Float32" Name="nitrate/rootSegmentOptimalNutrientContent" NumberOfComponents="1" format="ascii">
 1.364e+01 6.806e+00 7.939e+00 6.803e-01 3.390e-01 3.386e-01 3.384e-01
           </DataArray>
           <DataArray type="Float32" Name="parentRootClassID" NumberOfComponents="1" format="ascii">
 -3.000e+00 -3.000e+00 -3.000e+00 -3.000e+00 -3.000e+00 -3.000e+00 -3.000e+00
           </DataArray>
           <DataArray type="Float32" Name="plantID" NumberOfComponents="1" format="ascii">
 2.000e+00 2.000e+00 2.000e+00 2.000e+00 2.000e+00 2.000e+00 2.000e+00
           </DataArray>
           <DataArray type="Float32" Name="plantTypeID" NumberOfComponents="1" format="ascii">
 0.000e+00 0.000e+00 0.000e+00 0.000e+00 0.000e+00 0.000e+00 0.000e+00
           </DataArray>
           <DataArray type="Float32" Name="rootCircumference" NumberOfComponents="1" format="ascii">
 1.258e+00 1.257e+00 1.257e+00 2.835e-01 2.830e-01 2.829e-01 2.828e-01
           </DataArray>
           <DataArray type="Float32" Name="rootClassID" NumberOfComponents="1" format="ascii">
 -2.000e+00 -2.000e+00 -2.000e+00 -4.000e+00 -4.000e+00 -4.000e+00 -4.000e+00
           </DataArray>
           <DataArray type="Float32" Name="rootDiameter" NumberOfComponents="1" format="ascii">
 4.004e-01 4.001e-01 4.000e-01 9.025e-02 9.009e-02 9.004e-02 9.001e-02
           </DataArray>
           <DataArray type="Float32" Name="rootLength2Base" NumberOfComponents="1" format="ascii">
 0.000e+00 9.600e-01 1.440e+00 0.000e+00 9.428e-01 1.414e+00 1.886e+00
           </DataArray>
           <DataArray type="Float32" Name="rootPotentialSecondaryGrowth" NumberOfComponents="1" format="ascii">
 4.004e-01 4.001e-01 4.000e-01 9.025e-02 9.009e-02 9.004e-02 9.001e-02
           </DataArray>
           <DataArray type="Float32" Name="rootSegmentAge" NumberOfComponents="1" format="ascii">
 1.000e+00 4.000e-01 2.000e-01 1.000e+00 6.000e-01 4.000e-01 2.000e-01
           </DataArray>
           <DataArray type="Float32" Name="rootSegmentDryWeight" NumberOfComponents="1" format="ascii">
 1.136e-02 5.672e-03 6.616e-03 5.669e-04 2.825e-04 2.821e-04 2.820e-04
           </DataArray>
           <DataArray type="Float32" Name="rootSegmentLength" NumberOfComponents="1" format="ascii">
 9.600e-01 4.800e-01 5.600e-01 9.428e-01 4.714e-01 4.714e-01 4.714e-01
           </DataArray>
           <DataArray type="Float32" Name="rootSegmentLengthDuration" NumberOfComponents="1" format="ascii">
 6.387e-01 1.440e-01 5.600e-02 7.542e-01 2.357e-01 1.414e-01 4.714e-02
           </DataArray>
           <DataArray type="Float32" Name="rootSegmentSurfaceArea" NumberOfComponents="1" format="ascii">
 1.208e+00 6.033e-01 7.037e-01 2.673e-01 1.334e-01 1.333e-01 1.333e-01
           </DataArray>
           <DataArray type="Float32" Name="rootSegmentVolume" NumberOfComponents="1" format="ascii">
 1.209e-01 6.034e-02 7.038e-02 6.031e-03 3.005e-03 3.002e-03 3.000e-03
           </DataArray>
           <DataArray type="Float32" Name="spatialRootDensity" NumberOfComponents="1" format="ascii">
 3.376e-01 2.251e-01 0.000e+00 3.438e-01 2.292e-01 0.000e+00 0.000e+00
           </DataArray>
         </CellData>
      </Piece>
   </UnstructuredGrid>
</VTKFile>
