<?xml version="1.0"?>
<VTKFile type="UnstructuredGrid" version="0.1" byte_order="LittleEndian">
   <UnstructuredGrid>
      <Piece NumberOfPoints="14100" NumberOfCells="1005">
         <Points>
            <DataArray type="Float32" Name="Position" NumberOfComponents="3" format="ascii">
0.125	-4.999	0.063
0.132	-4.996	0.069
0.138	-4.999	0.075
0.142	-5.006	0.079
0.142	-5.016	0.079
0.138	-5.023	0.075
0.131	-5.026	0.070
0.124	-5.023	0.064
0.121	-5.015	0.060
0.121	-5.006	0.060
0.668	-5.022	-0.532
0.675	-5.019	-0.526
0.681	-5.022	-0.520
0.684	-5.030	-0.515
0.683	-5.039	-0.515
0.679	-5.046	-0.518
0.672	-5.049	-0.524
0.666	-5.046	-0.530
0.663	-5.039	-0.535
0.664	-5.029	-0.535
1.285	-5.172	-1.102
1.291	-5.169	-1.096
1.297	-5.172	-1.089
1.299	-5.179	-1.084
1.298	-5.188	-1.083
1.293	-5.196	-1.086
1.287	-5.198	-1.092
1.282	-5.195	-1.099
1.279	-5.188	-1.104
1.280	-5.179	-1.105
0.257	-5.026	0.130
0.263	-5.023	0.137
0.269	-5.026	0.143
0.272	-5.034	0.148
0.272	-5.043	0.148
0.268	-5.051	0.144
0.262	-5.053	0.137
0.256	-5.050	0.131
0.253	-5.043	0.126
0.253	-5.034	0.126
0.883	-5.045	-0.438
0.889	-5.042	-0.431
0.895	-5.045	-0.425
0.898	-5.052	-0.421
0.898	-5.062	-0.421
0.894	-5.069	-0.424
0.888	-5.072	-0.431
0.882	-5.069	-0.437
0.878	-5.061	-0.441
0.879	-5.052	-0.441
1.150	-5.053	-0.694
1.157	-5.051	-0.688
1.163	-5.054	-0.681
1.166	-5.061	-0.677
1.166	-5.070	-0.677
1.162	-5.078	-0.681
1.156	-5.081	-0.688
1.150	-5.078	-0.694
1.146	-5.070	-0.698
1.146	-5.061	-0.698
1.374	-5.559	0.688
1.378	-5.559	0.696
1.377	-5.560	0.705
1.371	-5.560	0.712
1.362	-5.561	0.714
1.353	-5.560	0.710
1.349	-5.560	0.702
1.350	-5.559	0.692
1.356	-5.559	0.686
1.365	-5.558	0.684
1.375	-6.377	0.627
1.380	-6.377	0.634
1.379	-6.378	0.644
1.373	-6.379	0.651
1.364	-6.380	0.653
1.356	-6.381	0.649
1.351	-6.380	0.641
1.352	-6.380	0.632
1.358	-6.378	0.625
1.367	-6.378	0.623
1.380	-6.461	0.619
1.380	-6.457	0.627
1.380	-6.458	0.636
1.380	-6.465	0.643
1.380	-6.474	0.644
1.380	-6.482	0.640
1.380	-6.486	0.632
1.380	-6.485	0.623
1.380	-6.478	0.616
1.380	-6.469	0.615
1.468	-5.630	0.751
1.475	-5.627	0.757
1.481	-5.630	0.763
1.485	-5.637	0.767
1.485	-5.647	0.767
1.480	-5.654	0.764
1.474	-5.657	0.758
1.467	-5.654	0.752
1.464	-5.646	0.748
1.464	-5.637	0.748
2.063	-5.656	0.106
2.069	-5.654	0.112
2.076	-5.657	0.118
2.080	-5.664	0.122
2.079	-5.673	0.122
2.075	-5.681	0.119
2.068	-5.684	0.113
2.062	-5.681	0.107
2.058	-5.673	0.103
2.058	-5.664	0.103
2.320	-5.677	-0.199
2.327	-5.674	-0.193
2.333	-5.677	-0.187
2.337	-5.685	-0.183
2.337	-5.694	-0.183
2.332	-5.701	-0.186
2.325	-5.704	-0.192
2.319	-5.701	-0.198
2.315	-5.694	-0.202
2.315	-5.684	-0.202
1.596	-5.729	0.808
1.598	-5.731	0.817
1.595	-5.730	0.825
1.587	-5.728	0.830
1.579	-5.724	0.830
1.572	-5.721	0.824
1.570	-5.720	0.815
1.574	-5.720	0.806
1.581	-5.723	0.801
1.590	-5.726	0.802
1.312	-6.442	0.742
1.314	-6.444	0.751
1.310	-6.443	0.759
1.303	-6.440	0.764
1.294	-6.436	0.763
1.288	-6.433	0.757
1.287	-6.432	0.748
1.290	-6.432	0.739
1.298	-6.435	0.735
1.306	-6.439	0.736
1.117	-6.853	0.703
1.119	-6.855	0.712
1.115	-6.854	0.721
1.107	-6.851	0.725
1.099	-6.847	0.724
1.093	-6.843	0.717
1.092	-6.842	0.708
1.096	-6.843	0.700
1.103	-6.846	0.696
1.112	-6.850	0.697
1.701	-5.803	0.862
1.698	-5.796	0.867
1.694	-5.794	0.875
1.690	-5.798	0.883
1.688	-5.806	0.887
1.688	-5.815	0.886
1.690	-5.822	0.881
1.695	-5.824	0.873
1.699	-5.820	0.865
1.701	-5.813	0.861
2.435	-5.816	1.244
2.433	-5.809	1.251
2.430	-5.808	1.259
2.427	-5.812	1.267
2.425	-5.821	1.270
2.425	-5.830	1.269
2.427	-5.836	1.262
2.431	-5.838	1.254
2.434	-5.833	1.246
2.436	-5.825	1.243
2.921	-5.838	1.386
2.919	-5.832	1.393
2.916	-5.832	1.402
2.914	-5.837	1.409
2.913	-5.845	1.412
2.913	-5.854	1.410
2.915	-5.860	1.403
2.917	-5.861	1.394
2.920	-5.856	1.387
2.921	-5.847	1.383
1.815	-5.896	0.918
1.818	-5.899	0.926
1.817	-5.900	0.935
1.810	-5.900	0.941
1.801	-5.899	0.943
1.793	-5.896	0.939
1.789	-5.893	0.931
1.791	-5.891	0.922
1.798	-5.891	0.915
1.807	-5.893	0.914
1.614	-6.726	0.721
1.619	-6.730	0.728
1.617	-6.732	0.737
1.611	-6.732	0.744
1.602	-6.731	0.746
1.594	-6.728	0.743
1.590	-6.725	0.735
1.591	-6.722	0.726
1.597	-6.722	0.719
1.606	-6.723	0.717
1.577	-6.886	0.662
1.581	-6.890	0.669
1.581	-6.893	0.678
1.575	-6.894	0.685
1.566	-6.893	0.688
1.558	-6.890	0.685
1.553	-6.886	0.678
1.554	-6.883	0.669
1.559	-6.882	0.662
1.568	-6.883	0.660
1.922	-5.981	0.970
1.919	-5.973	0.974
1.914	-5.969	0.980
1.909	-5.971	0.988
1.905	-5.978	0.993
1.904	-5.987	0.993
1.907	-5.995	0.989
1.912	-5.999	0.983
1.917	-5.997	0.975
1.921	-5.990	0.970
2.548	-6.005	1.426
2.545	-5.997	1.430
2.540	-5.993	1.436
2.535	-5.994	1.443
2.530	-6.001	1.448
2.529	-6.010	1.449
2.532	-6.018	1.446
2.537	-6.022	1.440
2.543	-6.021	1.432
2.547	-6.014	1.427
2.851	-6.012	1.686
2.849	-6.004	1.689
2.844	-5.999	1.695
2.838	-6.000	1.702
2.833	-6.007	1.708
2.832	-6.016	1.709
2.834	-6.024	1.706
2.840	-6.029	1.700
2.846	-6.028	1.693
2.850	-6.022	1.688
2.016	-6.062	1.027
2.023	-6.060	1.032
2.029	-6.063	1.039
2.032	-6.070	1.043
2.030	-6.079	1.045
2.025	-6.086	1.043
2.017	-6.089	1.037
2.011	-6.086	1.031
2.009	-6.078	1.026
2.011	-6.069	1.025
2.553	-6.275	0.404
2.560	-6.273	0.410
2.566	-6.276	0.416
2.568	-6.283	0.421
2.566	-6.292	0.423
2.561	-6.299	0.420
2.554	-6.302	0.414
2.548	-6.299	0.408
2.546	-6.292	0.403
2.548	-6.283	0.401
2.735	-6.341	0.236
2.742	-6.338	0.242
2.747	-6.341	0.249
2.749	-6.348	0.254
2.747	-6.357	0.256
2.742	-6.364	0.253
2.735	-6.367	0.247
2.730	-6.364	0.240
2.728	-6.357	0.234
2.730	-6.348	0.233
2.134	-6.164	1.073
2.133	-6.157	1.078
2.129	-6.153	1.086
2.124	-6.156	1.093
2.120	-6.163	1.098
2.118	-6.172	1.097
2.119	-6.180	1.092
2.123	-6.183	1.084
2.128	-6.180	1.076
2.132	-6.173	1.072
2.873	-6.335	1.504
2.873	-6.327	1.508
2.869	-6.323	1.516
2.863	-6.325	1.523
2.858	-6.331	1.527
2.855	-6.340	1.527
2.855	-6.348	1.522
2.859	-6.352	1.514
2.865	-6.350	1.507
2.870	-6.344	1.503
2.911	-6.360	1.538
2.912	-6.352	1.543
2.908	-6.347	1.550
2.902	-6.348	1.557
2.895	-6.353	1.561
2.891	-6.361	1.560
2.890	-6.369	1.555
2.894	-6.374	1.548
2.900	-6.373	1.541
2.907	-6.368	1.538
2.225	-6.253	1.125
2.232	-6.251	1.130
2.239	-6.254	1.136
2.242	-6.261	1.140
2.240	-6.270	1.142
2.235	-6.278	1.139
2.228	-6.280	1.134
2.222	-6.277	1.128
2.218	-6.269	1.123
2.220	-6.260	1.122
2.770	-6.413	0.455
2.777	-6.411	0.460
2.783	-6.414	0.466
2.787	-6.421	0.471
2.785	-6.430	0.472
2.780	-6.438	0.469
2.773	-6.440	0.464
2.766	-6.437	0.458
2.763	-6.429	0.454
2.765	-6.420	0.452
2.805	-6.424	0.412
2.812	-6.422	0.417
2.818	-6.425	0.423
2.821	-6.432	0.427
2.820	-6.442	0.429
2.815	-6.449	0.426
2.807	-6.451	0.421
2.801	-6.448	0.415
2.798	-6.441	0.411
2.799	-6.431	0.409
2.346	-6.365	1.170
2.348	-6.367	1.179
2.345	-6.368	1.187
2.338	-6.366	1.193
2.329	-6.363	1.193
2.322	-6.360	1.188
2.320	-6.358	1.180
2.323	-6.357	1.171
2.330	-6.359	1.165
2.339	-6.362	1.165
2.086	-7.128	1.048
2.088	-7.130	1.056
2.085	-7.130	1.065
2.078	-7.128	1.070
2.069	-7.125	1.071
2.062	-7.122	1.065
2.060	-7.120	1.056
2.063	-7.119	1.048
2.070	-7.121	1.042
2.079	-7.124	1.042
2.020	-7.300	1.025
2.022	-7.302	1.034
2.019	-7.302	1.043
2.011	-7.300	1.048
2.003	-7.297	1.048
1.996	-7.294	1.042
1.994	-7.292	1.033
1.997	-7.292	1.025
2.005	-7.294	1.019
2.013	-7.297	1.020
0.400	-5.064	0.190
0.398	-5.057	0.195
0.394	-5.055	0.203
0.390	-5.059	0.211
0.387	-5.067	0.215
0.388	-5.076	0.214
0.390	-5.083	0.208
0.394	-5.085	0.200
0.398	-5.082	0.193
0.400	-5.074	0.189
1.180	-5.101	0.570
1.178	-5.094	0.576
1.174	-5.092	0.584
1.170	-5.095	0.591
1.167	-5.103	0.595
1.166	-5.112	0.594
1.168	-5.119	0.589
1.172	-5.122	0.581
1.176	-5.118	0.573
1.179	-5.111	0.569
1.682	-5.200	0.831
1.680	-5.193	0.836
1.676	-5.190	0.844
1.672	-5.193	0.852
1.668	-5.201	0.856
1.667	-5.210	0.855
1.668	-5.217	0.850
1.672	-5.220	0.841
1.677	-5.217	0.834
1.680	-5.209	0.830
2.434	-6.448	1.218
2.442	-6.446	1.222
2.449	-6.449	1.228
2.451	-6.457	1.233
2.448	-6.465	1.236
2.442	-6.472	1.234
2.434	-6.474	1.230
2.428	-6.470	1.224
2.425	-6.463	1.219
2.428	-6.454	1.217
2.899	-6.757	0.540
2.906	-6.755	0.545
2.913	-6.758	0.551
2.915	-6.766	0.556
2.913	-6.774	0.558
2.907	-6.781	0.556
2.899	-6.783	0.551
2.893	-6.780	0.545
2.890	-6.773	0.541
2.892	-6.764	0.539
3.067	-6.841	0.309
3.075	-6.839	0.314
3.081	-6.842	0.320
3.084	-6.850	0.325
3.082	-6.859	0.327
3.076	-6.866	0.325
3.069	-6.868	0.320
3.062	-6.865	0.314
3.059	-6.857	0.309
3.061	-6.848	0.308
2.552	-6.566	1.261
2.553	-6.569	1.270
2.549	-6.568	1.279
2.541	-6.565	1.283
2.533	-6.560	1.282
2.528	-6.556	1.275
2.527	-6.554	1.266
2.532	-6.554	1.258
2.539	-6.558	1.254
2.547	-6.562	1.255
2.179	-7.257	1.123
2.179	-7.258	1.132
2.175	-7.257	1.140
2.167	-7.253	1.143
2.160	-7.248	1.141
2.155	-7.244	1.134
2.155	-7.243	1.125
2.159	-7.244	1.117
2.167	-7.248	1.114
2.174	-7.253	1.116
2.116	-7.357	1.113
2.115	-7.358	1.123
2.110	-7.356	1.130
2.103	-7.351	1.133
2.096	-7.346	1.131
2.091	-7.343	1.123
2.091	-7.342	1.114
2.096	-7.344	1.106
2.104	-7.349	1.103
2.111	-7.354	1.106
2.652	-6.674	1.310
2.656	-6.666	1.313
2.655	-6.657	1.314
2.648	-6.650	1.314
2.639	-6.649	1.312
2.631	-6.653	1.310
2.627	-6.661	1.307
2.629	-6.670	1.306
2.635	-6.676	1.306
2.644	-6.678	1.308
2.507	-6.799	1.978
2.511	-6.791	1.980
2.510	-6.782	1.981
2.503	-6.775	1.981
2.494	-6.773	1.980
2.486	-6.777	1.977
2.482	-6.785	1.975
2.484	-6.794	1.973
2.490	-6.801	1.973
2.499	-6.803	1.975
2.739	-6.753	1.344
2.746	-6.751	1.349
2.753	-6.754	1.355
2.756	-6.762	1.359
2.754	-6.771	1.361
2.749	-6.778	1.359
2.741	-6.780	1.354
2.734	-6.777	1.348
2.731	-6.769	1.344
2.733	-6.760	1.342
3.185	-6.935	0.722
3.193	-6.933	0.727
3.199	-6.936	0.733
3.202	-6.944	0.737
3.200	-6.953	0.739
3.194	-6.959	0.738
3.186	-6.962	0.733
3.180	-6.958	0.727
3.177	-6.951	0.722
3.179	-6.942	0.721
3.293	-7.007	0.566
3.301	-7.005	0.571
3.307	-7.009	0.577
3.310	-7.016	0.582
3.307	-7.025	0.584
3.301	-7.031	0.582
3.293	-7.033	0.578
3.287	-7.030	0.572
3.284	-7.023	0.567
3.287	-7.014	0.565
2.856	-6.878	1.393
2.860	-6.870	1.396
2.858	-6.861	1.398
2.852	-6.855	1.398
2.843	-6.853	1.396
2.835	-6.857	1.393
2.831	-6.865	1.390
2.833	-6.874	1.388
[...]
         <CellData>
           <DataArray type="Float32" Name="combinedRootClassID" NumberOfComponents="1" format="ascii">
 -1.300e+01 -1.300e+01 -1.300e+01 -1.300e+01 -1.300e+01 -1.300e+01 -1.300e+01 -1.300e+01 -1.300e+01 -1.300e+01 -1.300e+01 -1.300e+01 -1.300e+01 -1.300e+01 -1.300e+01 -1.300e+01 -1.300e+01 -1.300e+01 -1.300e+01 -1.300e+01 -1.300e+01 -1.300e+01 -1.300e+01 -1.300e+01 -1.300e+01 -1.300e+01 -1.300e+01 -1.300e+01 -1.300e+01 -1.300e+01 -1.300e+01 -1.300e+01 -1.300e+01 -1.300e+01 -1.300e+01 -1.300e+01 -1.300e+01 -1.300e+01 -1.300e+01 -1.300e+01 -1.300e+01 -1.300e+01 -1.300e+01 -1.300e+01 -1.300e+01 -1.300e+01 -1.300e+01 -1.300e+01 -1.300e+01 -1.300e+01 -1.300e+01 -1.300e+01 -1.300e+01 -1.300e+01 -1.300e+01 -1.300e+01 -1.300e+01 -1.300e+01 -1.300e+01 -1.300e+01 -1.300e+01 -1.300e+01 -1.300e+01 -1.300e+01 -1.300e+01 -1.300e+01 -1.300e+01 -1.300e+01 -1.300e+01 -1.300e+01 -1.300e+01 -1.300e+01 -1.300e+01 -1.300e+01 -1.300e+01 -1.300e+01 -1.300e+01 -1.300e+01 -1.300e+01 -1.300e+01 -1.300e+01 -1.300e+01 -1.300e+01 -1.300e+01 -1.300e+01 -1.300e+01 -5.000e+00 -5.000e+00 -5.000e+00 -5.000e+00 -5.000e+00 -5.000e+00 -5.000e+00 -5.000e+00 -5.000e+00 -5.000e+00 -5.000e+00 -5.000e+00 -5.000e+00 -5.000e+00 -5.000e+00 -5.000e+00 -5.000e+00 -5.000e+00 -5.000e+00 -5.000e+00 -5.000e+00 -5.000e+00 -5.000e+00 -1.300e+01 -1.300e+01 -1.300e+01 -1.300e+01 -1.300e+01 -1.300e+01 -1.300e+01 -1.300e+01 -1.300e+01 -1.300e+01 -1.300e+01 -1.300e+01 -1.300e+01 -1.300e+01 -1.300e+01 -1.300e+01 -1.300e+01 -1.300e+01 -1.300e+01 -1.300e+01 -1.300e+01 -1.300e+01 -1.300e+01 -1.300e+01 -1.300e+01 -1.300e+01 -1.300e+01 -1.300e+01 -1.300e+01 -1.300e+01 -1.300e+01 -1.300e+01 -1.300e+01 -1.300e+01 -1.300e+01 -1.300e+01 -1.300e+01 -1.300e+01 -1.300e+01 -1.300e+01 -1.300e+01 -1.300e+01 -1.300e+01 -1.300e+01 -1.300e+01 -1.300e+01 -1.300e+01 -1.300e+01 -1.300e+01 -1.300e+01 -1.300e+01 -1.300e+01 -1.300e+01 -1.300e+01 -1.300e+01 -1.300e+01 -1.300e+01 -1.300e+01 -1.300e+01 -1.300e+01 -1.300e+01 -1.300e+01 -1.300e+01 -1.300e+01 -1.300e+01 -1.300e+01 -1.300e+01 -1.300e+01 -1.300e+01 -1.300e+01 -1.300e+01 -1.300e+01 -1.300e+01 -1.300e+01 -1.300e+01 -1.300e+01 -1.300e+01 -1.300e+01 -1.300e+01 -1.300e+01 -1.300e+01 -1.300e+01 -1.300e+01 -1.300e+01 -1.300e+01 -1.300e+01 -1.300e+01 -5.000e+00 -5.000e+00 -5.000e+00 -5.000e+00 -5.000e+00 -5.000e+00 -5.000e+00 -5.000e+00 -5.000e+00 -5.000e+00 -5.000e+00 -5.000e+00 -5.000e+00 -5.000e+00 -5.000e+00 -5.000e+00 -5.000e+00 -5.000e+00 -5.000e+00 -5.000e+00 -5.000e+00 -5.000e+00 -5.000e+00 -1.300e+01 -1.300e+01 -1.300e+01 -1.300e+01 -1.300e+01 -1.300e+01 -1.300e+01 -1.300e+01 -1.300e+01 -1.300e+01 -1.300e+01 -1.300e+01 -1.300e+01 -1.300e+01 -1.300e+01 -1.300e+01 -1.300e+01 -1.300e+01 -1.300e+01 -1.300e+01 -1.300e+01 -1.300e+01 -1.300e+01 -1.300e+01 -1.300e+01 -1.300e+01 -1.300e+01 -1.300e+01 -1.300e+01 -1.300e+01 -1.300e+01 -1.300e+01 -1.300e+01 -1.300e+01 -1.300e+01 -1.300e+01 -1.300e+01 -1.300e+01 -1.300e+01 -1.300e+01 -1.300e+01 -1.300e+01 -1.300e+01 -1.300e+01 -1.300e+01 -1.300e+01 -1.300e+01 -1.300e+01 -1.300e+01 -1.300e+01 -1.300e+01 -1.300e+01 -1.300e+01 -1.300e+01 -1.300e+01 -1.300e+01 -1.300e+01 -1.300e+01 -1.300e+01 -1.300e+01 -1.300e+01 -1.300e+01 -1.300e+01 -1.300e+01 -1.300e+01 -1.300e+01 -1.300e+01 -1.300e+01 -1.300e+01 -1.300e+01 -1.300e+01 -1.300e+01 -1.300e+01 -1.300e+01 -1.300e+01 -1.300e+01 -1.300e+01 -1.300e+01 -1.300e+01 -1.300e+01 -1.300e+01 -1.300e+01 -1.300e+01 -1.300e+01 -1.300e+01 -1.300e+01 -1.300e+01 -1.300e+01 -1.300e+01 -1.300e+01 -5.000e+00 -5.000e+00 -5.000e+00 -5.000e+00 -5.000e+00 -5.000e+00 -5.000e+00 -5.000e+00 -5.000e+00 -5.000e+00 -5.000e+00 -5.000e+00 -5.000e+00 -5.000e+00 -5.000e+00 -5.000e+00 -5.000e+00 -5.000e+00 -5.000e+00 -5.000e+00 -5.000e+00 -5.000e+00 -5.000e+00 -1.300e+01 -1.300e+01 -1.300e+01 -1.300e+01 -1.300e+01 -1.300e+01 -1.300e+01 -1.300e+01 -1.300e+01 -1.300e+01 -1.300e+01 -1.300e+01 -1.300e+01 -1.300e+01 -1.300e+01 -1.300e+01 -1.300e+01 -1.300e+01 -1.300e+01 -1.300e+01 -1.300e+01 -1.300e+01 -1.300e+01 -1.300e+01 -1.300e+01 -1.300e+01 -1.300e+01 -1.300e+01 -1.300e+01 -1.300e+01 -1.300e+01 -1.300e+01 -1.300e+01 -1.300e+01 -1.300e+01 -1.300e+01 -1.300e+01 -1.300e+01 -1.300e+01 -1.300e+01 -1.300e+01 -1.300e+01 -1.300e+01 -1.300e+01 -1.300e+01 -1.300e+01 -1.300e+01 -1.300e+01 -1.300e+01 -1.300e+01 -1.300e+01 -1.300e+01 -1.300e+01 -1.300e+01 -1.300e+01 -1.300e+01 -1.300e+01 -1.300e+01 -1.300e+01 -1.300e+01 -1.300e+01 -1.300e+01 -1.300e+01 -1.300e+01 -1.300e+01 -1.300e+01 -1.300e+01 -1.300e+01 -1.300e+01 -1.300e+01 -1.300e+01 -1.300e+01 -1.300e+01 -1.300e+01 -1.300e+01 -1.300e+01 -1.300e+01 -1.300e+01 -1.300e+01 -1.300e+01 -1.300e+01 -1.300e+01 -1.300e+01 -1.300e+01 -1.300e+01 -1.300e+01 -1.300e+01 -1.300e+01 -1.300e+01 -5.000e+00 -5.000e+00 -5.000e+00 -5.000e+00 -5.000e+00 -5.000e+00 -5.000e+00 -5.000e+00 -5.000e+00 -5.000e+00 -5.000e+00 -5.000e+00 -5.000e+00 -5.000e+00 -5.000e+00 -5.000e+00 -5.000e+00 -5.000e+00 -5.000e+00 -5.000e+00 -5.000e+00 -5.000e+00 -5.000e+00 -1.100e+01 -1.100e+01 -1.100e+01 -1.100e+01 -1.100e+01 -1.100e+01 -1.100e+01 -1.100e+01 -1.100e+01 -1.100e+01 -1.100e+01 -1.100e+01 -1.100e+01 -1.100e+01 -1.100e+01 -1.100e+01 -1.100e+01 -1.100e+01 -1.100e+01 -1.100e+01 -1.100e+01 -1.100e+01 -1.100e+01 -1.100e+01 -1.100e+01 -1.100e+01 -1.100e+01 -1.100e+01 -1.100e+01 -1.100e+01 -1.100e+01 -1.100e+01 -1.100e+01 -1.100e+01 -1.100e+01 -1.100e+01 -1.100e+01 -1.100e+01 -1.100e+01 -1.100e+01 -1.100e+01 -1.100e+01 -1.100e+01 -1.100e+01 -1.100e+01 -1.100e+01 -1.100e+01 -1.100e+01 -1.100e+01 -1.100e+01 -1.100e+01 -1.100e+01 -2.000e+00 -2.000e+00 -2.000e+00 -2.000e+00 -2.000e+00 -2.000e+00 -2.000e+00 -2.000e+00 -2.000e+00 -2.000e+00 -2.000e+00 -2.000e+00 -7.000e+00 -7.000e+00 -7.000e+00 -7.000e+00 -7.000e+00 -7.000e+00 -1.500e+01 -1.500e+01 -7.000e+00 -7.000e+00 -7.000e+00 -7.000e+00 -7.000e+00 -7.000e+00 -7.000e+00 -7.000e+00 -7.000e+00 -7.000e+00 -7.000e+00 -7.000e+00 -7.000e+00 -7.000e+00 -7.000e+00 -7.000e+00 -7.000e+00 -7.000e+00 -7.000e+00 -7.000e+00 -7.000e+00 -7.000e+00 -7.000e+00 -7.000e+00 -7.000e+00 -7.000e+00 -7.000e+00 -7.000e+00 -7.000e+00 -7.000e+00 -7.000e+00 -7.000e+00 -7.000e+00 -7.000e+00 -7.000e+00 -7.000e+00 -7.000e+00 -7.000e+00 -7.000e+00 -7.000e+00 -7.000e+00 -7.000e+00 -7.000e+00 -7.000e+00 -7.000e+00 -7.000e+00 -7.000e+00 -7.000e+00 -7.000e+00 -7.000e+00 -7.000e+00 -7.000e+00 -7.000e+00 -7.000e+00 -7.000e+00 -7.000e+00 -7.000e+00 -7.000e+00 -7.000e+00 -7.000e+00 -7.000e+00 -7.000e+00 -7.000e+00 -7.000e+00 -7.000e+00 -7.000e+00 -7.000e+00 -7.000e+00 -7.000e+00 -7.000e+00 -7.000e+00 -7.000e+00 -7.000e+00 -7.000e+00 -7.000e+00 -7.000e+00 -7.000e+00 -7.000e+00 -7.000e+00 -7.000e+00 -7.000e+00 -7.000e+00 -7.000e+00 -7.000e+00 -7.000e+00 -7.000e+00 -7.000e+00 -7.000e+00 -7.000e+00 -7.000e+00 -7.000e+00 -7.000e+00 -7.000e+00 -7.000e+00 -7.000e+00 -7.000e+00 -7.000e+00 -7.000e+00 -7.000e+00 -7.000e+00 -7.000e+00 -7.000e+00 -7.000e+00 -7.000e+00 -7.000e+00 -7.000e+00 -7.000e+00 -7.000e+00 -7.000e+00 -7.000e+00 -7.000e+00 -7.000e+00 -7.000e+00 -7.000e+00 -7.000e+00 -7.000e+00 -7.000e+00 -7.000e+00 -7.000e+00 -7.000e+00 -7.000e+00 -7.000e+00 -7.000e+00 -7.000e+00 -7.000e+00 -7.000e+00 -7.000e+00 -7.000e+00 -7.000e+00 -7.000e+00 -7.000e+00 -7.000e+00 -7.000e+00 -7.000e+00 -7.000e+00 -7.000e+00 -7.000e+00 -7.000e+00 -7.000e+00 -7.000e+00 -7.000e+00 -7.000e+00 -7.000e+00 -7.000e+00 -7.000e+00 -7.000e+00 -7.000e+00 -7.000e+00 -7.000e+00 -7.000e+00 -7.000e+00 -7.000e+00 -7.000e+00 -7.000e+00 -7.000e+00 -1.500e+01 -7.000e+00 -7.000e+00 -7.000e+00 -7.000e+00 -7.000e+00 -7.000e+00 -7.000e+00 -7.000e+00 -7.000e+00 -7.000e+00 -7.000e+00 -7.000e+00 -7.000e+00 -7.000e+00 -7.000e+00 -7.000e+00 -7.000e+00 -7.000e+00 -7.000e+00 -7.000e+00 -7.000e+00 -7.000e+00 -7.000e+00 -7.000e+00 -7.000e+00 -7.000e+00 -7.000e+00 -7.000e+00 -7.000e+00 -7.000e+00 -7.000e+00 -7.000e+00 -7.000e+00 -7.000e+00 -7.000e+00 -7.000e+00 -7.000e+00 -7.000e+00 -7.000e+00 -7.000e+00 -7.000e+00 -7.000e+00 -7.000e+00 -7.000e+00 -7.000e+00 -7.000e+00 -7.000e+00 -7.000e+00 -7.000e+00 -7.000e+00 -7.000e+00 -7.000e+00 -7.000e+00 -7.000e+00 -7.000e+00 -7.000e+00 -7.000e+00 -7.000e+00 -7.000e+00 -7.000e+00 -7.000e+00 -7.000e+00 -7.000e+00 -7.000e+00 -7.000e+00 -7.000e+00 -7.000e+00 -7.000e+00 -7.000e+00 -7.000e+00 -7.000e+00 -7.000e+00 -7.000e+00 -7.000e+00 -7.000e+00 -7.000e+00 -7.000e+00 -7.000e+00 -7.000e+00 -7.000e+00 -7.000e+00 -7.000e+00 -7.000e+00 -7.000e+00 -7.000e+00 -7.000e+00 -7.000e+00 -7.000e+00 -7.000e+00 -7.000e+00 -7.000e+00 -7.000e+00 -7.000e+00 -7.000e+00 -7.000e+00 -7.000e+00 -7.000e+00 -7.000e+00 -7.000e+00 -7.000e+00 -7.000e+00 -7.000e+00 -7.000e+00 -7.000e+00 -7.000e+00 -7.000e+00 -7.000e+00 -7.000e+00 -7.000e+00 -7.000e+00 -7.000e+00 -7.000e+00 -7.000e+00 -7.000e+00 -7.000e+00 -7.000e+00 -7.000e+00 -7.000e+00 -7.000e+00 -7.000e+00 -7.000e+00 -7.000e+00 -7.000e+00 -7.000e+00 -7.000e+00 -7.000e+00 -7.000e+00 -7.000e+00 -7.000e+00 -7.000e+00 -7.000e+00 -7.000e+00 -7.000e+00 -7.000e+00 -7.000e+00 -7.000e+00 -7.000e+00 -7.000e+00 -7.000e+00 -7.000e+00 -7.000e+00 -7.000e+00 -7.000e+00 -7.000e+00 -7.000e+00 -7.000e+00 -7.000e+00 -7.000e+00 -7.000e+00 -7.000e+00 -7.000e+00 -7.000e+00 -7.000e+00 -7.000e+00 -7.000e+00 -7.000e+00 -7.000e+00 -7.000e+00 -7.000e+00 -7.000e+00 -7.000e+00 -7.000e+00 -7.000e+00 -7.000e+00 -7.000e+00 -7.000e+00 -7.000e+00 -7.000e+00 -7.000e+00 -7.000e+00 -7.000e+00 -7.000e+00 -7.000e+00 -7.000e+00 -7.000e+00 -7.000e+00 -7.000e+00 -7.000e+00 -7.000e+00 -7.000e+00 -7.000e+00 -7.000e+00 -7.000e+00 -7.000e+00 -7.000e+00 -7.000e+00 -7.000e+00 -7.000e+00 -7.000e+00 -7.000e+00 -7.000e+00 -7.000e+00 -7.000e+00 -7.000e+00 -7.000e+00 -7.000e+00 -7.000e+00 -7.000e+00 -7.000e+00 -7.000e+00 -7.000e+00 -7.000e+00 -7.000e+00 -7.000e+00 -7.000e+00 -7.000e+00 -7.000e+00 -7.000e+00 -7.000e+00 -7.000e+00 -7.000e+00 -7.000e+00 -7.000e+00 -7.000e+00 -7.000e+00 -7.000e+00 -7.000e+00 -7.000e+00 -7.000e+00 -7.000e+00 -7.000e+00 -7.000e+00 -7.000e+00 -7.000e+00 -7.000e+00 -7.000e+00 -7.000e+00 -7.000e+00 -7.000e+00 -7.000e+00 -7.000e+00 -7.000e+00 -7.000e+00 -7.000e+00 -7.000e+00 -7.000e+00 -7.000e+00 -7.000e+00 -7.000e+00 -7.000e+00 -7.000e+00 -7.000e+00 -7.000e+00 -7.000e+00 -7.000e+00 -7.000e+00 -7.000e+00 -7.000e+00 -7.000e+00 -7.000e+00 -7.000e+00 -7.000e+00 -7.000e+00 -7.000e+00 -7.000e+00 -7.000e+00 -7.000e+00 -7.000e+00 -7.000e+00 -7.000e+00 -7.000e+00 -7.000e+00 -7.000e+00 -7.000e+00 -7.000e+00 -7.000e+00 -7.000e+00 -7.000e+00 -7.000e+00 -1.700e+01 -9.000e+00 -9.000e+00 -9.000e+00 -9.000e+00 -9.000e+00 -9.000e+00 -9.000e+00 -9.000e+00 -9.000e+00 -9.000e+00 -9.000e+00 -9.000e+00 -9.000e+00 -9.000e+00 -4.000e+00 -4.000e+00 -4.000e+00 -4.000e+00 -4.000e+00 -4.000e+00 -4.000e+00 -4.000e+00 -4.000e+00 -4.000e+00 -4.000e+00 -4.000e+00 -4.000e+00 -4.000e+00 -4.000e+00 -4.000e+00 -4.000e+00 -4.000e+00 -4.000e+00 -4.000e+00 -4.000e+00 -4.000e+00 -4.000e+00 -4.000e+00 -4.000e+00 -4.000e+00 -4.000e+00 -4.000e+00 -4.000e+00 -4.000e+00 -4.000e+00 -4.000e+00 -4.000e+00 -4.000e+00 -4.000e+00 -4.000e+00 -4.000e+00 -4.000e+00 -4.000e+00 -4.000e+00 -4.000e+00 -4.000e+00 -4.000e+00 -4.000e+00 -4.000e+00 -4.000e+00 -4.000e+00 -4.000e+00 -4.000e+00
           </DataArray>
           <DataArray type="Float32" Name="nitrate/minimalNutrientConcentration" NumberOfComponents="1" format="ascii">