<?xml version="1.0"?>
<VTKFile type="UnstructuredGrid" version="0.1" byte_order="LittleEndian">
   <UnstructuredGrid>
      <Piece NumberOfPoints="14350" NumberOfCells="1023">
         <Points>
            <DataArray type="Float32" Name="Position" NumberOfComponents="3" format="ascii">
-0.067	-5.033	-0.121
-0.067	-5.026	-0.116
-0.068	-5.017	-0.115
-0.071	-5.010	-0.119
-0.075	-5.006	-0.127
-0.077	-5.009	-0.136
-0.078	-5.016	-0.142
-0.076	-5.025	-0.143
-0.073	-5.033	-0.138
-0.069	-5.036	-0.130
-0.890	-5.216	0.155
-0.889	-5.209	0.161
-0.891	-5.200	0.163
-0.895	-5.192	0.159
-0.899	-5.189	0.152
-0.902	-5.191	0.143
-0.903	-5.198	0.137
-0.901	-5.207	0.136
-0.897	-5.215	0.139
-0.893	-5.218	0.147
-1.435	-5.411	0.454
-1.431	-5.411	0.462
-1.432	-5.411	0.471
-1.439	-5.411	0.478
-1.448	-5.411	0.479
-1.456	-5.411	0.475
-1.460	-5.411	0.467
-1.459	-5.411	0.458
-1.452	-5.411	0.451
-1.443	-5.411	0.450
-0.142	-5.073	-0.244
-0.141	-5.065	-0.239
-0.142	-5.056	-0.239
-0.144	-5.048	-0.244
-0.147	-5.046	-0.253
-0.149	-5.049	-0.261
-0.150	-5.056	-0.267
-0.149	-5.066	-0.267
-0.147	-5.073	-0.262
-0.144	-5.076	-0.253
-0.942	-5.149	-0.032
-0.941	-5.141	-0.027
-0.942	-5.132	-0.026
-0.944	-5.124	-0.031
-0.948	-5.122	-0.039
-0.951	-5.124	-0.048
-0.952	-5.132	-0.053
-0.951	-5.141	-0.054
-0.948	-5.148	-0.049
-0.945	-5.151	-0.041
-1.618	-5.252	0.316
-1.616	-5.245	0.322
-1.617	-5.236	0.322
-1.620	-5.228	0.318
-1.625	-5.225	0.310
-1.628	-5.228	0.302
-1.630	-5.235	0.297
-1.629	-5.244	0.296
-1.626	-5.252	0.300
-1.621	-5.255	0.308
-0.714	-5.773	-1.239
-0.711	-5.768	-1.232
-0.714	-5.764	-1.224
-0.721	-5.763	-1.219
-0.730	-5.764	-1.217
-0.738	-5.768	-1.221
-0.741	-5.774	-1.228
-0.738	-5.778	-1.236
-0.731	-5.779	-1.242
-0.722	-5.777	-1.243
-0.516	-6.498	-0.809
-0.513	-6.492	-0.803
-0.516	-6.487	-0.796
-0.523	-6.485	-0.790
-0.532	-6.486	-0.789
-0.540	-6.491	-0.792
-0.542	-6.497	-0.798
-0.539	-6.503	-0.806
-0.532	-6.504	-0.811
-0.523	-6.503	-0.812
-0.427	-6.752	-0.513
-0.427	-6.744	-0.509
-0.427	-6.735	-0.510
-0.427	-6.728	-0.517
-0.427	-6.727	-0.526
-0.427	-6.731	-0.534
-0.427	-6.739	-0.538
-0.427	-6.748	-0.537
-0.427	-6.755	-0.530
-0.427	-6.756	-0.521
-0.785	-5.853	-1.340
-0.780	-5.850	-1.333
-0.775	-5.853	-1.326
-0.772	-5.861	-1.322
-0.773	-5.870	-1.321
-0.776	-5.878	-1.325
-0.782	-5.880	-1.332
-0.787	-5.878	-1.339
-0.790	-5.870	-1.344
-0.789	-5.861	-1.344
-0.078	-5.918	-1.877
-0.073	-5.915	-1.870
-0.069	-5.918	-1.862
-0.066	-5.925	-1.857
-0.067	-5.935	-1.857
-0.070	-5.942	-1.861
-0.075	-5.945	-1.869
-0.079	-5.942	-1.876
-0.082	-5.935	-1.881
-0.082	-5.926	-1.882
0.129	-5.933	-1.987
0.134	-5.930	-1.980
0.138	-5.932	-1.972
0.140	-5.940	-1.967
0.139	-5.949	-1.966
0.137	-5.957	-1.971
0.132	-5.960	-1.978
0.128	-5.957	-1.986
0.126	-5.950	-1.992
0.126	-5.940	-1.992
-0.839	-5.948	-1.443
-0.832	-5.946	-1.438
-0.826	-5.949	-1.432
-0.823	-5.956	-1.428
-0.824	-5.965	-1.426
-0.829	-5.972	-1.429
-0.837	-5.975	-1.434
-0.843	-5.972	-1.440
-0.846	-5.964	-1.444
-0.845	-5.955	-1.445
-0.352	-6.119	-2.070
-0.345	-6.117	-2.066
-0.338	-6.120	-2.061
-0.334	-6.128	-2.057
-0.336	-6.137	-2.055
-0.342	-6.144	-2.057
-0.350	-6.146	-2.061
-0.356	-6.143	-2.066
-0.360	-6.135	-2.071
-0.358	-6.126	-2.072
-0.224	-6.191	-2.325
-0.216	-6.189	-2.321
-0.208	-6.192	-2.317
-0.205	-6.200	-2.313
-0.206	-6.209	-2.311
-0.212	-6.216	-2.312
-0.220	-6.218	-2.315
-0.228	-6.215	-2.320
-0.231	-6.207	-2.324
-0.230	-6.198	-2.326
-0.876	-6.058	-1.548
-0.873	-6.053	-1.541
-0.876	-6.050	-1.532
-0.883	-6.048	-1.527
-0.892	-6.049	-1.526
-0.900	-6.052	-1.530
-0.903	-6.057	-1.538
-0.900	-6.060	-1.546
-0.893	-6.062	-1.551
-0.884	-6.061	-1.552
-0.758	-6.758	-1.192
-0.755	-6.754	-1.185
-0.757	-6.750	-1.177
-0.764	-6.748	-1.171
-0.774	-6.749	-1.171
-0.781	-6.752	-1.175
-0.784	-6.756	-1.183
-0.782	-6.760	-1.191
-0.774	-6.762	-1.196
-0.765	-6.761	-1.196
-0.741	-7.186	-0.961
-0.738	-7.181	-0.953
-0.741	-7.177	-0.945
-0.748	-7.175	-0.940
-0.757	-7.175	-0.940
-0.765	-7.178	-0.945
-0.768	-7.182	-0.952
-0.765	-7.186	-0.960
-0.758	-7.189	-0.965
-0.748	-7.188	-0.965
-0.954	-6.150	-1.630
-0.949	-6.142	-1.634
-0.942	-6.139	-1.639
-0.934	-6.142	-1.643
-0.930	-6.150	-1.646
-0.929	-6.159	-1.645
-0.934	-6.166	-1.642
-0.941	-6.169	-1.637
-0.949	-6.166	-1.633
-0.953	-6.159	-1.630
-1.410	-6.198	-2.341
-1.406	-6.190	-2.345
-1.399	-6.187	-2.350
-1.391	-6.190	-2.355
-1.386	-6.197	-2.357
-1.386	-6.206	-2.357
-1.390	-6.214	-2.354
-1.397	-6.217	-2.348
-1.404	-6.214	-2.344
-1.409	-6.207	-2.341
-1.438	-6.203	-2.382
-1.435	-6.195	-2.385
-1.428	-6.192	-2.390
-1.420	-6.194	-2.395
-1.415	-6.201	-2.398
-1.414	-6.211	-2.398
-1.418	-6.218	-2.394
-1.425	-6.222	-2.389
-1.432	-6.219	-2.384
-1.438	-6.212	-2.381
-0.989	-6.268	-1.728
-0.988	-6.260	-1.722
-0.990	-6.251	-1.722
-0.993	-6.244	-1.726
-0.997	-6.241	-1.734
-1.000	-6.243	-1.742
-1.000	-6.250	-1.748
-0.999	-6.260	-1.749
-0.996	-6.267	-1.745
-0.992	-6.270	-1.737
-1.739	-6.417	-1.435
-1.738	-6.410	-1.429
-1.739	-6.401	-1.428
-1.743	-6.393	-1.432
-1.747	-6.390	-1.440
-1.751	-6.392	-1.448
-1.752	-6.399	-1.454
-1.750	-6.408	-1.455
-1.746	-6.416	-1.451
-1.742	-6.419	-1.444
-2.099	-6.516	-1.244
-2.098	-6.509	-1.238
-2.099	-6.500	-1.237
-2.103	-6.493	-1.240
-2.108	-6.490	-1.248
-2.112	-6.492	-1.256
-2.113	-6.499	-1.262
-2.111	-6.508	-1.263
-2.107	-6.515	-1.260
-2.103	-6.519	-1.252
-1.051	-6.347	-1.837
-1.045	-6.345	-1.831
-1.038	-6.348	-1.825
-1.035	-6.355	-1.821
-1.036	-6.365	-1.820
-1.041	-6.372	-1.823
-1.047	-6.375	-1.829
-1.054	-6.372	-1.835
-1.057	-6.364	-1.839
-1.056	-6.355	-1.840
-0.506	-6.440	-2.441
-0.499	-6.438	-2.436
-0.492	-6.441	-2.430
-0.488	-6.448	-2.426
-0.489	-6.457	-2.426
-0.494	-6.465	-2.429
-0.501	-6.467	-2.434
-0.508	-6.464	-2.440
-0.511	-6.457	-2.444
-0.511	-6.448	-2.444
-0.443	-6.451	-2.528
-0.436	-6.448	-2.523
-0.429	-6.451	-2.517
-0.425	-6.459	-2.514
-0.426	-6.468	-2.513
-0.431	-6.475	-2.516
-0.438	-6.478	-2.521
-0.445	-6.475	-2.526
-0.449	-6.467	-2.530
-0.448	-6.458	-2.530
-1.089	-6.479	-1.916
-1.091	-6.473	-1.910
-1.094	-6.464	-1.908
-1.097	-6.456	-1.912
-1.100	-6.453	-1.921
-1.100	-6.454	-1.930
-1.099	-6.461	-1.936
-1.096	-6.469	-1.938
-1.092	-6.477	-1.934
-1.090	-6.481	-1.925
-1.866	-6.774	-1.806
-1.869	-6.769	-1.799
-1.873	-6.760	-1.797
-1.877	-6.753	-1.800
-1.879	-6.749	-1.808
-1.879	-6.750	-1.818
-1.876	-6.755	-1.825
-1.872	-6.763	-1.827
-1.868	-6.771	-1.823
-1.866	-6.775	-1.815
-1.909	-6.803	-1.810
-1.913	-6.799	-1.803
-1.918	-6.792	-1.800
-1.922	-6.784	-1.803
-1.925	-6.779	-1.810
-1.925	-6.779	-1.819
-1.921	-6.783	-1.827
-1.916	-6.790	-1.830
-1.912	-6.798	-1.827
-1.909	-6.803	-1.820
-1.137	-6.588	-2.006
-1.138	-6.581	-2.000
-1.141	-6.572	-2.000
-1.143	-6.565	-2.005
-1.144	-6.562	-2.014
-1.145	-6.564	-2.023
-1.143	-6.571	-2.028
-1.141	-6.580	-2.029
-1.139	-6.588	-2.024
-1.137	-6.591	-2.015
-1.922	-6.778	-1.935
-1.924	-6.770	-1.929
-1.926	-6.762	-1.929
-1.928	-6.754	-1.934
-1.930	-6.751	-1.943
-1.929	-6.754	-1.952
-1.928	-6.761	-1.957
-1.926	-6.770	-1.958
-1.923	-6.777	-1.952
-1.922	-6.780	-1.944
-1.987	-6.780	-1.932
-1.979	-6.780	-1.928
-1.970	-6.780	-1.929
-1.963	-6.780	-1.936
-1.962	-6.780	-1.945
-1.966	-6.780	-1.953
-1.974	-6.780	-1.957
-1.983	-6.780	-1.956
-1.990	-6.780	-1.949
-1.991	-6.780	-1.940
-1.199	-6.680	-2.099
-1.195	-6.673	-2.102
-1.187	-6.671	-2.107
-1.179	-6.674	-2.111
-1.175	-6.682	-2.114
-1.175	-6.691	-2.113
-1.180	-6.698	-2.109
-1.187	-6.701	-2.105
-1.195	-6.697	-2.100
-1.199	-6.690	-2.098
-1.639	-6.736	-2.834
-1.634	-6.728	-2.837
-1.627	-6.726	-2.842
-1.619	-6.729	-2.846
-1.615	-6.736	-2.849
-1.615	-6.746	-2.848
-1.619	-6.753	-2.845
-1.627	-6.756	-2.840
-1.634	-6.753	-2.836
-1.639	-6.745	-2.833
-1.844	-6.747	-3.158
-1.840	-6.740	-3.161
-1.832	-6.737	-3.166
-1.825	-6.740	-3.170
-1.820	-6.747	-3.173
-1.820	-6.757	-3.173
-1.824	-6.764	-3.170
-1.832	-6.767	-3.165
-1.839	-6.764	-3.160
-1.844	-6.757	-3.157
-0.214	-5.122	-0.367
-0.213	-5.115	-0.361
-0.215	-5.106	-0.360
-0.218	-5.098	-0.364
-0.222	-5.095	-0.372
-0.225	-5.098	-0.381
-0.226	-5.105	-0.386
-0.224	-5.114	-0.387
-0.221	-5.122	-0.383
-0.217	-5.125	-0.375
-1.021	-5.277	-0.034
-1.019	-5.270	-0.028
-1.021	-5.261	-0.028
-1.024	-5.253	-0.032
-1.028	-5.250	-0.039
-1.032	-5.253	-0.047
-1.033	-5.260	-0.053
-1.032	-5.269	-0.054
-1.029	-5.277	-0.050
-1.024	-5.280	-0.042
-1.523	-5.355	0.262
-1.521	-5.347	0.267
-1.522	-5.338	0.268
-1.526	-5.331	0.264
-1.530	-5.327	0.257
-1.535	-5.330	0.249
-1.537	-5.337	0.244
-1.536	-5.347	0.243
-1.532	-5.354	0.247
-1.527	-5.357	0.254
-1.245	-6.788	-2.193
-1.239	-6.782	-2.196
-1.231	-6.781	-2.200
-1.224	-6.785	-2.203
-1.220	-6.794	-2.204
-1.221	-6.803	-2.202
-1.227	-6.809	-2.199
-1.235	-6.810	-2.195
-1.243	-6.805	-2.192
-1.247	-6.797	-2.191
-1.616	-6.886	-2.984
-1.610	-6.880	-2.988
-1.602	-6.879	-2.992
-1.594	-6.884	-2.995
-1.591	-6.892	-2.996
-1.592	-6.901	-2.994
-1.598	-6.907	-2.990
-1.606	-6.908	-2.986
-1.613	-6.904	-2.983
-1.617	-6.895	-2.983
-1.265	-6.910	-2.295
-1.262	-6.905	-2.288
-1.264	-6.902	-2.280
-1.271	-6.901	-2.274
-1.280	-6.903	-2.272
-1.287	-6.908	-2.275
-1.290	-6.913	-2.282
-1.288	-6.917	-2.291
-1.281	-6.917	-2.297
-1.272	-6.915	-2.299
-0.998	-7.598	-1.922
-0.996	-7.592	-1.915
-0.998	-7.588	-1.907
-1.005	-7.587	-1.901
-1.014	-7.590	-1.899
-1.021	-7.595	-1.902
-1.024	-7.600	-1.909
-1.021	-7.604	-1.917
-1.014	-7.605	-1.923
-1.006	-7.602	-1.925
-0.898	-7.817	-1.765
-0.894	-7.817	-1.757
-0.895	-7.817	-1.748
-0.902	-7.817	-1.742
-0.911	-7.817	-1.740
-0.919	-7.817	-1.744
-0.923	-7.817	-1.753
-0.922	-7.817	-1.762
-0.915	-7.817	-1.768
-0.906	-7.817	-1.770
-1.330	-7.019	-2.365
-1.325	-7.011	-2.369
-1.318	-7.009	-2.373
-1.310	-7.012	-2.378
-1.306	-7.019	-2.380
-1.306	-7.029	-2.380
-1.310	-7.036	-2.377
-1.318	-7.039	-2.372
-1.326	-7.035	-2.368
-1.330	-7.028	-2.365
-1.784	-7.048	-3.124
-1.779	-7.041	-3.127
-1.771	-7.039	-3.131
-1.764	-7.042	-3.135
-1.759	-7.050	-3.138
-1.760	-7.060	-3.137
-1.765	-7.067	-3.134
-1.773	-7.069	-3.130
-1.780	-7.065	-3.125
-1.785	-7.058	-3.123
-1.846	-7.050	-3.245
-1.840	-7.043	-3.248
-1.832	-7.041	-3.252
-1.825	-7.045	-3.256
[...]
         <CellData>
           <DataArray type="Float32" Name="combinedRootClassID" NumberOfComponents="1" format="ascii">
 -1.300e+01 -1.300e+01 -1.300e+01 -1.300e+01 -1.300e+01 -1.300e+01 -1.300e+01 -1.300e+01 -1.300e+01 -1.300e+01 -1.300e+01 -1.300e+01 -1.300e+01 -1.300e+01 -1.300e+01 -1.300e+01 -1.300e+01 -1.300e+01 -1.300e+01 -1.300e+01 -1.300e+01 -1.300e+01 -1.300e+01 -1.300e+01 -1.300e+01 -1.300e+01 -1.300e+01 -1.300e+01 -1.300e+01 -1.300e+01 -1.300e+01 -1.300e+01 -1.300e+01 -1.300e+01 -1.300e+01 -1.300e+01 -1.300e+01 -1.300e+01 -1.300e+01 -1.300e+01 -1.300e+01 -1.300e+01 -1.300e+01 -1.300e+01 -1.300e+01 -1.300e+01 -1.300e+01 -1.300e+01 -1.300e+01 -1.300e+01 -1.300e+01 -1.300e+01 -1.300e+01 -1.300e+01 -1.300e+01 -1.300e+01 -1.300e+01 -1.300e+01 -1.300e+01 -1.300e+01 -1.300e+01 -1.300e+01 -1.300e+01 -1.300e+01 -1.300e+01 -1.300e+01 -1.300e+01 -1.300e+01 -1.300e+01 -1.300e+01 -1.300e+01 -1.300e+01 -1.300e+01 -1.300e+01 -1.300e+01 -1.300e+01 -1.300e+01 -1.300e+01 -1.300e+01 -1.300e+01 -1.300e+01 -1.300e+01 -1.300e+01 -1.300e+01 -1.300e+01 -1.300e+01 -1.300e+01 -1.300e+01 -1.300e+01 -1.300e+01 -1.300e+01 -5.000e+00 -5.000e+00 -5.000e+00 -5.000e+00 -5.000e+00 -5.000e+00 -5.000e+00 -5.000e+00 -5.000e+00 -5.000e+00 -5.000e+00 -5.000e+00 -5.000e+00 -5.000e+00 -5.000e+00 -5.000e+00 -5.000e+00 -5.000e+00 -5.000e+00 -5.000e+00 -5.000e+00 -5.000e+00 -5.000e+00 -1.300e+01 -1.300e+01 -1.300e+01 -1.300e+01 -1.300e+01 -1.300e+01 -1.300e+01 -1.300e+01 -1.300e+01 -1.300e+01 -1.300e+01 -1.300e+01 -1.300e+01 -1.300e+01 -1.300e+01 -1.300e+01 -1.300e+01 -1.300e+01 -1.300e+01 -1.300e+01 -1.300e+01 -1.300e+01 -1.300e+01 -1.300e+01 -1.300e+01 -1.300e+01 -1.300e+01 -1.300e+01 -1.300e+01 -1.300e+01 -1.300e+01 -1.300e+01 -1.300e+01 -1.300e+01 -1.300e+01 -1.300e+01 -1.300e+01 -1.300e+01 -1.300e+01 -1.300e+01 -1.300e+01 -1.300e+01 -1.300e+01 -1.300e+01 -1.300e+01 -1.300e+01 -1.300e+01 -1.300e+01 -1.300e+01 -1.300e+01 -1.300e+01 -1.300e+01 -1.300e+01 -1.300e+01 -1.300e+01 -1.300e+01 -1.300e+01 -1.300e+01 -1.300e+01 -1.300e+01 -1.300e+01 -1.300e+01 -1.300e+01 -1.300e+01 -1.300e+01 -1.300e+01 -1.300e+01 -1.300e+01 -1.300e+01 -1.300e+01 -1.300e+01 -1.300e+01 -1.300e+01 -1.300e+01 -1.300e+01 -1.300e+01 -1.300e+01 -1.300e+01 -1.300e+01 -1.300e+01 -1.300e+01 -1.300e+01 -1.300e+01 -1.300e+01 -1.300e+01 -1.300e+01 -1.300e+01 -1.300e+01 -5.000e+00 -5.000e+00 -5.000e+00 -5.000e+00 -5.000e+00 -5.000e+00 -5.000e+00 -5.000e+00 -5.000e+00 -5.000e+00 -5.000e+00 -5.000e+00 -5.000e+00 -5.000e+00 -5.000e+00 -5.000e+00 -5.000e+00 -5.000e+00 -5.000e+00 -5.000e+00 -5.000e+00 -5.000e+00 -5.000e+00 -1.300e+01 -1.300e+01 -1.300e+01 -1.300e+01 -1.300e+01 -1.300e+01 -1.300e+01 -1.300e+01 -1.300e+01 -1.300e+01 -1.300e+01 -1.300e+01 -1.300e+01 -1.300e+01 -1.300e+01 -1.300e+01 -1.300e+01 -1.300e+01 -1.300e+01 -1.300e+01 -1.300e+01 -1.300e+01 -1.300e+01 -1.300e+01 -1.300e+01 -1.300e+01 -1.300e+01 -1.300e+01 -1.300e+01 -1.300e+01 -1.300e+01 -1.300e+01 -1.300e+01 -1.300e+01 -1.300e+01 -1.300e+01 -1.300e+01 -1.300e+01 -1.300e+01 -1.300e+01 -1.300e+01 -1.300e+01 -1.300e+01 -1.300e+01 -1.300e+01 -1.300e+01 -1.300e+01 -1.300e+01 -1.300e+01 -1.300e+01 -1.300e+01 -1.300e+01 -1.300e+01 -1.300e+01 -1.300e+01 -1.300e+01 -1.300e+01 -1.300e+01 -1.300e+01 -1.300e+01 -1.300e+01 -1.300e+01 -1.300e+01 -1.300e+01 -1.300e+01 -1.300e+01 -1.300e+01 -1.300e+01 -1.300e+01 -1.300e+01 -1.300e+01 -1.300e+01 -1.300e+01 -1.300e+01 -1.300e+01 -1.300e+01 -1.300e+01 -1.300e+01 -1.300e+01 -1.300e+01 -1.300e+01 -1.300e+01 -1.300e+01 -1.300e+01 -1.300e+01 -1.300e+01 -5.000e+00 -5.000e+00 -5.000e+00 -5.000e+00 -5.000e+00 -5.000e+00 -5.000e+00 -5.000e+00 -5.000e+00 -5.000e+00 -5.000e+00 -5.000e+00 -5.000e+00 -5.000e+00 -5.000e+00 -5.000e+00 -5.000e+00 -5.000e+00 -5.000e+00 -5.000e+00 -5.000e+00 -5.000e+00 -5.000e+00 -1.300e+01 -1.300e+01 -1.300e+01 -1.300e+01 -1.300e+01 -1.300e+01 -1.300e+01 -1.300e+01 -1.300e+01 -1.300e+01 -1.300e+01 -1.300e+01 -1.300e+01 -1.300e+01 -1.300e+01 -1.300e+01 -1.300e+01 -1.300e+01 -1.300e+01 -1.300e+01 -1.300e+01 -1.300e+01 -1.300e+01 -1.300e+01 -1.300e+01 -1.300e+01 -1.300e+01 -1.300e+01 -1.300e+01 -1.300e+01 -1.300e+01 -1.300e+01 -1.300e+01 -1.300e+01 -1.300e+01 -1.300e+01 -1.300e+01 -1.300e+01 -1.300e+01 -1.300e+01 -1.300e+01 -1.300e+01 -1.300e+01 -1.300e+01 -1.300e+01 -1.300e+01 -1.300e+01 -1.300e+01 -1.300e+01 -1.300e+01 -1.300e+01 -1.300e+01 -1.300e+01 -1.300e+01 -1.300e+01 -1.300e+01 -1.300e+01 -1.300e+01 -1.300e+01 -1.300e+01 -1.300e+01 -1.300e+01 -1.300e+01 -1.300e+01 -1.300e+01 -1.300e+01 -1.300e+01 -1.300e+01 -1.300e+01 -1.300e+01 -1.300e+01 -1.300e+01 -1.300e+01 -1.300e+01 -1.300e+01 -1.300e+01 -1.300e+01 -1.300e+01 -1.300e+01 -1.300e+01 -1.300e+01 -1.300e+01 -1.300e+01 -1.300e+01 -1.300e+01 -1.300e+01 -1.300e+01 -1.300e+01 -5.000e+00 -5.000e+00 -5.000e+00 -5.000e+00 -5.000e+00 -5.000e+00 -5.000e+00 -5.000e+00 -5.000e+00 -5.000e+00 -5.000e+00 -5.000e+00 -5.000e+00 -5.000e+00 -5.000e+00 -5.000e+00 -5.000e+00 -5.000e+00 -5.000e+00 -5.000e+00 -5.000e+00 -5.000e+00 -5.000e+00 -1.100e+01 -1.100e+01 -1.100e+01 -1.100e+01 -1.100e+01 -1.100e+01 -1.100e+01 -1.100e+01 -1.100e+01 -1.100e+01 -1.100e+01 -1.100e+01 -1.100e+01 -1.100e+01 -1.100e+01 -1.100e+01 -1.100e+01 -1.100e+01 -1.100e+01 -1.100e+01 -1.100e+01 -1.100e+01 -1.100e+01 -1.100e+01 -1.100e+01 -1.100e+01 -1.100e+01 -1.100e+01 -1.100e+01 -1.100e+01 -1.100e+01 -1.100e+01 -1.100e+01 -1.100e+01 -1.100e+01 -1.100e+01 -1.100e+01 -1.100e+01 -1.100e+01 -1.100e+01 -1.100e+01 -1.100e+01 -1.100e+01 -1.100e+01 -1.100e+01 -1.100e+01 -1.100e+01 -1.100e+01 -1.100e+01 -1.100e+01 -1.100e+01 -1.100e+01 -2.000e+00 -2.000e+00 -2.000e+00 -2.000e+00 -2.000e+00 -2.000e+00 -2.000e+00 -2.000e+00 -2.000e+00 -2.000e+00 -2.000e+00 -2.000e+00 -7.000e+00 -7.000e+00 -7.000e+00 -7.000e+00 -7.000e+00 -7.000e+00 -7.000e+00 -7.000e+00 -7.000e+00 -7.000e+00 -7.000e+00 -7.000e+00 -7.000e+00 -7.000e+00 -7.000e+00 -7.000e+00 -7.000e+00 -7.000e+00 -7.000e+00 -7.000e+00 -7.000e+00 -7.000e+00 -7.000e+00 -7.000e+00 -7.000e+00 -7.000e+00 -7.000e+00 -7.000e+00 -7.000e+00 -7.000e+00 -7.000e+00 -7.000e+00 -7.000e+00 -7.000e+00 -7.000e+00 -7.000e+00 -7.000e+00 -7.000e+00 -7.000e+00 -7.000e+00 -7.000e+00 -7.000e+00 -7.000e+00 -7.000e+00 -7.000e+00 -7.000e+00 -7.000e+00 -7.000e+00 -7.000e+00 -7.000e+00 -7.000e+00 -7.000e+00 -7.000e+00 -7.000e+00 -7.000e+00 -7.000e+00 -7.000e+00 -7.000e+00 -7.000e+00 -7.000e+00 -7.000e+00 -7.000e+00 -7.000e+00 -7.000e+00 -7.000e+00 -7.000e+00 -7.000e+00 -7.000e+00 -7.000e+00 -7.000e+00 -7.000e+00 -7.000e+00 -7.000e+00 -7.000e+00 -7.000e+00 -7.000e+00 -7.000e+00 -7.000e+00 -7.000e+00 -7.000e+00 -7.000e+00 -1.700e+01 -7.000e+00 -7.000e+00 -7.000e+00 -7.000e+00 -7.000e+00 -7.000e+00 -7.000e+00 -7.000e+00 -7.000e+00 -7.000e+00 -7.000e+00 -7.000e+00 -7.000e+00 -7.000e+00 -7.000e+00 -7.000e+00 -7.000e+00 -7.000e+00 -7.000e+00 -7.000e+00 -7.000e+00 -7.000e+00 -7.000e+00 -7.000e+00 -7.000e+00 -7.000e+00 -7.000e+00 -7.000e+00 -7.000e+00 -7.000e+00 -7.000e+00 -7.000e+00 -7.000e+00 -7.000e+00 -7.000e+00 -7.000e+00 -7.000e+00 -7.000e+00 -7.000e+00 -7.000e+00 -7.000e+00 -7.000e+00 -7.000e+00 -7.000e+00 -7.000e+00 -7.000e+00 -7.000e+00 -7.000e+00 -7.000e+00 -7.000e+00 -7.000e+00 -7.000e+00 -7.000e+00 -7.000e+00 -7.000e+00 -7.000e+00 -7.000e+00 -7.000e+00 -7.000e+00 -7.000e+00 -7.000e+00 -7.000e+00 -7.000e+00 -7.000e+00 -7.000e+00 -7.000e+00 -7.000e+00 -7.000e+00 -7.000e+00 -7.000e+00 -7.000e+00 -7.000e+00 -7.000e+00 -7.000e+00 -7.000e+00 -7.000e+00 -7.000e+00 -7.000e+00 -7.000e+00 -7.000e+00 -7.000e+00 -7.000e+00 -7.000e+00 -7.000e+00 -7.000e+00 -7.000e+00 -7.000e+00 -7.000e+00 -7.000e+00 -7.000e+00 -7.000e+00 -7.000e+00 -7.000e+00 -7.000e+00 -7.000e+00 -7.000e+00 -7.000e+00 -7.000e+00 -7.000e+00 -7.000e+00 -7.000e+00 -7.000e+00 -7.000e+00 -7.000e+00 -7.000e+00 -7.000e+00 -7.000e+00 -7.000e+00 -7.000e+00 -7.000e+00 -7.000e+00 -7.000e+00 -7.000e+00 -7.000e+00 -7.000e+00 -7.000e+00 -7.000e+00 -7.000e+00 -7.000e+00 -7.000e+00 -7.000e+00 -7.000e+00 -7.000e+00 -7.000e+00 -7.000e+00 -7.000e+00 -7.000e+00 -7.000e+00 -7.000e+00 -7.000e+00 -7.000e+00 -7.000e+00 -1.700e+01 -7.000e+00 -7.000e+00 -7.000e+00 -7.000e+00 -7.000e+00 -7.000e+00 -7.000e+00 -7.000e+00 -7.000e+00 -7.000e+00 -7.000e+00 -7.000e+00 -7.000e+00 -7.000e+00 -7.000e+00 -7.000e+00 -7.000e+00 -7.000e+00 -7.000e+00 -7.000e+00 -7.000e+00 -7.000e+00 -7.000e+00 -7.000e+00 -7.000e+00 -7.000e+00 -7.000e+00 -7.000e+00 -7.000e+00 -7.000e+00 -7.000e+00 -7.000e+00 -7.000e+00 -7.000e+00 -7.000e+00 -7.000e+00 -7.000e+00 -7.000e+00 -7.000e+00 -7.000e+00 -7.000e+00 -7.000e+00 -7.000e+00 -7.000e+00 -7.000e+00 -7.000e+00 -7.000e+00 -7.000e+00 -7.000e+00 -7.000e+00 -7.000e+00 -7.000e+00 -7.000e+00 -7.000e+00 -7.000e+00 -7.000e+00 -7.000e+00 -7.000e+00 -7.000e+00 -7.000e+00 -7.000e+00 -7.000e+00 -7.000e+00 -7.000e+00 -7.000e+00 -7.000e+00 -7.000e+00 -7.000e+00 -7.000e+00 -7.000e+00 -7.000e+00 -7.000e+00 -7.000e+00 -7.000e+00 -7.000e+00 -7.000e+00 -7.000e+00 -7.000e+00 -7.000e+00 -7.000e+00 -7.000e+00 -7.000e+00 -7.000e+00 -7.000e+00 -7.000e+00 -7.000e+00 -7.000e+00 -7.000e+00 -7.000e+00 -7.000e+00 -7.000e+00 -7.000e+00 -7.000e+00 -7.000e+00 -7.000e+00 -7.000e+00 -7.000e+00 -7.000e+00 -7.000e+00 -7.000e+00 -7.000e+00 -7.000e+00 -7.000e+00 -7.000e+00 -7.000e+00 -7.000e+00 -7.000e+00 -7.000e+00 -7.000e+00 -7.000e+00 -7.000e+00 -7.000e+00 -7.000e+00 -7.000e+00 -7.000e+00 -7.000e+00 -7.000e+00 -7.000e+00 -7.000e+00 -7.000e+00 -7.000e+00 -7.000e+00 -7.000e+00 -7.000e+00 -1.700e+01 -7.000e+00 -7.000e+00 -7.000e+00 -7.000e+00 -7.000e+00 -7.000e+00 -7.000e+00 -7.000e+00 -7.000e+00 -7.000e+00 -7.000e+00 -7.000e+00 -7.000e+00 -7.000e+00 -7.000e+00 -7.000e+00 -7.000e+00 -7.000e+00 -7.000e+00 -7.000e+00 -7.000e+00 -7.000e+00 -7.000e+00 -7.000e+00 -7.000e+00 -7.000e+00 -7.000e+00 -7.000e+00 -7.000e+00 -7.000e+00 -7.000e+00 -7.000e+00 -7.000e+00 -7.000e+00 -7.000e+00 -1.700e+01 -7.000e+00 -7.000e+00 -7.000e+00 -7.000e+00 -7.000e+00 -7.000e+00 -7.000e+00 -7.000e+00 -7.000e+00 -7.000e+00 -7.000e+00 -7.000e+00 -7.000e+00 -7.000e+00 -7.000e+00 -7.000e+00 -7.000e+00 -7.000e+00 -7.000e+00 -7.000e+00 -7.000e+00 -7.000e+00 -7.000e+00 -7.000e+00 -7.000e+00 -7.000e+00 -7.000e+00 -7.000e+00 -7.000e+00 -7.000e+00 -7.000e+00 -7.000e+00 -7.000e+00 -7.000e+00 -7.000e+00 -7.000e+00 -7.000e+00 -7.000e+00 -7.000e+00 -7.000e+00 -7.000e+00 -7.000e+00 -7.000e+00 -7.000e+00 -7.000e+00 -7.000e+00 -7.000e+00 -7.000e+00 -7.000e+00 -7.000e+00 -7.000e+00 -7.000e+00 -7.000e+00 -7.000e+00 -7.000e+00 -7.000e+00 -1.500e+01 -1.500e+01 -1.500e+01 -1.500e+01 -9.000e+00 -9.000e+00 -9.000e+00 -9.000e+00 -9.000e+00 -9.000e+00 -9.000e+00 -9.000e+00 -9.000e+00 -1.500e+01 -1.500e+01 -9.000e+00 -9.000e+00 -9.000e+00 -9.000e+00 -9.000e+00 -9.000e+00 -9.000e+00 -9.000e+00 -9.000e+00 -9.000e+00 -9.000e+00 -9.000e+00 -9.000e+00 -9.000e+00 -9.000e+00 -9.000e+00 -9.000e+00 -9.000e+00 -4.000e+00 -4.000e+00 -4.000e+00 -4.000e+00 -4.000e+00 -4.000e+00 -4.000e+00 -4.000e+00 -4.000e+00 -4.000e+00 -4.000e+00 -4.000e+00 -4.000e+00 -4.000e+00 -4.000e+00 -4.000e+00 -4.000e+00 -4.000e+00 -4.000e+00 -4.000e+00 -4.000e+00 -4.000e+00 -4.000e+00 -4.000e+00 -4.000e+00 -4.000e+00 -4.000e+00 -4.000e+00 -4.000e+00 -4.000e+00 -4.000e+00 -4.000e+00 -4.000e+00 -4.000e+00 -4.000e+00 -4.000e+00 -4.000e+00 -4.000e+00 -4.000e+00 -4.000e+00 -4.000e+00 -4.000e+00 -4.000e+00 -4.000e+00 -4.000e+00 -4.000e+00 -4.000e+00 -4.000e+00 -4.000e+00
           </DataArray>
           <DataArray type="Float32" Name="nitrate/minimalNutrientConcentration" NumberOfComponents="1" format="ascii">