<?xml version="1.0"?>
<VTKFile type="UnstructuredGrid" version="0.1" byte_order="LittleEndian">
   <UnstructuredGrid>
      <Piece NumberOfPoints="820" NumberOfCells="58">
         <Points>
            <DataArray type="Float32" Name="Position" NumberOfComponents="3" format="ascii">
-0.028	-4.973	0.010
-0.016	-4.960	-0.002
0.002	-4.958	-0.013
0.019	-4.969	-0.019
0.028	-4.987	-0.019
0.027	-5.007	-0.011
0.015	-5.020	0.000
-0.002	-5.022	0.011
-0.019	-5.011	0.018
-0.029	-4.993	0.017
-0.289	-5.124	-0.430
-0.277	-5.111	-0.441
-0.259	-5.109	-0.452
-0.242	-5.120	-0.459
-0.232	-5.139	-0.458
-0.234	-5.158	-0.451
-0.245	-5.171	-0.439
-0.263	-5.173	-0.428
-0.280	-5.162	-0.422
-0.290	-5.144	-0.422
0.015	-5.018	0.011
0.019	-5.002	0.025
0.014	-4.982	0.029
0.005	-4.965	0.022
-0.007	-4.957	0.006
-0.016	-4.962	-0.012
-0.019	-4.978	-0.026
-0.015	-4.998	-0.030
-0.005	-5.015	-0.023
0.006	-5.023	-0.007
-0.426	-5.159	0.272
-0.423	-5.143	0.286
-0.427	-5.123	0.290
-0.437	-5.106	0.283
-0.449	-5.099	0.267
-0.458	-5.104	0.249
-0.461	-5.119	0.235
-0.457	-5.139	0.231
-0.447	-5.157	0.238
-0.435	-5.164	0.254
0.027	-4.999	-0.019
0.029	-4.979	-0.014
0.020	-4.963	-0.004
0.003	-4.957	0.007
-0.015	-4.964	0.016
-0.028	-4.981	0.018
-0.030	-5.001	0.013
-0.020	-5.017	0.003
-0.004	-5.023	-0.009
0.015	-5.016	-0.017
0.278	-5.147	0.448
0.288	-5.129	0.448
0.284	-5.108	0.448
0.269	-5.093	0.448
0.249	-5.090	0.448
0.230	-5.099	0.448
0.220	-5.118	0.448
0.224	-5.139	0.448
0.239	-5.154	0.448
0.259	-5.157	0.448
-0.006	-4.964	-0.022
0.004	-4.956	-0.004
0.011	-4.962	0.015
0.015	-4.978	0.028
0.012	-4.999	0.030
0.005	-5.016	0.020
-0.004	-5.024	0.003
-0.012	-5.018	-0.016
-0.015	-5.002	-0.029
-0.013	-4.981	-0.031
0.474	-5.043	-0.242
0.483	-5.035	-0.225
0.491	-5.041	-0.206
0.494	-5.057	-0.193
0.492	-5.078	-0.191
0.484	-5.095	-0.200
0.475	-5.103	-0.217
0.467	-5.097	-0.236
0.464	-5.081	-0.249
0.467	-5.060	-0.251
-0.146	-5.000	0.146
-0.032	-5.000	0.204
0.094	-4.999	0.184
0.184	-4.999	0.094
0.204	-5.000	-0.032
0.146	-5.000	-0.146
0.032	-5.000	-0.204
-0.094	-5.001	-0.184
-0.184	-5.001	-0.094
-0.204	-5.000	0.032
-0.146	-4.040	0.142
-0.034	-4.040	0.199
0.091	-4.040	0.180
0.180	-4.040	0.090
0.200	-4.040	-0.035
0.142	-4.040	-0.147
0.030	-4.040	-0.204
-0.095	-4.040	-0.184
-0.184	-4.040	-0.095
-0.204	-4.040	0.030
-0.146	-3.560	0.145
-0.034	-3.561	0.202
0.091	-3.561	0.182
0.180	-3.561	0.093
0.200	-3.561	-0.031
0.143	-3.560	-0.144
0.030	-3.560	-0.201
-0.094	-3.559	-0.181
-0.183	-3.559	-0.092
-0.203	-3.560	0.032
-0.142	-3.000	0.145
-0.030	-3.001	0.202
0.094	-3.001	0.182
0.183	-3.001	0.093
0.203	-3.001	-0.031
0.146	-3.000	-0.143
0.034	-2.999	-0.200
-0.090	-2.999	-0.180
-0.179	-2.999	-0.091
-0.199	-2.999	0.033
-0.141	-2.401	0.149
-0.029	-2.401	0.206
0.095	-2.401	0.186
0.184	-2.401	0.097
0.203	-2.400	-0.027
0.146	-2.400	-0.139
0.034	-2.399	-0.195
-0.090	-2.399	-0.176
-0.178	-2.399	-0.087
-0.198	-2.400	0.037
-0.139	-1.800	0.152
-0.027	-1.801	0.209
0.097	-1.801	0.189
0.185	-1.801	0.100
0.205	-1.800	-0.023
0.148	-1.800	-0.135
0.036	-1.799	-0.192
-0.088	-1.799	-0.172
-0.176	-1.800	-0.083
-0.196	-1.800	0.040
-0.138	-1.200	0.153
-0.027	-1.200	0.210
0.097	-1.200	0.190
0.185	-1.200	0.102
0.205	-1.200	-0.022
0.148	-1.200	-0.134
0.036	-1.200	-0.190
-0.087	-1.200	-0.171
-0.176	-1.200	-0.082
-0.195	-1.200	0.041
-0.140	-0.600	0.152
-0.028	-0.600	0.208
0.095	-0.600	0.189
0.184	-0.600	0.101
0.203	-0.601	-0.023
0.147	-0.600	-0.134
0.035	-0.600	-0.191
-0.088	-0.600	-0.172
-0.176	-0.600	-0.083
-0.196	-0.600	0.040
-0.136	0.001	0.152
-0.025	0.000	0.209
0.098	-0.000	0.190
0.187	-0.001	0.102
0.207	-0.001	-0.022
0.150	-0.001	-0.133
0.039	-0.001	-0.190
-0.084	-0.000	-0.171
-0.173	0.000	-0.083
-0.192	0.001	0.040
-0.134	0.561	0.149
-0.024	0.561	0.206
0.100	0.561	0.187
0.188	0.560	0.099
0.208	0.559	-0.024
0.152	0.559	-0.135
0.041	0.559	-0.192
-0.082	0.559	-0.173
-0.171	0.560	-0.086
-0.191	0.560	0.037
-0.133	1.040	0.146
-0.022	1.041	0.203
0.101	1.040	0.184
0.189	1.040	0.096
0.209	1.039	-0.027
0.152	1.039	-0.138
0.042	1.039	-0.195
-0.081	1.039	-0.176
-0.170	1.040	-0.088
-0.189	1.040	0.035
-0.133	1.760	0.145
-0.022	1.760	0.202
0.101	1.760	0.182
0.189	1.760	0.095
0.209	1.759	-0.028
0.152	1.759	-0.139
0.042	1.759	-0.195
-0.081	1.760	-0.176
-0.169	1.760	-0.088
-0.189	1.760	0.034
-0.130	2.577	0.142
-0.020	2.577	0.199
0.102	2.576	0.180
0.190	2.576	0.092
0.210	2.575	-0.030
0.154	2.575	-0.140
0.044	2.575	-0.196
-0.078	2.576	-0.177
-0.166	2.576	-0.090
-0.186	2.577	0.032
-0.002	-5.088	-0.017
0.003	-5.085	-0.009
0.007	-5.088	-0.001
0.009	-5.095	0.004
0.007	-5.104	0.006
0.003	-5.111	0.002
-0.002	-5.114	-0.005
-0.006	-5.112	-0.013
-0.007	-5.105	-0.019
-0.006	-5.096	-0.020
0.369	-5.179	-0.228
0.373	-5.176	-0.221
0.377	-5.178	-0.213
0.379	-5.186	-0.207
0.377	-5.195	-0.206
0.373	-5.202	-0.209
0.368	-5.205	-0.217
0.365	-5.203	-0.225
0.363	-5.195	-0.230
0.365	-5.186	-0.232
0.014	-5.202	-0.024
0.015	-5.194	-0.020
0.011	-5.188	-0.014
0.004	-5.186	-0.009
-0.004	-5.190	-0.006
-0.009	-5.197	-0.006
-0.011	-5.205	-0.010
-0.007	-5.211	-0.016
0.000	-5.213	-0.022
0.008	-5.209	-0.025
0.275	-5.433	0.374
0.277	-5.425	0.378
0.273	-5.419	0.384
0.266	-5.417	0.390
0.258	-5.421	0.393
0.252	-5.428	0.392
0.251	-5.437	0.388
0.255	-5.443	0.382
0.262	-5.444	0.377
0.270	-5.441	0.373
-0.072	-6.098	-0.130
-0.072	-6.091	-0.125
-0.073	-6.081	-0.126
-0.074	-6.074	-0.132
-0.074	-6.072	-0.141
-0.074	-6.076	-0.149
-0.074	-6.084	-0.154
-0.073	-6.093	-0.153
-0.072	-6.100	-0.147
-0.072	-6.102	-0.138
-0.310	-6.119	-0.122
-0.311	-6.111	-0.117
-0.311	-6.102	-0.118
-0.312	-6.095	-0.124
-0.313	-6.093	-0.133
-0.313	-6.096	-0.141
-0.312	-6.104	-0.146
-0.311	-6.114	-0.145
-0.311	-6.120	-0.139
-0.310	-6.122	-0.130
-0.076	-6.198	-0.147
-0.077	-6.191	-0.141
-0.079	-6.182	-0.140
-0.083	-6.175	-0.144
-0.085	-6.172	-0.152
-0.087	-6.174	-0.161
-0.086	-6.180	-0.167
-0.083	-6.189	-0.169
-0.080	-6.197	-0.164
-0.077	-6.200	-0.156
-0.288	-6.247	-0.103
-0.280	-6.247	-0.098
-0.271	-6.247	-0.100
-0.264	-6.247	-0.106
-0.263	-6.247	-0.116
-0.267	-6.247	-0.124
-0.275	-6.247	-0.128
-0.285	-6.247	-0.127
-0.291	-6.247	-0.120
-0.293	-6.247	-0.111
-0.082	-6.279	-0.181
-0.082	-6.273	-0.175
-0.084	-6.271	-0.166
-0.089	-6.274	-0.158
-0.093	-6.281	-0.155
-0.097	-6.289	-0.157
-0.098	-6.296	-0.163
-0.095	-6.298	-0.172
-0.091	-6.295	-0.180
-0.086	-6.288	-0.183
0.052	-6.348	-0.129
0.053	-6.341	-0.123
0.050	-6.339	-0.114
0.046	-6.342	-0.106
0.041	-6.349	-0.103
0.037	-6.358	-0.105
0.037	-6.364	-0.112
0.039	-6.366	-0.120
0.043	-6.363	-0.128
0.048	-6.356	-0.131
-0.103	-6.371	-0.191
-0.096	-6.368	-0.185
-0.090	-6.371	-0.180
-0.086	-6.379	-0.175
-0.088	-6.388	-0.174
-0.093	-6.395	-0.177
-0.100	-6.398	-0.182
-0.107	-6.395	-0.188
-0.110	-6.387	-0.192
-0.109	-6.378	-0.193
-0.032	-6.391	-0.280
-0.025	-6.388	-0.275
-0.019	-6.391	-0.269
-0.015	-6.399	-0.264
-0.017	-6.408	-0.263
-0.022	-6.415	-0.266
-0.029	-6.417	-0.271
-0.036	-6.414	-0.277
-0.039	-6.407	-0.281
-0.038	-6.398	-0.282
-0.094	-6.494	-0.190
-0.091	-6.487	-0.185
-0.093	-6.478	-0.183
-0.099	-6.471	-0.184
-0.106	-6.468	-0.189
-0.113	-6.471	-0.195
-0.116	-6.478	-0.200
-0.114	-6.487	-0.202
-0.108	-6.494	-0.201
-0.101	-6.497	-0.196
-0.138	-6.518	-0.132
-0.135	-6.511	-0.127
-0.136	-6.502	-0.124
-0.142	-6.495	-0.126
-0.150	-6.492	-0.130
-0.156	-6.495	-0.136
-0.159	-6.502	-0.141
-0.157	-6.511	-0.144
-0.152	-6.518	-0.142
-0.144	-6.520	-0.138
-0.098	-6.592	-0.201
-0.094	-6.585	-0.197
-0.096	-6.576	-0.194
-0.103	-6.570	-0.194
-0.112	-6.568	-0.196
-0.119	-6.572	-0.200
-0.123	-6.579	-0.204
-0.121	-6.588	-0.206
-0.114	-6.594	-0.207
-0.105	-6.596	-0.205
-0.117	-6.616	-0.136
-0.114	-6.609	-0.132
-0.116	-6.600	-0.129
-0.122	-6.593	-0.129
-0.131	-6.592	-0.131
-0.139	-6.596	-0.134
-0.143	-6.603	-0.138
-0.141	-6.612	-0.141
-0.134	-6.618	-0.141
-0.125	-6.620	-0.139
-0.119	-6.688	-0.196
-0.121	-6.679	-0.196
-0.121	-6.671	-0.200
-0.117	-6.667	-0.208
-0.112	-6.669	-0.216
-0.108	-6.675	-0.220
-0.105	-6.684	-0.221
-0.106	-6.692	-0.216
-0.109	-6.696	-0.208
-0.114	-6.694	-0.201
-0.141	-6.694	-0.209
-0.144	-6.685	-0.209
-0.143	-6.677	-0.214
-0.140	-6.673	-0.221
-0.135	-6.674	-0.229
-0.130	-6.681	-0.234
-0.128	-6.690	-0.234
-0.128	-6.698	-0.230
-0.132	-6.702	-0.222
-0.137	-6.700	-0.214
0.003	-5.309	-0.028
0.006	-5.302	-0.022
0.004	-5.294	-0.019
-0.002	-5.287	-0.020
-0.010	-5.284	-0.025
-0.016	-5.287	-0.031
-0.019	-5.293	-0.037
-0.017	-5.302	-0.039
-0.011	-5.309	-0.038
-0.003	-5.312	-0.034
-0.271	-5.488	0.326
-0.268	-5.481	0.331
-0.270	-5.473	0.334
-0.276	-5.466	0.333
-0.284	-5.463	0.328
-0.290	-5.466	0.322
-0.293	-5.472	0.317
-0.291	-5.481	0.314
-0.285	-5.488	0.315
-0.277	-5.491	0.319
-0.017	-5.385	-0.049
-0.011	-5.382	-0.043
-0.006	-5.385	-0.035
-0.004	-5.393	-0.030
-0.006	-5.402	-0.029
-0.011	-5.409	-0.032
-0.017	-5.411	-0.038
-0.022	-5.409	-0.045
-0.024	-5.401	-0.051
-0.022	-5.392	-0.052
0.253	-5.479	-0.264
0.259	-5.477	-0.258
0.264	-5.479	-0.250
0.265	-5.487	-0.245
0.264	-5.496	-0.243
0.259	-5.503	-0.247
0.252	-5.506	-0.253
0.248	-5.503	-0.260
0.246	-5.495	-0.266
0.248	-5.487	-0.267
-0.016	-5.508	-0.045
-0.018	-5.502	-0.038
-0.022	-5.493	-0.037
-0.025	-5.486	-0.042
-0.026	-5.482	-0.051
-0.025	-5.484	-0.060
-0.023	-5.490	-0.066
-0.019	-5.499	-0.067
-0.017	-5.506	-0.062
-0.015	-5.510	-0.054
-0.457	-5.676	-0.046
-0.460	-5.670	-0.040
-0.463	-5.661	-0.039
-0.466	-5.653	-0.043
-0.467	-5.650	-0.052
-0.466	-5.652	-0.061
-0.464	-5.658	-0.067
-0.461	-5.667	-0.068
-0.458	-5.674	-0.063
-0.457	-5.678	-0.055
-0.020	-5.593	-0.078
-0.019	-5.585	-0.073
-0.023	-5.581	-0.065
-0.028	-5.582	-0.058
-0.035	-5.588	-0.054
-0.039	-5.596	-0.055
-0.039	-5.604	-0.061
-0.036	-5.608	-0.068
-0.030	-5.607	-0.075
-0.024	-5.601	-0.079
0.239	-5.750	0.111
0.239	-5.743	0.116
0.236	-5.739	0.124
0.230	-5.740	0.131
0.224	-5.746	0.135
0.220	-5.754	0.134
0.219	-5.762	0.128
0.222	-5.766	0.120
0.228	-5.764	0.113
0.234	-5.759	0.110
-0.040	-5.682	-0.091
-0.034	-5.679	-0.084
-0.030	-5.681	-0.076
-0.030	-5.688	-0.070
-0.032	-5.697	-0.068
-0.037	-5.704	-0.071
-0.042	-5.707	-0.078
-0.046	-5.705	-0.086
-0.047	-5.698	-0.092
[...]
         <CellData>
           <DataArray type="Float32" Name="combinedRootClassID" NumberOfComponents="1" format="ascii">
 -5.000e+00 -5.000e+00 -5.000e+00 -5.000e+00 -2.000e+00 -2.000e+00 -2.000e+00 -2.000e+00 -2.000e+00 -2.000e+00 -2.000e+00 -2.000e+00 -2.000e+00 -2.000e+00 -2.000e+00 -2.000e+00 -7.000e+00 -7.000e+00 -7.000e+00 -7.000e+00 -7.000e+00 -7.000e+00 -7.000e+00 -7.000e+00 -7.000e+00 -7.000e+00 -7.000e+00 -7.000e+00 -7.000e+00 -7.000e+00 -7.000e+00 -7.000e+00 -7.000e+00 -9.000e+00 -4.000e+00 -4.000e+00 -4.000e+00 -4.000e+00 -4.000e+00 -4.000e+00 -4.000e+00 -4.000e+00 -4.000e+00 -4.000e+00 -4.000e+00 -4.000e+00 -4.000e+00 -4.000e+00 -4.000e+00 -4.000e+00 -4.000e+00 -4.000e+00 -4.000e+00 -4.000e+00 -4.000e+00 -4.000e+00 -4.000e+00 -4.000e+00
           </DataArray>
           <DataArray type="Float32" Name="nitrate/minimalNutrientConcentration" NumberOfComponents="1" format="ascii">
 6.000e+02 6.000e+02 6.000e+02 6.000e+02 6.000e+02 6.000e+02 6.000e+02 6.000e+02 6.000e+02 6.000e+02 6.000e+02 6.000e+02 6.000e+02 6.000e+02 6.000e+02 6.000e+02 6.000e+02 6.000e+02 6.000e+02 6.000e+02 6.000e+02 6.000e+02 6.000e+02 6.000e+02 6.000e+02 6.000e+02 6.000e+02 6.000e+02 6.000e+02 6.000e+02 6.000e+02 6.000e+02 6.000e+02 6.000e+02 6.000e+02 6.000e+02 6.000e+02 6.000e+02 6.000e+02 6.000e+02 6.000e+02 6.000e+02 6.000e+02 6.000e+02 6.000e+02 6.000e+02 6.000e+02 6.000e+02 6.000e+02 6.000e+02 6.000e+02 6.000e+02 6.000e+02 6.000e+02 6.000e+02 6.000e+02 6.000e+02 6.000e+02
           </DataArray>
           <DataArray type="Float32" Name="nitrate/optimalNutrientConcentration" NumberOfComponents="1" format="ascii">
 1.200e+03 1.200e+03 1.200e+03 1.200e+03 1.200e+03 1.200e+03 1.200e+03 1.200e+03 1.200e+03 1.200e+03 1.200e+03 1.200e+03 1.200e+03 1.200e+03 1.200e+03 1.200e+03 1.200e+03 1.200e+03 1.200e+03 1.200e+03 1.200e+03 1.200e+03 1.200e+03 1.200e+03 1.200e+03 1.200e+03 1.200e+03 1.200e+03 1.200e+03 1.200e+03 1.200e+03 1.200e+03 1.200e+03 1.200e+03 1.200e+03 1.200e+03 1.200e+03 1.200e+03 1.200e+03 1.200e+03 1.200e+03 1.200e+03 1.200e+03 1.200e+03 1.200e+03 1.200e+03 1.200e+03 1.200e+03 1.200e+03 1.200e+03 1.200e+03 1.200e+03 1.200e+03 1.200e+03 1.200e+03 1.200e+03 1.200e+03 1.200e+03
           </DataArray>
           <DataArray type="Float32" Name="nitrate/radiusDepletionZone" NumberOfComponents="1" format="ascii">
 3.400e-02 3.400e-02 3.400e-02 3.400e-02 1.496e+00 2.725e+00 8.530e+00 6.822e+00 5.146e+00 4.410e+00 3.858e+00 3.428e+00 2.762e+00 2.013e-01 2.011e-01 2.007e-01 1.500e-02 1.500e-02 1.500e-02 1.500e-02 1.500e-02 1.500e-02 1.500e-02 1.500e-02 1.500e-02 1.500e-02 1.500e-02 1.500e-02 1.500e-02 1.500e-02 1.500e-02 1.500e-02 1.500e-02 1.500e-02 1.080e+00 1.361e+01 8.996e+00 6.745e+00 5.395e+00 3.958e+00 3.392e+00 2.967e+00 2.637e+00 2.373e+00 1.864e+00 1.708e+00 1.577e+00 1.464e+00 1.151e+00 1.079e+00 1.015e+00 7.796e-01 7.385e-01 7.015e-01 5.145e-01 4.910e-01 3.294e-01 1.813e-01
           </DataArray>
           <DataArray type="Float32" Name="nitrate/rootSegmentMinimalNutrientContent" NumberOfComponents="1" format="ascii">
 1.094e-01 1.094e-01 1.094e-01 1.094e-01 7.165e+00 3.551e+00 4.125e+00 4.403e+00 4.388e+00 4.374e+00 4.361e+00 4.348e+00 4.047e+00 3.461e+00 5.179e+00 5.815e+00 1.751e-02 2.122e-02 9.568e-03 8.391e-03 6.383e-03 4.613e-03 3.055e-03 2.884e-03 1.068e-03 1.929e-02 1.440e-02 1.887e-02 1.431e-02 1.490e-02 1.463e-02 1.331e-02 9.333e-03 9.497e-03 3.929e-01 1.907e-01 1.883e-01 1.862e-01 1.845e-01 1.830e-01 1.815e-01 1.802e-01 1.789e-01 1.777e-01 1.766e-01 1.756e-01 1.746e-01 1.737e-01 1.729e-01 1.722e-01 1.716e-01 1.710e-01 1.705e-01 1.701e-01 1.697e-01 1.695e-01 1.693e-01 1.692e-01
           </DataArray>
           <DataArray type="Float32" Name="nitrate/rootSegmentNutrientUptake" NumberOfComponents="1" format="ascii">
 0.000e+00 0.000e+00 0.000e+00 0.000e+00 3.712e+00 9.988e-01 2.619e+00 3.152e+00 3.262e+00 4.695e+00 3.304e+00 4.783e+00 1.524e+00 0.000e+00 0.000e+00 0.000e+00 0.000e+00 0.000e+00 0.000e+00 0.000e+00 0.000e+00 0.000e+00 0.000e+00 0.000e+00 0.000e+00 0.000e+00 0.000e+00 0.000e+00 0.000e+00 0.000e+00 0.000e+00 0.000e+00 0.000e+00 0.000e+00 8.677e-01 5.031e-01 4.376e-01 4.326e-01 4.263e-01 4.192e-01 4.116e-01 4.006e-01 3.883e-01 3.770e-01 3.619e-01 3.479e-01 3.347e-01 3.160e-01 2.966e-01 2.769e-01 2.541e-01 2.290e-01 2.027e-01 1.734e-01 1.410e-01 1.034e-01 6.143e-02 1.667e-02
           </DataArray>
           <DataArray type="Float32" Name="nitrate/rootSegmentOptimalNutrientContent" NumberOfComponents="1" format="ascii">
 2.189e-01 2.189e-01 2.189e-01 2.189e-01 1.433e+01 7.102e+00 8.249e+00 8.805e+00 8.776e+00 8.748e+00 8.721e+00 8.696e+00 8.095e+00 6.921e+00 1.036e+01 1.163e+01 3.503e-02 4.244e-02 1.914e-02 1.678e-02 1.277e-02 9.226e-03 6.110e-03 5.768e-03 2.135e-03 3.858e-02 2.879e-02 3.773e-02 2.862e-02 2.979e-02 2.925e-02 2.663e-02 1.867e-02 1.899e-02 7.859e-01 3.814e-01 3.766e-01 3.725e-01 3.690e-01 3.660e-01 3.631e-01 3.604e-01 3.578e-01 3.554e-01 3.532e-01 3.511e-01 3.492e-01 3.474e-01 3.458e-01 3.444e-01 3.431e-01 3.420e-01 3.410e-01 3.402e-01 3.395e-01 3.390e-01 3.386e-01 3.384e-01
           </DataArray>
           <DataArray type="Float32" Name="parentRootClassID" NumberOfComponents="1" format="ascii">
 -2.000e+00 -2.000e+00 -2.000e+00 -2.000e+00 -3.000e+00 -3.000e+00 -3.000e+00 -3.000e+00 -3.000e+00 -3.000e+00 -3.000e+00 -3.000e+00 -3.000e+00 -3.000e+00 -3.000e+00 -3.000e+00 -4.000e+00 -4.000e+00 -4.000e+00 -4.000e+00 -4.000e+00 -4.000e+00 -4.000e+00 -4.000e+00 -4.000e+00 -4.000e+00 -4.000e+00 -4.000e+00 -4.000e+00 -4.000e+00 -4.000e+00 -4.000e+00 -4.000e+00 -4.000e+00 -3.000e+00 -3.000e+00 -3.000e+00 -3.000e+00 -3.000e+00 -3.000e+00 -3.000e+00 -3.000e+00 -3.000e+00 -3.000e+00 -3.000e+00 -3.000e+00 -3.000e+00 -3.000e+00 -3.000e+00 -3.000e+00 -3.000e+00 -3.000e+00 -3.000e+00 -3.000e+00 -3.000e+00 -3.000e+00 -3.000e+00 -3.000e+00
           </DataArray>
           <DataArray type="Float32" Name="plantID" NumberOfComponents="1" format="ascii">
 6.000e+00 6.000e+00 6.000e+00 6.000e+00 6.000e+00 6.000e+00 6.000e+00 6.000e+00 6.000e+00 6.000e+00 6.000e+00 6.000e+00 6.000e+00 6.000e+00 6.000e+00 6.000e+00 6.000e+00 6.000e+00 6.000e+00 6.000e+00 6.000e+00 6.000e+00 6.000e+00 6.000e+00 6.000e+00 6.000e+00 6.000e+00 6.000e+00 6.000e+00 6.000e+00 6.000e+00 6.000e+00 6.000e+00 6.000e+00 6.000e+00 6.000e+00 6.000e+00 6.000e+00 6.000e+00 6.000e+00 6.000e+00 6.000e+00 6.000e+00 6.000e+00 6.000e+00 6.000e+00 6.000e+00 6.000e+00 6.000e+00 6.000e+00 6.000e+00 6.000e+00 6.000e+00 6.000e+00 6.000e+00 6.000e+00 6.000e+00 6.000e+00
           </DataArray>
           <DataArray type="Float32" Name="plantTypeID" NumberOfComponents="1" format="ascii">
 0.000e+00 0.000e+00 0.000e+00 0.000e+00 0.000e+00 0.000e+00 0.000e+00 0.000e+00 0.000e+00 0.000e+00 0.000e+00 0.000e+00 0.000e+00 0.000e+00 0.000e+00 0.000e+00 0.000e+00 0.000e+00 0.000e+00 0.000e+00 0.000e+00 0.000e+00 0.000e+00 0.000e+00 0.000e+00 0.000e+00 0.000e+00 0.000e+00 0.000e+00 0.000e+00 0.000e+00 0.000e+00 0.000e+00 0.000e+00 0.000e+00 0.000e+00 0.000e+00 0.000e+00 0.000e+00 0.000e+00 0.000e+00 0.000e+00 0.000e+00 0.000e+00 0.000e+00 0.000e+00 0.000e+00 0.000e+00 0.000e+00 0.000e+00 0.000e+00 0.000e+00 0.000e+00 0.000e+00 0.000e+00 0.000e+00 0.000e+00 0.000e+00
           </DataArray>
           <DataArray type="Float32" Name="rootCircumference" NumberOfComponents="1" format="ascii">
 2.136e-01 2.136e-01 2.136e-01 2.136e-01 1.295e+00 1.284e+00 1.281e+00 1.279e+00 1.276e+00 1.274e+00 1.273e+00 1.271e+00 1.269e+00 1.267e+00 1.266e+00 1.263e+00 9.426e-02 9.426e-02 9.425e-02 9.425e-02 9.425e-02 9.425e-02 9.425e-02 9.425e-02 9.425e-02 9.426e-02 9.425e-02 9.425e-02 9.425e-02 9.425e-02 9.425e-02 9.425e-02 9.425e-02 9.425e-02 3.047e-01 3.002e-01 2.983e-01 2.967e-01 2.953e-01 2.941e-01 2.929e-01 2.918e-01 2.908e-01 2.898e-01 2.889e-01 2.881e-01 2.873e-01 2.865e-01 2.859e-01 2.853e-01 2.848e-01 2.843e-01 2.839e-01 2.835e-01 2.832e-01 2.830e-01 2.829e-01 2.828e-01
           </DataArray>
           <DataArray type="Float32" Name="rootClassID" NumberOfComponents="1" format="ascii">
 9.900e+01 9.900e+01 9.900e+01 9.900e+01 -2.000e+00 -2.000e+00 -2.000e+00 -2.000e+00 -2.000e+00 -2.000e+00 -2.000e+00 -2.000e+00 -2.000e+00 -2.000e+00 -2.000e+00 -2.000e+00 9.700e+01 9.700e+01 9.700e+01 9.700e+01 9.700e+01 9.700e+01 9.700e+01 9.700e+01 9.700e+01 9.700e+01 9.700e+01 9.700e+01 9.700e+01 9.700e+01 9.700e+01 9.700e+01 9.700e+01 9.700e+01 -4.000e+00 -4.000e+00 -4.000e+00 -4.000e+00 -4.000e+00 -4.000e+00 -4.000e+00 -4.000e+00 -4.000e+00 -4.000e+00 -4.000e+00 -4.000e+00 -4.000e+00 -4.000e+00 -4.000e+00 -4.000e+00 -4.000e+00 -4.000e+00 -4.000e+00 -4.000e+00 -4.000e+00 -4.000e+00 -4.000e+00 -4.000e+00
           </DataArray>
           <DataArray type="Float32" Name="rootDiameter" NumberOfComponents="1" format="ascii">
 6.800e-02 6.800e-02 6.800e-02 6.800e-02 4.123e-01 4.087e-01 4.078e-01 4.070e-01 4.063e-01 4.057e-01 4.051e-01 4.045e-01 4.039e-01 4.034e-01 4.030e-01 4.021e-01 3.000e-02 3.000e-02 3.000e-02 3.000e-02 3.000e-02 3.000e-02 3.000e-02 3.000e-02 3.000e-02 3.000e-02 3.000e-02 3.000e-02 3.000e-02 3.000e-02 3.000e-02 3.000e-02 3.000e-02 3.000e-02 9.700e-02 9.556e-02 9.496e-02 9.444e-02 9.400e-02 9.361e-02 9.324e-02 9.289e-02 9.256e-02 9.225e-02 9.196e-02 9.169e-02 9.144e-02 9.121e-02 9.100e-02 9.081e-02 9.064e-02 9.049e-02 9.036e-02 9.025e-02 9.016e-02 9.009e-02 9.004e-02 9.001e-02
           </DataArray>
           <DataArray type="Float32" Name="rootLength2Base" NumberOfComponents="1" format="ascii">
 0.000e+00 0.000e+00 0.000e+00 0.000e+00 0.000e+00 9.600e-01 1.440e+00 2.000e+00 2.600e+00 3.200e+00 3.800e+00 4.400e+00 5.000e+00 5.560e+00 6.040e+00 6.760e+00 0.000e+00 0.000e+00 0.000e+00 0.000e+00 0.000e+00 0.000e+00 0.000e+00 0.000e+00 0.000e+00 0.000e+00 0.000e+00 0.000e+00 0.000e+00 0.000e+00 0.000e+00 0.000e+00 0.000e+00 0.000e+00 0.000e+00 9.428e-01 1.414e+00 1.886e+00 2.357e+00 2.828e+00 3.300e+00 3.771e+00 4.243e+00 4.714e+00 5.185e+00 5.657e+00 6.128e+00 6.600e+00 7.071e+00 7.542e+00 8.014e+00 8.485e+00 8.957e+00 9.428e+00 9.899e+00 1.037e+01 1.084e+01 1.131e+01
           </DataArray>
           <DataArray type="Float32" Name="rootPotentialSecondaryGrowth" NumberOfComponents="1" format="ascii">
 6.800e-02 6.800e-02 6.800e-02 6.800e-02 4.123e-01 4.087e-01 4.078e-01 4.070e-01 4.063e-01 4.057e-01 4.051e-01 4.045e-01 4.039e-01 4.034e-01 4.030e-01 4.021e-01 3.000e-02 3.000e-02 3.000e-02 3.000e-02 3.000e-02 3.000e-02 3.000e-02 3.000e-02 3.000e-02 3.000e-02 3.000e-02 3.000e-02 3.000e-02 3.000e-02 3.000e-02 3.000e-02 3.000e-02 3.000e-02 9.700e-02 9.556e-02 9.496e-02 9.444e-02 9.400e-02 9.361e-02 9.324e-02 9.289e-02 9.256e-02 9.225e-02 9.196e-02 9.169e-02 9.144e-02 9.121e-02 9.100e-02 9.081e-02 9.064e-02 9.049e-02 9.036e-02 9.025e-02 9.016e-02 9.009e-02 9.004e-02 9.001e-02
           </DataArray>
           <DataArray type="Float32" Name="rootSegmentAge" NumberOfComponents="1" format="ascii">
 8.330e-01 8.330e-01 8.330e-01 8.330e-01 5.000e+00 4.400e+00 4.200e+00 4.000e+00 3.800e+00 3.600e+00 3.400e+00 3.200e+00 3.000e+00 2.800e+00 2.600e+00 2.200e+00 7.149e-01 6.725e-01 2.906e-01 2.482e-01 2.058e-01 1.633e-01 1.209e-01 7.849e-02 3.606e-02 6.300e-01 5.876e-01 5.452e-01 5.028e-01 4.603e-01 4.179e-01 3.755e-01 3.331e-01 1.972e-01 5.000e+00 4.600e+00 4.400e+00 4.200e+00 4.000e+00 3.800e+00 3.600e+00 3.400e+00 3.200e+00 3.000e+00 2.800e+00 2.600e+00 2.400e+00 2.200e+00 2.000e+00 1.800e+00 1.600e+00 1.400e+00 1.200e+00 1.000e+00 8.000e-01 6.000e-01 4.000e-01 2.000e-01
           </DataArray>
           <DataArray type="Float32" Name="rootSegmentDryWeight" NumberOfComponents="1" format="ascii">
 1.824e-04 1.824e-04 1.824e-04 1.824e-04 1.194e-02 5.919e-03 6.874e-03 7.338e-03 7.313e-03 7.290e-03 7.268e-03 7.247e-03 6.746e-03 5.768e-03 8.631e-03 9.692e-03 2.919e-05 3.537e-05 1.595e-05 1.398e-05 1.064e-05 7.688e-06 5.092e-06 4.806e-06 1.780e-06 3.215e-05 2.399e-05 3.144e-05 2.385e-05 2.483e-05 2.438e-05 2.219e-05 1.556e-05 1.583e-05 6.549e-04 3.178e-04 3.138e-04 3.104e-04 3.075e-04 3.050e-04 3.026e-04 3.003e-04 2.982e-04 2.962e-04 2.943e-04 2.926e-04 2.910e-04 2.895e-04 2.882e-04 2.870e-04 2.859e-04 2.850e-04 2.842e-04 2.835e-04 2.829e-04 2.825e-04 2.821e-04 2.820e-04
           </DataArray>
           <DataArray type="Float32" Name="rootSegmentLength" NumberOfComponents="1" format="ascii">
 5.343e-01 5.343e-01 5.343e-01 5.343e-01 9.600e-01 4.800e-01 5.600e-01 6.000e-01 6.000e-01 6.000e-01 6.000e-01 6.000e-01 5.600e-01 4.800e-01 7.200e-01 8.162e-01 4.392e-01 5.322e-01 2.400e-01 2.105e-01 1.601e-01 1.157e-01 7.663e-02 7.234e-02 2.678e-02 4.838e-01 3.610e-01 4.732e-01 3.589e-01 3.736e-01 3.669e-01 3.339e-01 2.341e-01 2.382e-01 9.428e-01 4.714e-01 4.714e-01 4.714e-01 4.714e-01 4.714e-01 4.714e-01 4.714e-01 4.714e-01 4.714e-01 4.714e-01 4.714e-01 4.714e-01 4.714e-01 4.714e-01 4.714e-01 4.714e-01 4.714e-01 4.714e-01 4.714e-01 4.714e-01 4.714e-01 4.714e-01 4.714e-01
           </DataArray>
           <DataArray type="Float32" Name="rootSegmentLengthDuration" NumberOfComponents="1" format="ascii">
 1.687e-01 1.687e-01 1.687e-01 1.687e-01 4.479e+00 2.064e+00 2.296e+00 2.340e+00 2.220e+00 2.100e+00 1.980e+00 1.860e+00 1.624e+00 1.296e+00 1.736e+00 1.341e+00 1.570e-01 1.829e-01 3.900e-02 3.036e-02 2.036e-02 9.450e-03 4.633e-03 6.456e-03 1.822e-03 1.562e-01 1.061e-01 1.290e-01 9.022e-02 9.005e-02 8.104e-02 6.269e-02 3.898e-02 2.349e-02 4.525e+00 2.121e+00 2.027e+00 1.933e+00 1.838e+00 1.744e+00 1.650e+00 1.556e+00 1.461e+00 1.367e+00 1.273e+00 1.178e+00 1.084e+00 9.899e-01 8.957e-01 8.014e-01 7.071e-01 6.128e-01 5.185e-01 4.243e-01 3.300e-01 2.357e-01 1.414e-01 4.714e-02
           </DataArray>
           <DataArray type="Float32" Name="rootSegmentSurfaceArea" NumberOfComponents="1" format="ascii">
 1.141e-01 1.141e-01 1.141e-01 1.141e-01 1.238e+00 6.163e-01 7.174e-01 7.672e-01 7.659e-01 7.647e-01 7.635e-01 7.624e-01 7.106e-01 6.084e-01 9.115e-01 1.028e+00 4.140e-02 5.017e-02 2.262e-02 1.984e-02 1.509e-02 1.090e-02 7.223e-03 6.818e-03 2.524e-03 4.560e-02 3.403e-02 4.460e-02 3.383e-02 3.521e-02 3.458e-02 3.147e-02 2.206e-02 2.245e-02 2.873e-01 1.415e-01 1.406e-01 1.399e-01 1.392e-01 1.386e-01 1.381e-01 1.376e-01 1.371e-01 1.366e-01 1.362e-01 1.358e-01 1.354e-01 1.351e-01 1.348e-01 1.345e-01 1.342e-01 1.340e-01 1.338e-01 1.337e-01 1.335e-01 1.334e-01 1.333e-01 1.333e-01
           </DataArray>
           <DataArray type="Float32" Name="rootSegmentVolume" NumberOfComponents="1" format="ascii">
 1.941e-03 1.941e-03 1.941e-03 1.941e-03 1.270e-01 6.296e-02 7.313e-02 7.806e-02 7.780e-02 7.755e-02 7.732e-02 7.710e-02 7.176e-02 6.136e-02 9.182e-02 1.031e-01 3.105e-04 3.763e-04 1.696e-04 1.488e-04 1.132e-04 8.179e-05 5.417e-05 5.113e-05 1.893e-05 3.420e-04 2.552e-04 3.345e-04 2.537e-04 2.641e-04 2.593e-04 2.360e-04 1.655e-04 1.684e-04 6.967e-03 3.381e-03 3.339e-03 3.302e-03 3.271e-03 3.244e-03 3.219e-03 3.195e-03 3.172e-03 3.151e-03 3.131e-03 3.113e-03 3.096e-03 3.080e-03 3.066e-03 3.053e-03 3.042e-03 3.032e-03 3.023e-03 3.016e-03 3.010e-03 3.005e-03 3.002e-03 3.000e-03
           </DataArray>
           <DataArray type="Float32" Name="spatialRootDensity" NumberOfComponents="1" format="ascii">
 1.953e+00 1.953e+00 1.953e+00 1.953e+00 1.792e+00 7.353e-01 0.000e+00 0.000e+00 0.000e+00 0.000e+00 0.000e+00 0.000e+00 0.000e+00 0.000e+00 0.000e+00 0.000e+00 1.974e+00 2.002e+00 1.497e+00 1.399e+00 1.284e+00 1.292e+00 1.215e+00 1.103e+00 1.028e+00 2.052e+00 2.166e+00 2.270e+00 2.314e+00 2.317e+00 2.319e+00 2.439e+00 1.953e+00 1.150e+00 1.799e+00 1.956e+00 7.832e-01 4.078e-01 6.958e-02 0.000e+00 0.000e+00 0.000e+00 0.000e+00 0.000e+00 0.000e+00 0.000e+00 0.000e+00 0.000e+00 0.000e+00 0.000e+00 0.000e+00 0.000e+00 0.000e+00 0.000e+00 0.000e+00 0.000e+00 0.000e+00 0.000e+00
           </DataArray>
         </CellData>
      </Piece>
   </UnstructuredGrid>
</VTKFile>
