<?xml version="1.0"?>
<VTKFile type="UnstructuredGrid" version="0.1" byte_order="LittleEndian">
   <UnstructuredGrid>
      <Piece NumberOfPoints="800" NumberOfCells="57">
         <Points>
            <DataArray type="Float32" Name="Position" NumberOfComponents="3" format="ascii">
0.017	-4.979	-0.028
0.014	-4.962	-0.015
0.005	-4.957	0.004
-0.005	-4.964	0.021
-0.013	-4.981	0.030
-0.016	-5.001	0.028
-0.013	-5.018	0.015
-0.005	-5.023	-0.004
0.005	-5.016	-0.021
0.013	-4.999	-0.030
0.484	-5.081	0.209
0.481	-5.065	0.222
0.473	-5.059	0.241
0.463	-5.066	0.258
0.454	-5.083	0.267
0.451	-5.103	0.264
0.454	-5.120	0.252
0.462	-5.126	0.233
0.472	-5.119	0.216
0.480	-5.102	0.207
-0.015	-4.962	-0.013
0.004	-4.957	-0.005
0.021	-4.964	0.005
0.030	-4.981	0.013
0.028	-5.002	0.016
0.015	-5.018	0.013
-0.004	-5.023	0.005
-0.021	-5.016	-0.005
-0.030	-4.999	-0.013
-0.028	-4.979	-0.016
0.209	-5.064	-0.470
0.228	-5.054	-0.470
0.249	-5.058	-0.470
0.263	-5.072	-0.470
0.267	-5.093	-0.470
0.257	-5.112	-0.470
0.238	-5.121	-0.470
0.218	-5.118	-0.470
0.203	-5.103	-0.470
0.200	-5.082	-0.470
-0.013	-5.005	0.028
-0.018	-4.985	0.028
-0.016	-4.967	0.018
-0.009	-4.957	0.001
0.003	-4.960	-0.016
0.013	-4.975	-0.028
0.018	-4.995	-0.028
0.017	-5.014	-0.018
0.009	-5.023	-0.001
-0.002	-5.020	0.017
-0.462	-5.116	-0.237
-0.467	-5.096	-0.236
-0.466	-5.077	-0.247
-0.458	-5.068	-0.264
-0.447	-5.071	-0.281
-0.437	-5.086	-0.293
-0.431	-5.106	-0.293
-0.433	-5.124	-0.283
-0.440	-5.134	-0.266
-0.452	-5.130	-0.248
0.021	-5.016	0.005
0.030	-4.999	0.014
0.027	-4.979	0.017
0.014	-4.962	0.014
-0.005	-4.957	0.006
-0.021	-4.964	-0.005
-0.030	-4.981	-0.014
-0.027	-5.001	-0.017
-0.014	-5.018	-0.014
0.005	-5.023	-0.006
-0.223	-5.134	0.463
-0.215	-5.117	0.472
-0.217	-5.096	0.476
-0.231	-5.080	0.473
-0.249	-5.074	0.464
-0.266	-5.082	0.454
-0.274	-5.099	0.445
-0.271	-5.119	0.441
-0.258	-5.135	0.444
-0.240	-5.141	0.452
-0.146	-5.000	0.146
-0.032	-5.000	0.204
0.094	-5.000	0.184
0.184	-5.000	0.094
0.204	-5.000	-0.032
0.146	-5.000	-0.146
0.032	-5.000	-0.204
-0.094	-5.000	-0.184
-0.184	-5.000	-0.094
-0.204	-5.000	0.032
-0.144	-4.040	0.145
-0.031	-4.040	0.202
0.093	-4.040	0.182
0.183	-4.040	0.093
0.202	-4.040	-0.032
0.145	-4.040	-0.145
0.032	-4.040	-0.202
-0.092	-4.040	-0.182
-0.182	-4.040	-0.093
-0.201	-4.040	0.032
-0.146	-3.560	0.143
-0.034	-3.560	0.200
0.091	-3.559	0.181
0.180	-3.559	0.092
0.200	-3.560	-0.033
0.142	-3.560	-0.145
0.030	-3.560	-0.202
-0.094	-3.561	-0.183
-0.183	-3.561	-0.093
-0.203	-3.560	0.031
-0.146	-3.000	0.141
-0.034	-2.999	0.199
0.090	-2.999	0.179
0.179	-3.000	0.090
0.199	-3.000	-0.034
0.142	-3.001	-0.146
0.030	-3.001	-0.203
-0.094	-3.001	-0.184
-0.183	-3.000	-0.095
-0.203	-3.000	0.029
-0.146	-2.399	0.138
-0.035	-2.399	0.195
0.089	-2.399	0.176
0.178	-2.400	0.087
0.198	-2.400	-0.037
0.142	-2.401	-0.149
0.030	-2.401	-0.206
-0.094	-2.401	-0.187
-0.183	-2.400	-0.098
-0.203	-2.400	0.026
-0.145	-1.799	0.134
-0.034	-1.799	0.192
0.090	-1.800	0.172
0.179	-1.800	0.084
0.199	-1.801	-0.040
0.142	-1.801	-0.152
0.031	-1.801	-0.209
-0.093	-1.800	-0.190
-0.182	-1.800	-0.101
-0.202	-1.799	0.022
-0.143	-1.199	0.134
-0.031	-1.200	0.191
0.092	-1.200	0.171
0.181	-1.201	0.083
0.201	-1.201	-0.041
0.144	-1.201	-0.152
0.033	-1.200	-0.209
-0.091	-1.200	-0.190
-0.180	-1.199	-0.102
-0.199	-1.199	0.022
-0.141	-0.600	0.134
-0.029	-0.600	0.190
0.094	-0.601	0.171
0.183	-0.601	0.083
0.202	-0.600	-0.041
0.146	-0.600	-0.152
0.034	-0.600	-0.209
-0.089	-0.600	-0.190
-0.178	-0.600	-0.101
-0.197	-0.600	0.022
-0.139	-0.000	0.135
-0.028	-0.001	0.192
0.095	-0.001	0.172
0.183	-0.001	0.084
0.203	-0.001	-0.039
0.146	-0.000	-0.151
0.035	0.000	-0.207
-0.088	0.001	-0.188
-0.177	0.001	-0.099
-0.196	0.000	0.024
-0.137	0.560	0.137
-0.026	0.560	0.193
0.097	0.560	0.174
0.185	0.560	0.086
0.205	0.560	-0.037
0.149	0.560	-0.148
0.038	0.560	-0.205
-0.086	0.560	-0.186
-0.174	0.560	-0.098
-0.193	0.560	0.025
-0.137	1.041	0.134
-0.027	1.041	0.191
0.096	1.041	0.171
0.185	1.040	0.084
0.205	1.040	-0.039
0.148	1.039	-0.150
0.038	1.039	-0.207
-0.086	1.039	-0.188
-0.174	1.040	-0.100
-0.194	1.040	0.023
-0.136	1.761	0.130
-0.025	1.761	0.187
0.097	1.760	0.168
0.186	1.760	0.080
0.205	1.760	-0.043
0.149	1.759	-0.154
0.039	1.759	-0.210
-0.084	1.759	-0.191
-0.172	1.760	-0.103
-0.192	1.760	0.019
-0.134	2.576	0.128
-0.024	2.576	0.185
0.098	2.576	0.165
0.186	2.576	0.078
0.205	2.576	-0.044
0.149	2.576	-0.154
0.039	2.576	-0.210
-0.083	2.576	-0.191
-0.170	2.576	-0.104
-0.190	2.576	0.018
-0.013	-5.087	0.010
-0.004	-5.085	0.008
0.005	-5.089	0.009
0.009	-5.096	0.012
0.008	-5.105	0.015
0.002	-5.111	0.019
-0.007	-5.112	0.020
-0.015	-5.109	0.020
-0.020	-5.101	0.017
-0.019	-5.093	0.013
-0.064	-5.306	-0.495
-0.055	-5.305	-0.497
-0.046	-5.308	-0.496
-0.041	-5.316	-0.493
-0.042	-5.324	-0.489
-0.048	-5.330	-0.486
-0.057	-5.332	-0.484
-0.066	-5.328	-0.485
-0.071	-5.321	-0.488
-0.070	-5.312	-0.492
-0.013	-5.205	0.048
-0.018	-5.198	0.049
-0.020	-5.189	0.046
-0.018	-5.184	0.039
-0.014	-5.183	0.031
-0.008	-5.187	0.025
-0.003	-5.195	0.023
-0.001	-5.203	0.027
-0.003	-5.209	0.034
-0.007	-5.210	0.042
-0.477	-5.438	-0.232
-0.482	-5.430	-0.230
-0.484	-5.422	-0.234
-0.483	-5.416	-0.241
-0.478	-5.415	-0.249
-0.472	-5.419	-0.255
-0.468	-5.427	-0.256
-0.466	-5.435	-0.253
-0.467	-5.441	-0.246
-0.471	-5.442	-0.238
-0.014	-6.070	0.189
-0.012	-6.066	0.197
-0.011	-6.068	0.206
-0.011	-6.074	0.213
-0.012	-6.083	0.214
-0.014	-6.091	0.210
-0.016	-6.095	0.202
-0.017	-6.094	0.193
-0.017	-6.088	0.187
-0.015	-6.079	0.185
0.215	-6.105	0.161
0.217	-6.101	0.169
0.218	-6.103	0.178
0.218	-6.109	0.184
0.217	-6.118	0.186
0.215	-6.126	0.182
0.213	-6.130	0.174
0.212	-6.129	0.165
0.212	-6.123	0.158
0.214	-6.114	0.157
0.000	-6.187	0.210
0.003	-6.178	0.212
-0.000	-6.170	0.216
-0.008	-6.166	0.219
-0.017	-6.167	0.220
-0.024	-6.172	0.220
-0.026	-6.181	0.218
-0.023	-6.189	0.215
-0.016	-6.194	0.212
-0.007	-6.193	0.210
0.045	-6.246	0.401
0.047	-6.237	0.403
0.044	-6.229	0.406
0.037	-6.225	0.409
0.028	-6.226	0.411
0.021	-6.232	0.411
0.018	-6.240	0.409
0.021	-6.249	0.406
0.029	-6.253	0.402
0.038	-6.252	0.401
-0.004	-6.272	0.218
-0.005	-6.265	0.225
-0.008	-6.264	0.233
-0.012	-6.267	0.241
-0.015	-6.275	0.244
-0.016	-6.285	0.243
-0.014	-6.291	0.237
-0.011	-6.293	0.228
-0.007	-6.289	0.221
-0.004	-6.281	0.217
0.134	-6.313	0.294
0.141	-6.307	0.291
0.143	-6.299	0.287
0.139	-6.292	0.283
0.131	-6.288	0.281
0.122	-6.288	0.282
0.115	-6.294	0.284
0.113	-6.302	0.288
0.117	-6.310	0.292
0.125	-6.314	0.294
-0.004	-6.389	0.255
-0.007	-6.382	0.260
-0.009	-6.373	0.261
-0.012	-6.366	0.255
-0.012	-6.363	0.247
-0.011	-6.365	0.238
-0.008	-6.372	0.232
-0.005	-6.381	0.232
-0.003	-6.388	0.237
-0.003	-6.391	0.246
-0.110	-6.424	0.249
-0.112	-6.417	0.255
-0.115	-6.408	0.255
-0.117	-6.401	0.250
-0.118	-6.398	0.241
-0.117	-6.400	0.232
-0.114	-6.407	0.226
-0.111	-6.416	0.226
-0.109	-6.423	0.231
-0.108	-6.426	0.240
0.001	-6.466	0.255
0.002	-6.461	0.262
0.001	-6.461	0.271
-0.001	-6.466	0.279
-0.004	-6.475	0.281
-0.005	-6.484	0.278
-0.006	-6.489	0.271
-0.005	-6.489	0.261
-0.003	-6.483	0.254
-0.000	-6.475	0.251
0.099	-6.489	0.265
0.100	-6.483	0.273
0.099	-6.483	0.282
0.097	-6.489	0.289
0.094	-6.497	0.292
0.093	-6.506	0.289
0.092	-6.511	0.281
0.093	-6.511	0.272
0.095	-6.506	0.265
0.098	-6.497	0.262
0.011	-6.585	0.293
0.013	-6.577	0.298
0.012	-6.568	0.299
0.008	-6.561	0.296
0.002	-6.558	0.289
-0.003	-6.560	0.282
-0.006	-6.568	0.277
-0.005	-6.577	0.276
-0.000	-6.584	0.279
0.006	-6.587	0.286
-0.034	-6.594	0.329
-0.031	-6.587	0.334
-0.032	-6.577	0.335
-0.037	-6.570	0.332
-0.042	-6.567	0.325
-0.048	-6.569	0.318
-0.050	-6.577	0.313
-0.049	-6.586	0.312
-0.045	-6.593	0.315
-0.039	-6.596	0.322
0.010	-6.659	0.298
0.013	-6.656	0.306
0.015	-6.657	0.315
0.015	-6.664	0.321
0.013	-6.673	0.323
0.010	-6.681	0.319
0.007	-6.685	0.311
0.005	-6.683	0.302
0.005	-6.676	0.296
0.007	-6.667	0.294
0.035	-6.666	0.291
0.038	-6.662	0.299
0.040	-6.664	0.308
0.040	-6.670	0.314
0.039	-6.679	0.316
0.035	-6.687	0.312
0.032	-6.691	0.304
0.030	-6.689	0.295
0.030	-6.683	0.289
0.032	-6.674	0.287
-0.025	-5.294	0.069
-0.025	-5.286	0.066
-0.021	-5.280	0.060
-0.015	-5.280	0.053
-0.009	-5.284	0.048
-0.005	-5.293	0.047
-0.005	-5.302	0.050
-0.009	-5.307	0.057
-0.015	-5.308	0.063
-0.021	-5.303	0.068
-0.296	-5.391	-0.190
-0.296	-5.382	-0.193
-0.293	-5.377	-0.199
-0.286	-5.376	-0.206
-0.280	-5.381	-0.211
-0.276	-5.390	-0.211
-0.276	-5.398	-0.208
-0.280	-5.404	-0.202
-0.286	-5.404	-0.195
-0.293	-5.399	-0.190
-0.008	-5.404	0.082
-0.005	-5.397	0.087
-0.006	-5.387	0.088
-0.011	-5.380	0.085
-0.017	-5.377	0.080
-0.023	-5.380	0.073
-0.026	-5.387	0.068
-0.025	-5.396	0.067
-0.021	-5.404	0.070
-0.014	-5.407	0.076
-0.356	-5.486	0.421
-0.352	-5.478	0.426
-0.353	-5.469	0.427
-0.358	-5.462	0.424
-0.365	-5.459	0.418
-0.370	-5.461	0.412
-0.373	-5.469	0.407
-0.372	-5.478	0.405
-0.368	-5.485	0.408
-0.361	-5.488	0.414
-0.004	-5.501	0.098
0.000	-5.494	0.101
-0.001	-5.484	0.102
-0.007	-5.477	0.101
-0.015	-5.475	0.098
-0.023	-5.478	0.095
-0.028	-5.486	0.092
-0.027	-5.495	0.091
-0.021	-5.502	0.092
-0.012	-5.505	0.095
-0.132	-5.553	0.450
-0.128	-5.545	0.453
-0.129	-5.536	0.454
-0.135	-5.529	0.453
-0.144	-5.527	0.450
-0.151	-5.530	0.447
-0.156	-5.538	0.444
-0.155	-5.547	0.443
-0.149	-5.554	0.444
-0.140	-5.556	0.447
-0.015	-5.578	0.104
-0.010	-5.574	0.111
-0.008	-5.576	0.120
-0.008	-5.583	0.126
-0.010	-5.591	0.128
-0.014	-5.599	0.125
-0.019	-5.602	0.117
-0.021	-5.600	0.109
-0.022	-5.594	0.102
-0.019	-5.585	0.100
0.283	-5.691	-0.016
0.287	-5.688	-0.008
0.290	-5.690	0.000
0.290	-5.696	0.007
0.288	-5.705	0.009
0.283	-5.712	0.005
0.279	-5.716	-0.002
0.276	-5.714	-0.011
0.276	-5.707	-0.017
0.279	-5.698	-0.019
-0.013	-5.698	0.141
-0.018	-5.692	0.146
-0.022	-5.684	0.145
-0.023	-5.677	0.140
-0.022	-5.673	0.131
-0.018	-5.675	0.123
-0.013	-5.681	0.118
-0.009	-5.690	0.119
-0.007	-5.697	0.124
-0.009	-5.700	0.133
-0.327	-5.858	0.028
-0.332	-5.852	0.032
-0.336	-5.843	0.032
-0.338	-5.836	0.026
-0.337	-5.833	0.018
-0.333	-5.834	0.010
-0.328	-5.841	0.005
-0.324	-5.849	0.005
-0.322	-5.856	0.011
-0.323	-5.860	0.019
[...]
         <CellData>
           <DataArray type="Float32" Name="combinedRootClassID" NumberOfComponents="1" format="ascii">
 -5.000e+00 -5.000e+00 -5.000e+00 -5.000e+00 -2.000e+00 -2.000e+00 -2.000e+00 -2.000e+00 -2.000e+00 -2.000e+00 -2.000e+00 -2.000e+00 -2.000e+00 -2.000e+00 -2.000e+00 -2.000e+00 -7.000e+00 -7.000e+00 -7.000e+00 -7.000e+00 -7.000e+00 -7.000e+00 -7.000e+00 -7.000e+00 -7.000e+00 -7.000e+00 -7.000e+00 -7.000e+00 -7.000e+00 -7.000e+00 -7.000e+00 -7.000e+00 -7.000e+00 -4.000e+00 -4.000e+00 -4.000e+00 -4.000e+00 -4.000e+00 -4.000e+00 -4.000e+00 -4.000e+00 -4.000e+00 -4.000e+00 -4.000e+00 -4.000e+00 -4.000e+00 -4.000e+00 -4.000e+00 -4.000e+00 -4.000e+00 -4.000e+00 -4.000e+00 -4.000e+00 -4.000e+00 -4.000e+00 -4.000e+00 -4.000e+00
           </DataArray>
           <DataArray type="Float32" Name="nitrate/minimalNutrientConcentration" NumberOfComponents="1" format="ascii">
 6.000e+02 6.000e+02 6.000e+02 6.000e+02 6.000e+02 6.000e+02 6.000e+02 6.000e+02 6.000e+02 6.000e+02 6.000e+02 6.000e+02 6.000e+02 6.000e+02 6.000e+02 6.000e+02 6.000e+02 6.000e+02 6.000e+02 6.000e+02 6.000e+02 6.000e+02 6.000e+02 6.000e+02 6.000e+02 6.000e+02 6.000e+02 6.000e+02 6.000e+02 6.000e+02 6.000e+02 6.000e+02 6.000e+02 6.000e+02 6.000e+02 6.000e+02 6.000e+02 6.000e+02 6.000e+02 6.000e+02 6.000e+02 6.000e+02 6.000e+02 6.000e+02 6.000e+02 6.000e+02 6.000e+02 6.000e+02 6.000e+02 6.000e+02 6.000e+02 6.000e+02 6.000e+02 6.000e+02 6.000e+02 6.000e+02 6.000e+02
           </DataArray>
           <DataArray type="Float32" Name="nitrate/optimalNutrientConcentration" NumberOfComponents="1" format="ascii">
 1.200e+03 1.200e+03 1.200e+03 1.200e+03 1.200e+03 1.200e+03 1.200e+03 1.200e+03 1.200e+03 1.200e+03 1.200e+03 1.200e+03 1.200e+03 1.200e+03 1.200e+03 1.200e+03 1.200e+03 1.200e+03 1.200e+03 1.200e+03 1.200e+03 1.200e+03 1.200e+03 1.200e+03 1.200e+03 1.200e+03 1.200e+03 1.200e+03 1.200e+03 1.200e+03 1.200e+03 1.200e+03 1.200e+03 1.200e+03 1.200e+03 1.200e+03 1.200e+03 1.200e+03 1.200e+03 1.200e+03 1.200e+03 1.200e+03 1.200e+03 1.200e+03 1.200e+03 1.200e+03 1.200e+03 1.200e+03 1.200e+03 1.200e+03 1.200e+03 1.200e+03 1.200e+03 1.200e+03 1.200e+03 1.200e+03 1.200e+03
           </DataArray>
           <DataArray type="Float32" Name="nitrate/radiusDepletionZone" NumberOfComponents="1" format="ascii">
 3.400e-02 3.400e-02 3.400e-02 3.400e-02 2.270e+00 2.212e+00 1.337e+01 1.069e+01 8.372e+00 7.175e+00 5.874e+00 5.221e+00 4.698e+00 2.013e-01 2.011e-01 2.007e-01 1.500e-02 1.500e-02 1.500e-02 1.500e-02 1.500e-02 1.500e-02 1.500e-02 1.500e-02 1.500e-02 1.500e-02 1.500e-02 1.500e-02 1.500e-02 1.500e-02 1.500e-02 1.500e-02 1.500e-02 1.855e+00 2.229e+01 1.437e+01 9.971e+00 7.976e+00 6.108e+00 5.235e+00 4.177e+00 3.712e+00 3.341e+00 2.743e+00 2.515e+00 2.073e+00 1.925e+00 1.581e+00 1.482e+00 1.205e+00 1.138e+00 9.083e-01 8.628e-01 6.681e-01 4.910e-01 4.697e-01 3.157e-01
           </DataArray>
           <DataArray type="Float32" Name="nitrate/rootSegmentMinimalNutrientContent" NumberOfComponents="1" format="ascii">
 1.094e-01 1.094e-01 1.094e-01 1.094e-01 7.165e+00 3.551e+00 4.125e+00 4.403e+00 4.388e+00 4.374e+00 4.361e+00 4.348e+00 4.047e+00 3.461e+00 5.179e+00 5.815e+00 2.221e-02 2.378e-02 9.302e-03 8.215e-03 6.051e-03 4.442e-03 4.027e-03 2.322e-03 1.078e-03 1.569e-02 1.979e-02 1.515e-02 1.362e-02 1.486e-02 1.342e-02 1.042e-02 1.113e-02 3.929e-01 1.907e-01 1.883e-01 1.862e-01 1.845e-01 1.830e-01 1.815e-01 1.802e-01 1.789e-01 1.777e-01 1.766e-01 1.756e-01 1.746e-01 1.737e-01 1.729e-01 1.722e-01 1.716e-01 1.710e-01 1.705e-01 1.701e-01 1.697e-01 1.695e-01 1.693e-01 1.692e-01
           </DataArray>
           <DataArray type="Float32" Name="nitrate/rootSegmentNutrientUptake" NumberOfComponents="1" format="ascii">
 0.000e+00 0.000e+00 0.000e+00 0.000e+00 3.434e+00 3.405e+00 1.977e+00 2.074e+00 2.026e+00 1.972e+00 1.919e+00 1.860e+00 1.681e+00 0.000e+00 0.000e+00 0.000e+00 0.000e+00 0.000e+00 0.000e+00 0.000e+00 0.000e+00 0.000e+00 0.000e+00 0.000e+00 0.000e+00 0.000e+00 0.000e+00 0.000e+00 0.000e+00 0.000e+00 0.000e+00 0.000e+00 0.000e+00 2.099e+00 8.875e-01 1.007e+00 9.745e-01 9.378e-01 8.973e-01 8.541e-01 8.088e-01 7.622e-01 7.147e-01 6.665e-01 6.178e-01 5.688e-01 5.195e-01 4.700e-01 4.204e-01 3.706e-01 3.207e-01 2.707e-01 2.206e-01 1.704e-01 1.202e-01 6.992e-02 1.996e-02
           </DataArray>
           <DataArray type="Float32" Name="nitrate/rootSegmentOptimalNutrientContent" NumberOfComponents="1" format="ascii">
 2.189e-01 2.189e-01 2.189e-01 2.189e-01 1.433e+01 7.102e+00 8.249e+00 8.805e+00 8.776e+00 8.748e+00 8.721e+00 8.696e+00 8.095e+00 6.921e+00 1.036e+01 1.163e+01 4.442e-02 4.756e-02 1.860e-02 1.643e-02 1.210e-02 8.884e-03 8.054e-03 4.644e-03 2.156e-03 3.139e-02 3.958e-02 3.031e-02 2.723e-02 2.972e-02 2.685e-02 2.085e-02 2.227e-02 7.859e-01 3.814e-01 3.766e-01 3.725e-01 3.690e-01 3.660e-01 3.631e-01 3.604e-01 3.578e-01 3.554e-01 3.532e-01 3.511e-01 3.492e-01 3.474e-01 3.458e-01 3.444e-01 3.431e-01 3.420e-01 3.410e-01 3.402e-01 3.395e-01 3.390e-01 3.386e-01 3.384e-01
           </DataArray>
           <DataArray type="Float32" Name="parentRootClassID" NumberOfComponents="1" format="ascii">
 -2.000e+00 -2.000e+00 -2.000e+00 -2.000e+00 -3.000e+00 -3.000e+00 -3.000e+00 -3.000e+00 -3.000e+00 -3.000e+00 -3.000e+00 -3.000e+00 -3.000e+00 -3.000e+00 -3.000e+00 -3.000e+00 -4.000e+00 -4.000e+00 -4.000e+00 -4.000e+00 -4.000e+00 -4.000e+00 -4.000e+00 -4.000e+00 -4.000e+00 -4.000e+00 -4.000e+00 -4.000e+00 -4.000e+00 -4.000e+00 -4.000e+00 -4.000e+00 -4.000e+00 -3.000e+00 -3.000e+00 -3.000e+00 -3.000e+00 -3.000e+00 -3.000e+00 -3.000e+00 -3.000e+00 -3.000e+00 -3.000e+00 -3.000e+00 -3.000e+00 -3.000e+00 -3.000e+00 -3.000e+00 -3.000e+00 -3.000e+00 -3.000e+00 -3.000e+00 -3.000e+00 -3.000e+00 -3.000e+00 -3.000e+00 -3.000e+00
           </DataArray>
           <DataArray type="Float32" Name="plantID" NumberOfComponents="1" format="ascii">
 6.000e+00 6.000e+00 6.000e+00 6.000e+00 6.000e+00 6.000e+00 6.000e+00 6.000e+00 6.000e+00 6.000e+00 6.000e+00 6.000e+00 6.000e+00 6.000e+00 6.000e+00 6.000e+00 6.000e+00 6.000e+00 6.000e+00 6.000e+00 6.000e+00 6.000e+00 6.000e+00 6.000e+00 6.000e+00 6.000e+00 6.000e+00 6.000e+00 6.000e+00 6.000e+00 6.000e+00 6.000e+00 6.000e+00 6.000e+00 6.000e+00 6.000e+00 6.000e+00 6.000e+00 6.000e+00 6.000e+00 6.000e+00 6.000e+00 6.000e+00 6.000e+00 6.000e+00 6.000e+00 6.000e+00 6.000e+00 6.000e+00 6.000e+00 6.000e+00 6.000e+00 6.000e+00 6.000e+00 6.000e+00 6.000e+00 6.000e+00
           </DataArray>
           <DataArray type="Float32" Name="plantTypeID" NumberOfComponents="1" format="ascii">
 0.000e+00 0.000e+00 0.000e+00 0.000e+00 0.000e+00 0.000e+00 0.000e+00 0.000e+00 0.000e+00 0.000e+00 0.000e+00 0.000e+00 0.000e+00 0.000e+00 0.000e+00 0.000e+00 0.000e+00 0.000e+00 0.000e+00 0.000e+00 0.000e+00 0.000e+00 0.000e+00 0.000e+00 0.000e+00 0.000e+00 0.000e+00 0.000e+00 0.000e+00 0.000e+00 0.000e+00 0.000e+00 0.000e+00 0.000e+00 0.000e+00 0.000e+00 0.000e+00 0.000e+00 0.000e+00 0.000e+00 0.000e+00 0.000e+00 0.000e+00 0.000e+00 0.000e+00 0.000e+00 0.000e+00 0.000e+00 0.000e+00 0.000e+00 0.000e+00 0.000e+00 0.000e+00 0.000e+00 0.000e+00 0.000e+00 0.000e+00
           </DataArray>
           <DataArray type="Float32" Name="rootCircumference" NumberOfComponents="1" format="ascii">
 2.136e-01 2.136e-01 2.136e-01 2.136e-01 1.295e+00 1.284e+00 1.281e+00 1.279e+00 1.276e+00 1.274e+00 1.273e+00 1.271e+00 1.269e+00 1.267e+00 1.266e+00 1.263e+00 9.426e-02 9.426e-02 9.425e-02 9.425e-02 9.425e-02 9.425e-02 9.425e-02 9.425e-02 9.425e-02 9.426e-02 9.425e-02 9.425e-02 9.425e-02 9.425e-02 9.425e-02 9.425e-02 9.425e-02 3.047e-01 3.002e-01 2.983e-01 2.967e-01 2.953e-01 2.941e-01 2.929e-01 2.918e-01 2.908e-01 2.898e-01 2.889e-01 2.881e-01 2.873e-01 2.865e-01 2.859e-01 2.853e-01 2.848e-01 2.843e-01 2.839e-01 2.835e-01 2.832e-01 2.830e-01 2.829e-01 2.828e-01
           </DataArray>
           <DataArray type="Float32" Name="rootClassID" NumberOfComponents="1" format="ascii">
 9.900e+01 9.900e+01 9.900e+01 9.900e+01 -2.000e+00 -2.000e+00 -2.000e+00 -2.000e+00 -2.000e+00 -2.000e+00 -2.000e+00 -2.000e+00 -2.000e+00 -2.000e+00 -2.000e+00 -2.000e+00 9.700e+01 9.700e+01 9.700e+01 9.700e+01 9.700e+01 9.700e+01 9.700e+01 9.700e+01 9.700e+01 9.700e+01 9.700e+01 9.700e+01 9.700e+01 9.700e+01 9.700e+01 9.700e+01 9.700e+01 -4.000e+00 -4.000e+00 -4.000e+00 -4.000e+00 -4.000e+00 -4.000e+00 -4.000e+00 -4.000e+00 -4.000e+00 -4.000e+00 -4.000e+00 -4.000e+00 -4.000e+00 -4.000e+00 -4.000e+00 -4.000e+00 -4.000e+00 -4.000e+00 -4.000e+00 -4.000e+00 -4.000e+00 -4.000e+00 -4.000e+00 -4.000e+00
           </DataArray>
           <DataArray type="Float32" Name="rootDiameter" NumberOfComponents="1" format="ascii">
 6.800e-02 6.800e-02 6.800e-02 6.800e-02 4.123e-01 4.087e-01 4.078e-01 4.070e-01 4.063e-01 4.057e-01 4.051e-01 4.045e-01 4.039e-01 4.034e-01 4.030e-01 4.021e-01 3.000e-02 3.000e-02 3.000e-02 3.000e-02 3.000e-02 3.000e-02 3.000e-02 3.000e-02 3.000e-02 3.000e-02 3.000e-02 3.000e-02 3.000e-02 3.000e-02 3.000e-02 3.000e-02 3.000e-02 9.700e-02 9.556e-02 9.496e-02 9.444e-02 9.400e-02 9.361e-02 9.324e-02 9.289e-02 9.256e-02 9.225e-02 9.196e-02 9.169e-02 9.144e-02 9.121e-02 9.100e-02 9.081e-02 9.064e-02 9.049e-02 9.036e-02 9.025e-02 9.016e-02 9.009e-02 9.004e-02 9.001e-02
           </DataArray>
           <DataArray type="Float32" Name="rootLength2Base" NumberOfComponents="1" format="ascii">
 0.000e+00 0.000e+00 0.000e+00 0.000e+00 0.000e+00 9.600e-01 1.440e+00 2.000e+00 2.600e+00 3.200e+00 3.800e+00 4.400e+00 5.000e+00 5.560e+00 6.040e+00 6.760e+00 0.000e+00 0.000e+00 0.000e+00 0.000e+00 0.000e+00 0.000e+00 0.000e+00 0.000e+00 0.000e+00 0.000e+00 0.000e+00 0.000e+00 0.000e+00 0.000e+00 0.000e+00 0.000e+00 0.000e+00 0.000e+00 9.428e-01 1.414e+00 1.886e+00 2.357e+00 2.828e+00 3.300e+00 3.771e+00 4.243e+00 4.714e+00 5.185e+00 5.657e+00 6.128e+00 6.600e+00 7.071e+00 7.542e+00 8.014e+00 8.485e+00 8.957e+00 9.428e+00 9.899e+00 1.037e+01 1.084e+01 1.131e+01
           </DataArray>
           <DataArray type="Float32" Name="rootPotentialSecondaryGrowth" NumberOfComponents="1" format="ascii">
 6.800e-02 6.800e-02 6.800e-02 6.800e-02 4.123e-01 4.087e-01 4.078e-01 4.070e-01 4.063e-01 4.057e-01 4.051e-01 4.045e-01 4.039e-01 4.034e-01 4.030e-01 4.021e-01 3.000e-02 3.000e-02 3.000e-02 3.000e-02 3.000e-02 3.000e-02 3.000e-02 3.000e-02 3.000e-02 3.000e-02 3.000e-02 3.000e-02 3.000e-02 3.000e-02 3.000e-02 3.000e-02 3.000e-02 9.700e-02 9.556e-02 9.496e-02 9.444e-02 9.400e-02 9.361e-02 9.324e-02 9.289e-02 9.256e-02 9.225e-02 9.196e-02 9.169e-02 9.144e-02 9.121e-02 9.100e-02 9.081e-02 9.064e-02 9.049e-02 9.036e-02 9.025e-02 9.016e-02 9.009e-02 9.004e-02 9.001e-02
           </DataArray>
           <DataArray type="Float32" Name="rootSegmentAge" NumberOfComponents="1" format="ascii">
 8.330e-01 8.330e-01 8.330e-01 8.330e-01 5.000e+00 4.400e+00 4.200e+00 4.000e+00 3.800e+00 3.600e+00 3.400e+00 3.200e+00 3.000e+00 2.800e+00 2.600e+00 2.200e+00 7.149e-01 6.725e-01 2.906e-01 2.482e-01 2.058e-01 1.633e-01 1.209e-01 7.849e-02 3.606e-02 6.300e-01 5.876e-01 5.452e-01 5.028e-01 4.603e-01 4.179e-01 3.755e-01 3.331e-01 5.000e+00 4.600e+00 4.400e+00 4.200e+00 4.000e+00 3.800e+00 3.600e+00 3.400e+00 3.200e+00 3.000e+00 2.800e+00 2.600e+00 2.400e+00 2.200e+00 2.000e+00 1.800e+00 1.600e+00 1.400e+00 1.200e+00 1.000e+00 8.000e-01 6.000e-01 4.000e-01 2.000e-01
           </DataArray>
           <DataArray type="Float32" Name="rootSegmentDryWeight" NumberOfComponents="1" format="ascii">
 1.824e-04 1.824e-04 1.824e-04 1.824e-04 1.194e-02 5.919e-03 6.874e-03 7.338e-03 7.313e-03 7.290e-03 7.268e-03 7.247e-03 6.746e-03 5.768e-03 8.631e-03 9.692e-03 3.702e-05 3.963e-05 1.550e-05 1.369e-05 1.008e-05 7.403e-06 6.712e-06 3.870e-06 1.796e-06 2.616e-05 3.298e-05 2.526e-05 2.269e-05 2.476e-05 2.237e-05 1.737e-05 1.856e-05 6.549e-04 3.178e-04 3.138e-04 3.104e-04 3.075e-04 3.050e-04 3.026e-04 3.003e-04 2.982e-04 2.962e-04 2.943e-04 2.926e-04 2.910e-04 2.895e-04 2.882e-04 2.870e-04 2.859e-04 2.850e-04 2.842e-04 2.835e-04 2.829e-04 2.825e-04 2.821e-04 2.820e-04
           </DataArray>
           <DataArray type="Float32" Name="rootSegmentLength" NumberOfComponents="1" format="ascii">
 5.343e-01 5.343e-01 5.343e-01 5.343e-01 9.600e-01 4.800e-01 5.600e-01 6.000e-01 6.000e-01 6.000e-01 6.000e-01 6.000e-01 5.600e-01 4.800e-01 7.200e-01 8.162e-01 5.570e-01 5.964e-01 2.333e-01 2.061e-01 1.518e-01 1.114e-01 1.010e-01 5.825e-02 2.704e-02 3.936e-01 4.963e-01 3.801e-01 3.415e-01 3.727e-01 3.367e-01 2.614e-01 2.793e-01 9.428e-01 4.714e-01 4.714e-01 4.714e-01 4.714e-01 4.714e-01 4.714e-01 4.714e-01 4.714e-01 4.714e-01 4.714e-01 4.714e-01 4.714e-01 4.714e-01 4.714e-01 4.714e-01 4.714e-01 4.714e-01 4.714e-01 4.714e-01 4.714e-01 4.714e-01 4.714e-01 4.714e-01
           </DataArray>
           <DataArray type="Float32" Name="rootSegmentLengthDuration" NumberOfComponents="1" format="ascii">
 1.687e-01 1.687e-01 1.687e-01 1.687e-01 4.479e+00 2.064e+00 2.296e+00 2.340e+00 2.220e+00 2.100e+00 1.980e+00 1.860e+00 1.624e+00 1.296e+00 1.736e+00 1.341e+00 1.991e-01 2.050e-01 3.792e-02 2.972e-02 1.930e-02 9.100e-03 6.107e-03 5.198e-03 1.839e-03 1.271e-01 1.458e-01 1.036e-01 8.584e-02 8.982e-02 7.438e-02 4.908e-02 4.651e-02 4.525e+00 2.121e+00 2.027e+00 1.933e+00 1.838e+00 1.744e+00 1.650e+00 1.556e+00 1.461e+00 1.367e+00 1.273e+00 1.178e+00 1.084e+00 9.899e-01 8.957e-01 8.014e-01 7.071e-01 6.128e-01 5.185e-01 4.243e-01 3.300e-01 2.357e-01 1.414e-01 4.714e-02
           </DataArray>
           <DataArray type="Float32" Name="rootSegmentSurfaceArea" NumberOfComponents="1" format="ascii">
 1.141e-01 1.141e-01 1.141e-01 1.141e-01 1.238e+00 6.163e-01 7.174e-01 7.672e-01 7.659e-01 7.647e-01 7.635e-01 7.624e-01 7.106e-01 6.084e-01 9.115e-01 1.028e+00 5.250e-02 5.621e-02 2.199e-02 1.942e-02 1.430e-02 1.050e-02 9.520e-03 5.490e-03 2.548e-03 3.710e-02 4.678e-02 3.582e-02 3.219e-02 3.512e-02 3.173e-02 2.464e-02 2.632e-02 2.873e-01 1.415e-01 1.406e-01 1.399e-01 1.392e-01 1.386e-01 1.381e-01 1.376e-01 1.371e-01 1.366e-01 1.362e-01 1.358e-01 1.354e-01 1.351e-01 1.348e-01 1.345e-01 1.342e-01 1.340e-01 1.338e-01 1.337e-01 1.335e-01 1.334e-01 1.333e-01 1.333e-01
           </DataArray>
           <DataArray type="Float32" Name="rootSegmentVolume" NumberOfComponents="1" format="ascii">
 1.941e-03 1.941e-03 1.941e-03 1.941e-03 1.270e-01 6.296e-02 7.313e-02 7.806e-02 7.780e-02 7.755e-02 7.732e-02 7.710e-02 7.176e-02 6.136e-02 9.182e-02 1.031e-01 3.938e-04 4.216e-04 1.649e-04 1.457e-04 1.073e-04 7.876e-05 7.140e-05 4.117e-05 1.911e-05 2.783e-04 3.509e-04 2.687e-04 2.414e-04 2.634e-04 2.380e-04 1.848e-04 1.974e-04 6.967e-03 3.381e-03 3.339e-03 3.302e-03 3.271e-03 3.244e-03 3.219e-03 3.195e-03 3.172e-03 3.151e-03 3.131e-03 3.113e-03 3.096e-03 3.080e-03 3.066e-03 3.053e-03 3.042e-03 3.032e-03 3.023e-03 3.016e-03 3.010e-03 3.005e-03 3.002e-03 3.000e-03
           </DataArray>
           <DataArray type="Float32" Name="spatialRootDensity" NumberOfComponents="1" format="ascii">
 1.956e+00 1.956e+00 1.956e+00 1.956e+00 1.806e+00 7.353e-01 0.000e+00 0.000e+00 0.000e+00 0.000e+00 0.000e+00 0.000e+00 0.000e+00 0.000e+00 0.000e+00 0.000e+00 1.958e+00 1.998e+00 1.453e+00 1.326e+00 1.197e+00 1.225e+00 1.109e+00 1.028e+00 9.543e-01 2.083e+00 2.085e+00 2.249e+00 2.272e+00 2.271e+00 2.280e+00 2.410e+00 1.896e+00 1.813e+00 1.910e+00 6.829e-01 3.413e-01 7.107e-02 0.000e+00 0.000e+00 0.000e+00 0.000e+00 0.000e+00 0.000e+00 0.000e+00 0.000e+00 0.000e+00 0.000e+00 0.000e+00 0.000e+00 0.000e+00 0.000e+00 0.000e+00 0.000e+00 0.000e+00 0.000e+00 0.000e+00
           </DataArray>
         </CellData>
      </Piece>
   </UnstructuredGrid>
</VTKFile>
