<?xml version="1.0"?>
<VTKFile type="UnstructuredGrid" version="0.1" byte_order="LittleEndian">
   <UnstructuredGrid>
      <Piece NumberOfPoints="23060" NumberOfCells="1635">
         <Points>
            <DataArray type="Float32" Name="Position" NumberOfComponents="3" format="ascii">
-0.067	-5.033	-0.121
-0.067	-5.026	-0.116
-0.068	-5.017	-0.115
-0.071	-5.010	-0.119
-0.075	-5.006	-0.127
-0.077	-5.009	-0.136
-0.078	-5.016	-0.142
-0.076	-5.025	-0.143
-0.073	-5.033	-0.138
-0.069	-5.036	-0.130
-0.889	-5.216	0.155
-0.889	-5.209	0.161
-0.891	-5.200	0.163
-0.895	-5.193	0.159
-0.899	-5.189	0.152
-0.902	-5.191	0.144
-0.903	-5.198	0.137
-0.901	-5.207	0.136
-0.897	-5.215	0.139
-0.892	-5.218	0.147
-1.536	-5.493	0.523
-1.535	-5.487	0.530
-1.538	-5.479	0.533
-1.544	-5.471	0.531
-1.550	-5.468	0.525
-1.554	-5.469	0.517
-1.554	-5.475	0.510
-1.551	-5.483	0.507
-1.546	-5.491	0.508
-1.540	-5.494	0.515
-1.914	-5.791	0.749
-1.914	-5.786	0.757
-1.917	-5.779	0.761
-1.923	-5.772	0.760
-1.930	-5.768	0.755
-1.934	-5.769	0.746
-1.934	-5.774	0.739
-1.931	-5.782	0.735
-1.925	-5.789	0.736
-1.919	-5.792	0.741
-0.142	-5.073	-0.244
-0.141	-5.065	-0.239
-0.142	-5.056	-0.239
-0.144	-5.048	-0.244
-0.147	-5.046	-0.253
-0.149	-5.049	-0.261
-0.150	-5.056	-0.267
-0.149	-5.066	-0.267
-0.147	-5.073	-0.262
-0.144	-5.076	-0.253
-0.942	-5.149	-0.032
-0.941	-5.141	-0.027
-0.942	-5.132	-0.027
-0.944	-5.124	-0.031
-0.948	-5.122	-0.039
-0.951	-5.124	-0.048
-0.952	-5.132	-0.053
-0.951	-5.141	-0.053
-0.948	-5.148	-0.049
-0.945	-5.151	-0.041
-1.672	-5.258	0.359
-1.670	-5.250	0.365
-1.671	-5.241	0.365
-1.674	-5.233	0.361
-1.679	-5.230	0.354
-1.683	-5.233	0.346
-1.686	-5.240	0.341
-1.685	-5.250	0.340
-1.682	-5.257	0.344
-1.677	-5.260	0.352
-2.198	-5.298	0.703
-2.196	-5.291	0.708
-2.196	-5.281	0.709
-2.199	-5.274	0.705
-2.204	-5.271	0.697
-2.209	-5.274	0.690
-2.212	-5.281	0.685
-2.211	-5.290	0.685
-2.208	-5.298	0.689
-2.203	-5.301	0.696
-0.714	-5.773	-1.239
-0.711	-5.768	-1.232
-0.714	-5.764	-1.224
-0.721	-5.763	-1.219
-0.730	-5.764	-1.217
-0.738	-5.768	-1.221
-0.741	-5.774	-1.228
-0.738	-5.778	-1.236
-0.731	-5.779	-1.242
-0.722	-5.777	-1.243
-0.516	-6.498	-0.809
-0.513	-6.492	-0.803
-0.516	-6.487	-0.795
-0.523	-6.485	-0.790
-0.532	-6.487	-0.789
-0.540	-6.491	-0.792
-0.542	-6.497	-0.798
-0.540	-6.502	-0.806
-0.532	-6.504	-0.811
-0.523	-6.502	-0.812
-0.299	-7.109	-0.190
-0.296	-7.102	-0.184
-0.299	-7.097	-0.177
-0.307	-7.095	-0.172
-0.316	-7.097	-0.170
-0.323	-7.102	-0.173
-0.325	-7.109	-0.179
-0.322	-7.114	-0.186
-0.315	-7.116	-0.191
-0.306	-7.114	-0.193
-0.260	-7.202	-0.112
-0.258	-7.195	-0.105
-0.261	-7.191	-0.098
-0.268	-7.189	-0.093
-0.277	-7.191	-0.091
-0.284	-7.196	-0.094
-0.286	-7.203	-0.100
-0.283	-7.208	-0.107
-0.276	-7.209	-0.113
-0.267	-7.207	-0.114
-0.785	-5.853	-1.340
-0.780	-5.850	-1.333
-0.775	-5.853	-1.326
-0.772	-5.861	-1.322
-0.773	-5.870	-1.321
-0.776	-5.878	-1.325
-0.782	-5.880	-1.332
-0.787	-5.878	-1.339
-0.790	-5.870	-1.344
-0.789	-5.861	-1.344
-0.078	-5.918	-1.877
-0.073	-5.915	-1.870
-0.069	-5.918	-1.862
-0.067	-5.925	-1.857
-0.067	-5.935	-1.857
-0.070	-5.942	-1.861
-0.075	-5.945	-1.869
-0.079	-5.942	-1.876
-0.081	-5.935	-1.881
-0.081	-5.926	-1.882
0.679	-5.948	-2.190
0.683	-5.944	-2.182
0.686	-5.947	-2.173
0.688	-5.954	-2.168
0.688	-5.964	-2.167
0.686	-5.971	-2.172
0.682	-5.974	-2.180
0.679	-5.972	-2.188
0.677	-5.964	-2.194
0.677	-5.955	-2.194
-0.839	-5.948	-1.443
-0.832	-5.946	-1.438
-0.826	-5.949	-1.432
-0.823	-5.956	-1.428
-0.824	-5.965	-1.426
-0.829	-5.972	-1.429
-0.837	-5.975	-1.434
-0.843	-5.972	-1.440
-0.846	-5.964	-1.444
-0.845	-5.955	-1.445
-0.353	-6.119	-2.070
-0.345	-6.117	-2.066
-0.337	-6.120	-2.062
-0.334	-6.128	-2.058
-0.335	-6.137	-2.056
-0.341	-6.144	-2.057
-0.350	-6.146	-2.061
-0.357	-6.143	-2.066
-0.360	-6.135	-2.070
-0.359	-6.126	-2.071
-0.109	-6.333	-2.822
-0.100	-6.331	-2.820
-0.092	-6.334	-2.817
-0.087	-6.341	-2.814
-0.088	-6.350	-2.812
-0.095	-6.357	-2.812
-0.103	-6.360	-2.813
-0.111	-6.356	-2.816
-0.116	-6.349	-2.820
-0.115	-6.340	-2.822
-0.096	-6.346	-2.877
-0.087	-6.343	-2.876
-0.079	-6.346	-2.873
-0.074	-6.354	-2.870
-0.075	-6.363	-2.868
-0.081	-6.370	-2.868
-0.090	-6.372	-2.870
-0.098	-6.369	-2.872
-0.103	-6.362	-2.875
-0.102	-6.353	-2.877
-0.876	-6.058	-1.548
-0.873	-6.053	-1.541
-0.876	-6.050	-1.532
-0.883	-6.048	-1.527
-0.892	-6.049	-1.526
-0.900	-6.052	-1.530
-0.903	-6.057	-1.538
-0.900	-6.060	-1.546
-0.893	-6.062	-1.551
-0.884	-6.061	-1.552
-0.758	-6.758	-1.192
-0.755	-6.754	-1.185
-0.757	-6.750	-1.177
-0.764	-6.748	-1.171
-0.774	-6.749	-1.170
-0.781	-6.752	-1.175
-0.784	-6.756	-1.182
-0.782	-6.760	-1.190
-0.775	-6.762	-1.196
-0.765	-6.761	-1.197
-0.676	-7.498	-0.829
-0.673	-7.494	-0.821
-0.675	-7.491	-0.813
-0.683	-7.490	-0.807
-0.692	-7.491	-0.806
-0.699	-7.494	-0.810
-0.703	-7.498	-0.818
-0.700	-7.501	-0.826
-0.693	-7.502	-0.832
-0.684	-7.501	-0.833
-0.629	-7.805	-0.700
-0.621	-7.801	-0.700
-0.612	-7.802	-0.700
-0.605	-7.809	-0.700
-0.604	-7.818	-0.700
-0.608	-7.826	-0.700
-0.616	-7.830	-0.700
-0.625	-7.829	-0.700
-0.632	-7.822	-0.700
-0.633	-7.813	-0.700
-0.954	-6.150	-1.630
-0.949	-6.142	-1.634
-0.942	-6.139	-1.639
-0.934	-6.142	-1.643
-0.930	-6.150	-1.646
-0.929	-6.159	-1.645
-0.934	-6.166	-1.642
-0.941	-6.169	-1.637
-0.949	-6.166	-1.633
-0.953	-6.159	-1.630
-1.410	-6.199	-2.341
-1.406	-6.191	-2.345
-1.400	-6.187	-2.350
-1.392	-6.189	-2.355
-1.387	-6.196	-2.358
-1.386	-6.206	-2.358
-1.389	-6.213	-2.354
-1.396	-6.217	-2.348
-1.403	-6.215	-2.343
-1.408	-6.208	-2.340
-1.762	-6.303	-2.743
-1.760	-6.294	-2.746
-1.754	-6.290	-2.752
-1.747	-6.291	-2.758
-1.741	-6.297	-2.762
-1.739	-6.306	-2.762
-1.741	-6.315	-2.758
-1.746	-6.319	-2.752
-1.753	-6.318	-2.746
-1.759	-6.312	-2.742
-0.989	-6.268	-1.728
-0.988	-6.260	-1.722
-0.990	-6.251	-1.722
-0.993	-6.244	-1.726
-0.997	-6.241	-1.734
-1.000	-6.243	-1.742
-1.000	-6.250	-1.748
-0.999	-6.260	-1.749
-0.996	-6.267	-1.745
-0.992	-6.270	-1.737
-1.739	-6.417	-1.435
-1.738	-6.410	-1.429
-1.740	-6.401	-1.428
-1.743	-6.393	-1.432
-1.748	-6.390	-1.439
-1.751	-6.392	-1.448
-1.752	-6.399	-1.454
-1.750	-6.408	-1.455
-1.746	-6.416	-1.451
-1.742	-6.419	-1.444
-2.449	-6.672	-1.075
-2.449	-6.666	-1.068
-2.451	-6.658	-1.066
-2.456	-6.650	-1.069
-2.461	-6.647	-1.076
-2.464	-6.648	-1.084
-2.464	-6.654	-1.091
-2.462	-6.663	-1.094
-2.457	-6.670	-1.091
-2.452	-6.674	-1.084
-2.688	-6.777	-0.995
-2.688	-6.773	-0.987
-2.688	-6.775	-0.977
-2.688	-6.781	-0.971
-2.688	-6.790	-0.969
-2.688	-6.799	-0.974
-2.688	-6.803	-0.982
-2.688	-6.801	-0.991
-2.688	-6.795	-0.998
-2.688	-6.786	-0.999
-1.051	-6.347	-1.837
-1.045	-6.345	-1.831
-1.038	-6.348	-1.825
-1.035	-6.355	-1.821
-1.036	-6.365	-1.820
-1.041	-6.372	-1.823
-1.047	-6.375	-1.829
-1.054	-6.372	-1.835
-1.057	-6.364	-1.839
-1.056	-6.355	-1.840
-0.506	-6.440	-2.441
-0.499	-6.438	-2.436
-0.492	-6.441	-2.431
-0.488	-6.448	-2.427
-0.489	-6.457	-2.426
-0.494	-6.465	-2.429
-0.501	-6.467	-2.434
-0.508	-6.464	-2.439
-0.512	-6.457	-2.443
-0.511	-6.448	-2.444
-0.161	-6.510	-2.995
-0.157	-6.510	-2.987
-0.158	-6.510	-2.978
-0.165	-6.510	-2.971
-0.174	-6.510	-2.970
-0.182	-6.510	-2.974
-0.186	-6.510	-2.982
-0.185	-6.510	-2.991
-0.178	-6.510	-2.998
-0.169	-6.510	-2.999
-1.089	-6.479	-1.916
-1.091	-6.473	-1.910
-1.094	-6.464	-1.908
-1.097	-6.456	-1.912
-1.100	-6.453	-1.921
-1.100	-6.454	-1.930
-1.099	-6.461	-1.936
-1.096	-6.469	-1.938
-1.092	-6.477	-1.934
-1.090	-6.481	-1.925
-1.867	-6.774	-1.805
-1.870	-6.768	-1.798
-1.873	-6.759	-1.797
-1.876	-6.752	-1.801
-1.878	-6.748	-1.810
-1.878	-6.750	-1.819
-1.875	-6.756	-1.825
-1.872	-6.764	-1.827
-1.869	-6.772	-1.822
-1.867	-6.776	-1.814
-2.396	-7.015	-1.862
-2.399	-7.009	-1.856
-2.403	-7.000	-1.855
-2.406	-6.993	-1.859
-2.407	-6.989	-1.868
-2.405	-6.990	-1.877
-2.402	-6.996	-1.883
-2.398	-7.005	-1.884
-2.395	-7.012	-1.879
-2.394	-7.016	-1.871
-1.137	-6.588	-2.006
-1.138	-6.581	-2.000
-1.141	-6.572	-2.000
-1.143	-6.565	-2.005
-1.144	-6.562	-2.014
-1.145	-6.564	-2.023
-1.143	-6.571	-2.028
-1.141	-6.580	-2.029
-1.139	-6.588	-2.024
-1.137	-6.591	-2.015
-1.922	-6.778	-1.935
-1.925	-6.771	-1.929
-1.927	-6.762	-1.929
-1.929	-6.754	-1.934
-1.930	-6.751	-1.943
-1.929	-6.754	-1.952
-1.927	-6.761	-1.957
-1.924	-6.770	-1.958
-1.922	-6.777	-1.952
-1.921	-6.780	-1.944
-2.455	-6.977	-2.007
-2.458	-6.971	-2.001
-2.462	-6.962	-2.001
-2.464	-6.955	-2.007
-2.464	-6.951	-2.015
-2.462	-6.954	-2.024
-2.458	-6.960	-2.030
-2.455	-6.969	-2.030
-2.453	-6.976	-2.024
-2.453	-6.980	-2.016
-1.199	-6.680	-2.099
-1.195	-6.673	-2.102
-1.187	-6.671	-2.107
-1.179	-6.674	-2.111
-1.175	-6.682	-2.114
-1.175	-6.691	-2.113
-1.180	-6.698	-2.109
-1.187	-6.701	-2.105
-1.195	-6.697	-2.100
-1.199	-6.690	-2.098
-1.639	-6.735	-2.834
-1.634	-6.728	-2.838
-1.627	-6.726	-2.842
-1.619	-6.729	-2.846
-1.615	-6.737	-2.849
-1.615	-6.746	-2.848
-1.619	-6.753	-2.845
-1.627	-6.756	-2.840
-1.635	-6.752	-2.836
-1.639	-6.745	-2.834
-2.024	-6.771	-3.497
-2.019	-6.764	-3.500
-2.011	-6.762	-3.504
-2.004	-6.766	-3.508
-1.999	-6.774	-3.510
-2.000	-6.783	-3.510
-2.005	-6.790	-3.507
-2.013	-6.792	-3.502
-2.020	-6.788	-3.498
-2.025	-6.780	-3.496
-2.202	-6.786	-3.837
-2.197	-6.779	-3.840
-2.189	-6.777	-3.844
-2.181	-6.781	-3.848
-2.177	-6.789	-3.850
-2.178	-6.798	-3.849
-2.183	-6.805	-3.846
-2.191	-6.807	-3.842
-2.198	-6.803	-3.838
-2.203	-6.795	-3.836
-0.214	-5.122	-0.367
-0.213	-5.115	-0.361
-0.215	-5.106	-0.360
-0.218	-5.098	-0.364
-0.222	-5.095	-0.372
-0.225	-5.098	-0.381
-0.226	-5.105	-0.386
-0.224	-5.114	-0.387
-0.221	-5.122	-0.383
-0.217	-5.125	-0.375
-1.021	-5.277	-0.034
-1.020	-5.270	-0.028
-1.021	-5.261	-0.027
-1.024	-5.253	-0.032
-1.028	-5.250	-0.039
-1.032	-5.253	-0.047
-1.033	-5.260	-0.053
-1.032	-5.269	-0.054
-1.029	-5.277	-0.050
-1.024	-5.280	-0.042
-1.701	-5.393	0.338
-1.700	-5.385	0.343
-1.701	-5.376	0.344
-1.704	-5.369	0.339
-1.708	-5.365	0.332
-1.712	-5.368	0.324
-1.713	-5.375	0.318
-1.712	-5.385	0.317
-1.709	-5.392	0.322
-1.705	-5.395	0.329
-2.120	-5.449	0.516
-2.118	-5.442	0.521
-2.119	-5.433	0.522
-2.122	-5.425	0.517
-2.126	-5.422	0.509
-2.129	-5.425	0.501
[...]
         <CellData>
           <DataArray type="Float32" Name="combinedRootClassID" NumberOfComponents="1" format="ascii">
 -1.300e+01 -1.300e+01 -1.300e+01 -1.300e+01 -1.300e+01 -1.300e+01 -1.300e+01 -1.300e+01 -1.300e+01 -1.300e+01 -1.300e+01 -1.300e+01 -1.300e+01 -1.300e+01 -1.300e+01 -1.300e+01 -1.300e+01 -1.300e+01 -1.300e+01 -1.300e+01 -1.300e+01 -1.300e+01 -1.300e+01 -1.300e+01 -1.300e+01 -1.300e+01 -1.300e+01 -1.300e+01 -1.300e+01 -1.300e+01 -1.300e+01 -1.300e+01 -1.300e+01 -1.300e+01 -1.300e+01 -1.300e+01 -1.300e+01 -1.300e+01 -1.300e+01 -1.300e+01 -1.300e+01 -1.300e+01 -1.300e+01 -1.300e+01 -1.300e+01 -1.300e+01 -1.300e+01 -1.300e+01 -1.300e+01 -1.300e+01 -1.300e+01 -1.300e+01 -1.300e+01 -1.300e+01 -1.300e+01 -1.300e+01 -1.300e+01 -1.300e+01 -1.300e+01 -1.300e+01 -1.300e+01 -1.300e+01 -1.300e+01 -1.300e+01 -1.300e+01 -1.300e+01 -1.300e+01 -1.300e+01 -1.300e+01 -1.300e+01 -1.300e+01 -1.300e+01 -1.300e+01 -1.300e+01 -1.300e+01 -1.300e+01 -1.300e+01 -1.300e+01 -1.300e+01 -1.300e+01 -1.300e+01 -1.300e+01 -1.300e+01 -1.300e+01 -1.300e+01 -1.300e+01 -1.300e+01 -1.300e+01 -1.300e+01 -1.300e+01 -1.300e+01 -1.300e+01 -1.300e+01 -1.300e+01 -1.300e+01 -1.300e+01 -1.300e+01 -1.300e+01 -1.300e+01 -1.300e+01 -1.300e+01 -1.300e+01 -1.300e+01 -1.300e+01 -1.300e+01 -1.300e+01 -1.300e+01 -1.300e+01 -1.300e+01 -1.300e+01 -1.300e+01 -1.300e+01 -1.300e+01 -1.300e+01 -1.300e+01 -1.300e+01 -1.300e+01 -1.300e+01 -1.300e+01 -1.300e+01 -1.300e+01 -1.300e+01 -1.300e+01 -1.300e+01 -1.300e+01 -1.300e+01 -1.300e+01 -1.300e+01 -1.300e+01 -1.300e+01 -1.300e+01 -1.300e+01 -1.300e+01 -1.300e+01 -1.300e+01 -1.300e+01 -1.300e+01 -1.300e+01 -1.300e+01 -1.300e+01 -1.300e+01 -1.300e+01 -1.300e+01 -1.300e+01 -1.300e+01 -1.300e+01 -1.300e+01 -1.300e+01 -1.300e+01 -1.300e+01 -1.300e+01 -1.300e+01 -1.300e+01 -1.300e+01 -1.300e+01 -1.300e+01 -1.300e+01 -5.000e+00 -5.000e+00 -5.000e+00 -5.000e+00 -5.000e+00 -5.000e+00 -5.000e+00 -5.000e+00 -5.000e+00 -5.000e+00 -5.000e+00 -5.000e+00 -5.000e+00 -5.000e+00 -5.000e+00 -5.000e+00 -5.000e+00 -5.000e+00 -5.000e+00 -5.000e+00 -5.000e+00 -5.000e+00 -5.000e+00 -5.000e+00 -5.000e+00 -5.000e+00 -5.000e+00 -5.000e+00 -1.300e+01 -1.300e+01 -1.300e+01 -1.300e+01 -1.300e+01 -1.300e+01 -1.300e+01 -1.300e+01 -1.300e+01 -1.300e+01 -1.300e+01 -1.300e+01 -1.300e+01 -1.300e+01 -1.300e+01 -1.300e+01 -1.300e+01 -1.300e+01 -1.300e+01 -1.300e+01 -1.300e+01 -1.300e+01 -1.300e+01 -1.300e+01 -1.300e+01 -1.300e+01 -1.300e+01 -1.300e+01 -1.300e+01 -1.300e+01 -1.300e+01 -1.300e+01 -1.300e+01 -1.300e+01 -1.300e+01 -1.300e+01 -1.300e+01 -1.300e+01 -1.300e+01 -1.300e+01 -1.300e+01 -1.300e+01 -1.300e+01 -1.300e+01 -1.300e+01 -1.300e+01 -1.300e+01 -1.300e+01 -1.300e+01 -1.300e+01 -1.300e+01 -1.300e+01 -1.300e+01 -1.300e+01 -1.300e+01 -1.300e+01 -1.300e+01 -1.300e+01 -1.300e+01 -1.300e+01 -1.300e+01 -1.300e+01 -1.300e+01 -1.300e+01 -1.300e+01 -1.300e+01 -1.300e+01 -1.300e+01 -1.300e+01 -1.300e+01 -1.300e+01 -1.300e+01 -1.300e+01 -1.300e+01 -1.300e+01 -1.300e+01 -1.300e+01 -1.300e+01 -1.300e+01 -1.300e+01 -1.300e+01 -1.300e+01 -1.300e+01 -1.300e+01 -1.300e+01 -1.300e+01 -1.300e+01 -1.300e+01 -1.300e+01 -1.300e+01 -1.300e+01 -1.300e+01 -1.300e+01 -1.300e+01 -1.300e+01 -1.300e+01 -1.300e+01 -1.300e+01 -1.300e+01 -1.300e+01 -1.300e+01 -1.300e+01 -1.300e+01 -1.300e+01 -1.300e+01 -1.300e+01 -1.300e+01 -1.300e+01 -1.300e+01 -1.300e+01 -1.300e+01 -1.300e+01 -1.300e+01 -1.300e+01 -1.300e+01 -1.300e+01 -1.300e+01 -1.300e+01 -1.300e+01 -1.300e+01 -1.300e+01 -1.300e+01 -1.300e+01 -1.300e+01 -1.300e+01 -1.300e+01 -1.300e+01 -1.300e+01 -1.300e+01 -1.300e+01 -1.300e+01 -1.300e+01 -1.300e+01 -1.300e+01 -1.300e+01 -1.300e+01 -1.300e+01 -1.300e+01 -1.300e+01 -1.300e+01 -1.300e+01 -1.300e+01 -1.300e+01 -1.300e+01 -1.300e+01 -1.300e+01 -1.300e+01 -1.300e+01 -1.300e+01 -1.300e+01 -1.300e+01 -1.300e+01 -1.300e+01 -5.000e+00 -5.000e+00 -5.000e+00 -5.000e+00 -5.000e+00 -5.000e+00 -5.000e+00 -5.000e+00 -5.000e+00 -5.000e+00 -5.000e+00 -5.000e+00 -5.000e+00 -5.000e+00 -5.000e+00 -5.000e+00 -5.000e+00 -5.000e+00 -5.000e+00 -5.000e+00 -5.000e+00 -5.000e+00 -5.000e+00 -5.000e+00 -5.000e+00 -5.000e+00 -5.000e+00 -5.000e+00 -1.300e+01 -1.300e+01 -1.300e+01 -1.300e+01 -1.300e+01 -1.300e+01 -1.300e+01 -1.300e+01 -1.300e+01 -1.300e+01 -1.300e+01 -1.300e+01 -1.300e+01 -1.300e+01 -1.300e+01 -1.300e+01 -1.300e+01 -1.300e+01 -1.300e+01 -1.300e+01 -1.300e+01 -1.300e+01 -1.300e+01 -1.300e+01 -1.300e+01 -1.300e+01 -1.300e+01 -1.300e+01 -1.300e+01 -1.300e+01 -1.300e+01 -1.300e+01 -1.300e+01 -1.300e+01 -1.300e+01 -1.300e+01 -1.300e+01 -1.300e+01 -1.300e+01 -1.300e+01 -1.300e+01 -1.300e+01 -1.300e+01 -1.300e+01 -1.300e+01 -1.300e+01 -1.300e+01 -1.300e+01 -1.300e+01 -1.300e+01 -1.300e+01 -1.300e+01 -1.300e+01 -1.300e+01 -1.300e+01 -1.300e+01 -1.300e+01 -1.300e+01 -1.300e+01 -1.300e+01 -1.300e+01 -1.300e+01 -1.300e+01 -1.300e+01 -1.300e+01 -1.300e+01 -1.300e+01 -1.300e+01 -1.300e+01 -1.300e+01 -1.300e+01 -1.300e+01 -1.300e+01 -1.300e+01 -1.300e+01 -1.300e+01 -1.300e+01 -1.300e+01 -1.300e+01 -1.300e+01 -1.300e+01 -1.300e+01 -1.300e+01 -1.300e+01 -1.300e+01 -1.300e+01 -1.300e+01 -1.300e+01 -1.300e+01 -1.300e+01 -1.300e+01 -1.300e+01 -1.300e+01 -1.300e+01 -1.300e+01 -1.300e+01 -1.300e+01 -1.300e+01 -1.300e+01 -1.300e+01 -1.300e+01 -1.300e+01 -1.300e+01 -1.300e+01 -1.300e+01 -1.300e+01 -1.300e+01 -1.300e+01 -1.300e+01 -1.300e+01 -1.300e+01 -1.300e+01 -1.300e+01 -1.300e+01 -1.300e+01 -1.300e+01 -1.300e+01 -1.300e+01 -1.300e+01 -1.300e+01 -1.300e+01 -1.300e+01 -1.300e+01 -1.300e+01 -1.300e+01 -1.300e+01 -1.300e+01 -1.300e+01 -1.300e+01 -1.300e+01 -1.300e+01 -1.300e+01 -1.300e+01 -1.300e+01 -1.300e+01 -1.300e+01 -1.300e+01 -1.300e+01 -1.300e+01 -1.300e+01 -1.300e+01 -1.300e+01 -1.300e+01 -1.300e+01 -1.300e+01 -1.300e+01 -1.300e+01 -1.300e+01 -1.300e+01 -1.300e+01 -1.300e+01 -5.000e+00 -5.000e+00 -5.000e+00 -5.000e+00 -5.000e+00 -5.000e+00 -5.000e+00 -5.000e+00 -5.000e+00 -5.000e+00 -5.000e+00 -5.000e+00 -5.000e+00 -5.000e+00 -5.000e+00 -5.000e+00 -5.000e+00 -5.000e+00 -5.000e+00 -5.000e+00 -5.000e+00 -5.000e+00 -5.000e+00 -5.000e+00 -5.000e+00 -5.000e+00 -5.000e+00 -5.000e+00 -1.300e+01 -1.300e+01 -1.300e+01 -1.300e+01 -1.300e+01 -1.300e+01 -1.300e+01 -1.300e+01 -1.300e+01 -1.300e+01 -1.300e+01 -1.300e+01 -1.300e+01 -1.300e+01 -1.300e+01 -1.300e+01 -1.300e+01 -1.300e+01 -1.300e+01 -1.300e+01 -1.300e+01 -1.300e+01 -1.300e+01 -1.300e+01 -1.300e+01 -1.300e+01 -1.300e+01 -1.300e+01 -1.300e+01 -1.300e+01 -1.300e+01 -1.300e+01 -1.300e+01 -1.300e+01 -1.300e+01 -1.300e+01 -1.300e+01 -1.300e+01 -1.300e+01 -1.300e+01 -1.300e+01 -1.300e+01 -1.300e+01 -1.300e+01 -1.300e+01 -1.300e+01 -1.300e+01 -1.300e+01 -1.300e+01 -1.300e+01 -1.300e+01 -1.300e+01 -1.300e+01 -1.300e+01 -1.300e+01 -1.300e+01 -1.300e+01 -1.300e+01 -1.300e+01 -1.300e+01 -1.300e+01 -1.300e+01 -1.300e+01 -1.300e+01 -1.300e+01 -1.300e+01 -1.300e+01 -1.300e+01 -1.300e+01 -1.300e+01 -1.300e+01 -1.300e+01 -1.300e+01 -1.300e+01 -1.300e+01 -1.300e+01 -1.300e+01 -1.300e+01 -1.300e+01 -1.300e+01 -1.300e+01 -1.300e+01 -1.300e+01 -1.300e+01 -1.300e+01 -1.300e+01 -1.300e+01 -1.300e+01 -1.300e+01 -1.300e+01 -1.300e+01 -1.300e+01 -1.300e+01 -1.300e+01 -1.300e+01 -1.300e+01 -1.300e+01 -1.300e+01 -1.300e+01 -1.300e+01 -1.300e+01 -1.300e+01 -1.300e+01 -1.300e+01 -1.300e+01 -1.300e+01 -1.300e+01 -1.300e+01 -1.300e+01 -1.300e+01 -1.300e+01 -1.300e+01 -1.300e+01 -1.300e+01 -1.300e+01 -1.300e+01 -1.300e+01 -1.300e+01 -1.300e+01 -1.300e+01 -1.300e+01 -1.300e+01 -1.300e+01 -1.300e+01 -1.300e+01 -1.300e+01 -1.300e+01 -1.300e+01 -1.300e+01 -1.300e+01 -1.300e+01 -1.300e+01 -1.300e+01 -1.300e+01 -1.300e+01 -1.300e+01 -1.300e+01 -1.300e+01 -1.300e+01 -1.300e+01 -1.300e+01 -1.300e+01 -1.300e+01 -1.300e+01 -1.300e+01 -1.300e+01 -1.300e+01 -1.300e+01 -1.300e+01 -1.300e+01 -1.300e+01 -1.300e+01 -1.300e+01 -1.300e+01 -1.300e+01 -1.300e+01 -1.300e+01 -1.300e+01 -5.000e+00 -5.000e+00 -5.000e+00 -5.000e+00 -5.000e+00 -5.000e+00 -5.000e+00 -5.000e+00 -5.000e+00 -5.000e+00 -5.000e+00 -5.000e+00 -5.000e+00 -5.000e+00 -5.000e+00 -5.000e+00 -5.000e+00 -5.000e+00 -5.000e+00 -5.000e+00 -5.000e+00 -5.000e+00 -5.000e+00 -5.000e+00 -5.000e+00 -5.000e+00 -5.000e+00 -5.000e+00 -1.900e+01 -1.900e+01 -1.900e+01 -1.900e+01 -1.900e+01 -1.900e+01 -1.900e+01 -1.900e+01 -1.900e+01 -1.900e+01 -1.900e+01 -1.900e+01 -1.900e+01 -1.900e+01 -1.900e+01 -1.900e+01 -1.900e+01 -1.900e+01 -1.900e+01 -1.900e+01 -1.100e+01 -1.100e+01 -1.100e+01 -1.100e+01 -1.100e+01 -1.100e+01 -1.100e+01 -1.100e+01 -1.100e+01 -1.100e+01 -1.100e+01 -1.100e+01 -1.100e+01 -1.100e+01 -1.100e+01 -1.100e+01 -1.100e+01 -1.100e+01 -1.900e+01 -1.900e+01 -1.900e+01 -1.900e+01 -1.900e+01 -1.900e+01 -1.900e+01 -1.900e+01 -1.900e+01 -1.900e+01 -1.900e+01 -1.900e+01 -1.900e+01 -1.900e+01 -1.900e+01 -1.900e+01 -1.900e+01 -1.900e+01 -1.900e+01 -1.900e+01 -1.100e+01 -1.100e+01 -1.100e+01 -1.100e+01 -1.100e+01 -1.100e+01 -1.100e+01 -1.100e+01 -1.100e+01 -1.100e+01 -1.100e+01 -1.100e+01 -1.100e+01 -1.100e+01 -1.100e+01 -1.100e+01 -1.100e+01 -1.100e+01 -1.900e+01 -1.900e+01 -1.900e+01 -1.900e+01 -1.900e+01 -1.900e+01 -1.900e+01 -1.900e+01 -1.900e+01 -1.900e+01 -1.900e+01 -1.900e+01 -1.900e+01 -1.900e+01 -1.900e+01 -1.900e+01 -1.900e+01 -1.900e+01 -1.900e+01 -1.900e+01 -1.100e+01 -1.100e+01 -1.100e+01 -1.100e+01 -1.100e+01 -1.100e+01 -1.100e+01 -1.100e+01 -1.100e+01 -1.100e+01 -1.100e+01 -1.100e+01 -1.100e+01 -1.100e+01 -1.100e+01 -1.100e+01 -1.100e+01 -1.100e+01 -1.900e+01 -1.900e+01 -1.900e+01 -1.900e+01 -1.900e+01 -1.900e+01 -1.900e+01 -1.900e+01 -1.900e+01 -1.900e+01 -1.900e+01 -1.900e+01 -1.900e+01 -1.900e+01 -1.900e+01 -1.900e+01 -1.900e+01 -1.900e+01 -1.900e+01 -1.900e+01 -1.100e+01 -1.100e+01 -1.100e+01 -1.100e+01 -1.100e+01 -1.100e+01 -1.100e+01 -1.100e+01 -1.100e+01 -1.100e+01 -1.100e+01 -1.100e+01 -1.100e+01 -1.100e+01 -1.100e+01 -1.100e+01 -1.100e+01 -1.100e+01 -2.000e+01 -2.000e+01 -2.000e+01 -2.000e+01 -2.000e+01 -2.000e+01 -2.000e+01 -2.000e+01 -2.000e+01 -2.000e+01 -2.000e+01 -2.000e+01 -2.000e+01 -2.000e+01 -2.000e+01 -2.000e+01 -2.000e+01 -2.000e+01 -2.000e+01 -2.000e+01 -2.000e+00 -2.000e+00 -2.000e+00 -2.000e+00 -2.000e+00 -2.000e+00 -2.000e+00 -2.000e+00 -2.000e+00 -2.000e+00 -2.000e+00 -2.000e+00 -7.000e+00 -7.000e+00 -7.000e+00 -7.000e+00 -7.000e+00 -1.700e+01 -1.700e+01 -7.000e+00 -7.000e+00 -7.000e+00 -7.000e+00 -7.000e+00 -7.000e+00 -7.000e+00 -1.700e+01 -1.700e+01 -7.000e+00 -7.000e+00 -7.000e+00 -7.000e+00 -7.000e+00 -7.000e+00 -7.000e+00 -7.000e+00 -7.000e+00 -7.000e+00 -7.000e+00 -7.000e+00 -7.000e+00 -7.000e+00 -7.000e+00 -7.000e+00 -7.000e+00 -7.000e+00 -7.000e+00 -7.000e+00 -7.000e+00 -7.000e+00 -7.000e+00 -7.000e+00 -7.000e+00 -7.000e+00 -7.000e+00 -7.000e+00 -7.000e+00 -7.000e+00 -7.000e+00 -7.000e+00 -1.700e+01 -1.700e+01 -7.000e+00 -7.000e+00 -7.000e+00 -7.000e+00 -7.000e+00 -7.000e+00 -7.000e+00 -7.000e+00 -7.000e+00 -7.000e+00 -7.000e+00 -7.000e+00 -7.000e+00 -7.000e+00 -7.000e+00 -7.000e+00 -7.000e+00 -7.000e+00 -7.000e+00 -7.000e+00 -7.000e+00 -7.000e+00 -7.000e+00 -7.000e+00 -7.000e+00 -7.000e+00 -7.000e+00 -7.000e+00 -1.700e+01 -7.000e+00 -7.000e+00 -7.000e+00 -7.000e+00 -7.000e+00 -7.000e+00 -7.000e+00 -7.000e+00 -7.000e+00 -7.000e+00 -7.000e+00 -7.000e+00 -7.000e+00 -7.000e+00 -7.000e+00 -7.000e+00 -7.000e+00 -7.000e+00 -7.000e+00 -7.000e+00 -7.000e+00 -7.000e+00 -7.000e+00 -7.000e+00 -7.000e+00 -7.000e+00 -7.000e+00 -7.000e+00 -7.000e+00 -7.000e+00 -7.000e+00 -7.000e+00 -7.000e+00 -7.000e+00 -7.000e+00 -7.000e+00 -7.000e+00 -7.000e+00 -7.000e+00 -7.000e+00 -7.000e+00 -7.000e+00 -7.000e+00 -7.000e+00 -7.000e+00 -7.000e+00 -7.000e+00 -7.000e+00 -7.000e+00 -7.000e+00 -7.000e+00 -7.000e+00 -7.000e+00 -7.000e+00 -7.000e+00 -7.000e+00 -7.000e+00 -7.000e+00 -7.000e+00 -1.700e+01 -1.700e+01 -1.700e+01 -7.000e+00 -7.000e+00 -7.000e+00 -7.000e+00 -7.000e+00 -7.000e+00 -7.000e+00 -7.000e+00 -7.000e+00 -7.000e+00 -7.000e+00 -7.000e+00 -7.000e+00 -7.000e+00 -7.000e+00 -7.000e+00 -7.000e+00 -7.000e+00 -7.000e+00 -7.000e+00 -7.000e+00 -7.000e+00 -1.700e+01 -7.000e+00 -7.000e+00 -7.000e+00 -7.000e+00 -7.000e+00 -7.000e+00 -1.700e+01 -1.700e+01 -7.000e+00 -7.000e+00 -7.000e+00 -7.000e+00 -7.000e+00 -7.000e+00 -1.700e+01 -7.000e+00 -7.000e+00 -7.000e+00 -7.000e+00 -7.000e+00 -7.000e+00 -1.700e+01 -1.700e+01 -7.000e+00 -7.000e+00 -7.000e+00 -7.000e+00 -7.000e+00 -7.000e+00 -7.000e+00 -1.700e+01 -7.000e+00 -7.000e+00 -7.000e+00 -7.000e+00 -7.000e+00 -7.000e+00 -1.700e+01 -1.700e+01 -7.000e+00 -7.000e+00 -7.000e+00 -7.000e+00 -7.000e+00 -7.000e+00 -7.000e+00 -7.000e+00 -7.000e+00 -7.000e+00 -7.000e+00 -1.700e+01 -1.700e+01 -7.000e+00 -7.000e+00 -7.000e+00 -7.000e+00 -7.000e+00 -7.000e+00 -7.000e+00 -1.700e+01 -7.000e+00 -7.000e+00 -7.000e+00 -7.000e+00 -7.000e+00 -7.000e+00 -1.700e+01 -7.000e+00 -7.000e+00 -7.000e+00 -7.000e+00 -7.000e+00 -7.000e+00 -7.000e+00 -7.000e+00 -7.000e+00 -7.000e+00 -7.000e+00 -7.000e+00 -7.000e+00 -7.000e+00 -7.000e+00 -7.000e+00 -7.000e+00 -7.000e+00 -7.000e+00 -7.000e+00 -7.000e+00 -7.000e+00 -7.000e+00 -1.700e+01 -1.700e+01 -7.000e+00 -7.000e+00 -7.000e+00 -7.000e+00 -7.000e+00 -7.000e+00 -7.000e+00 -7.000e+00 -7.000e+00 -7.000e+00 -7.000e+00 -7.000e+00 -7.000e+00 -7.000e+00 -7.000e+00 -7.000e+00 -7.000e+00 -7.000e+00 -7.000e+00 -7.000e+00 -7.000e+00 -7.000e+00 -7.000e+00 -1.700e+01 -7.000e+00 -7.000e+00 -7.000e+00 -7.000e+00 -7.000e+00 -7.000e+00 -7.000e+00 -7.000e+00 -7.000e+00 -7.000e+00 -7.000e+00 -7.000e+00 -7.000e+00 -7.000e+00 -7.000e+00 -7.000e+00 -7.000e+00 -7.000e+00 -7.000e+00 -7.000e+00 -7.000e+00 -7.000e+00 -7.000e+00 -7.000e+00 -7.000e+00 -7.000e+00 -7.000e+00 -7.000e+00 -7.000e+00 -7.000e+00 -7.000e+00 -7.000e+00 -7.000e+00 -7.000e+00 -7.000e+00 -7.000e+00 -7.000e+00 -7.000e+00 -7.000e+00 -7.000e+00 -7.000e+00 -7.000e+00 -7.000e+00 -7.000e+00 -7.000e+00 -1.700e+01 -1.700e+01 -1.700e+01 -7.000e+00 -7.000e+00 -7.000e+00 -7.000e+00 -7.000e+00 -7.000e+00 -7.000e+00 -7.000e+00 -7.000e+00 -7.000e+00 -7.000e+00 -7.000e+00 -7.000e+00 -7.000e+00 -7.000e+00 -7.000e+00 -7.000e+00 -7.000e+00 -7.000e+00 -7.000e+00 -7.000e+00 -7.000e+00 -7.000e+00 -7.000e+00 -7.000e+00 -7.000e+00 -7.000e+00 -7.000e+00 -7.000e+00 -7.000e+00 -7.000e+00 -7.000e+00 -7.000e+00 -7.000e+00 -7.000e+00 -7.000e+00 -7.000e+00 -7.000e+00 -7.000e+00 -7.000e+00 -7.000e+00 -7.000e+00 -7.000e+00 -7.000e+00 -7.000e+00 -7.000e+00 -7.000e+00 -7.000e+00 -7.000e+00 -7.000e+00 -7.000e+00 -7.000e+00 -7.000e+00 -7.000e+00 -7.000e+00 -7.000e+00 -1.700e+01 -7.000e+00 -7.000e+00 -7.000e+00 -7.000e+00 -7.000e+00 -7.000e+00 -7.000e+00 -7.000e+00 -7.000e+00 -7.000e+00 -7.000e+00 -7.000e+00 -7.000e+00 -7.000e+00 -7.000e+00 -7.000e+00 -7.000e+00 -7.000e+00 -7.000e+00 -7.000e+00 -7.000e+00 -7.000e+00 -7.000e+00 -7.000e+00 -7.000e+00 -7.000e+00 -7.000e+00 -7.000e+00 -7.000e+00 -7.000e+00 -7.000e+00 -7.000e+00 -7.000e+00 -7.000e+00 -7.000e+00 -7.000e+00 -7.000e+00 -7.000e+00 -7.000e+00 -7.000e+00 -7.000e+00 -7.000e+00 -7.000e+00 -7.000e+00 -7.000e+00 -7.000e+00 -7.000e+00 -7.000e+00 -7.000e+00 -7.000e+00 -7.000e+00 -1.700e+01 -1.700e+01 -7.000e+00 -7.000e+00 -7.000e+00 -7.000e+00 -7.000e+00 -7.000e+00 -7.000e+00 -7.000e+00 -7.000e+00 -7.000e+00 -7.000e+00 -7.000e+00 -7.000e+00 -7.000e+00 -7.000e+00 -7.000e+00 -7.000e+00 -7.000e+00 -7.000e+00 -7.000e+00 -7.000e+00 -7.000e+00 -7.000e+00 -7.000e+00 -7.000e+00 -7.000e+00 -7.000e+00 -7.000e+00 -7.000e+00 -7.000e+00 -7.000e+00 -7.000e+00 -7.000e+00 -7.000e+00 -7.000e+00 -7.000e+00 -7.000e+00 -7.000e+00 -7.000e+00 -7.000e+00 -7.000e+00 -7.000e+00 -7.000e+00 -7.000e+00 -7.000e+00 -7.000e+00 -7.000e+00 -7.000e+00 -7.000e+00 -1.700e+01 -1.700e+01 -1.700e+01 -7.000e+00 -7.000e+00 -7.000e+00 -7.000e+00 -7.000e+00 -7.000e+00 -7.000e+00 -7.000e+00 -7.000e+00 -7.000e+00 -7.000e+00 -7.000e+00 -7.000e+00 -7.000e+00 -7.000e+00 -7.000e+00 -7.000e+00 -7.000e+00 -7.000e+00 -7.000e+00 -7.000e+00 -7.000e+00 -7.000e+00 -7.000e+00 -7.000e+00 -7.000e+00 -7.000e+00 -7.000e+00 -7.000e+00 -7.000e+00 -7.000e+00 -7.000e+00 -7.000e+00 -7.000e+00 -7.000e+00 -7.000e+00 -7.000e+00 -7.000e+00 -7.000e+00 -7.000e+00 -7.000e+00 -7.000e+00 -7.000e+00 -7.000e+00 -7.000e+00 -1.700e+01 -1.700e+01 -1.700e+01 -7.000e+00 -7.000e+00 -7.000e+00 -7.000e+00 -7.000e+00 -7.000e+00 -7.000e+00 -7.000e+00 -7.000e+00 -7.000e+00 -7.000e+00 -7.000e+00 -7.000e+00 -7.000e+00 -7.000e+00 -7.000e+00 -7.000e+00 -7.000e+00 -7.000e+00 -7.000e+00 -7.000e+00 -7.000e+00 -7.000e+00 -7.000e+00 -7.000e+00 -7.000e+00 -7.000e+00 -7.000e+00 -7.000e+00 -7.000e+00 -7.000e+00 -7.000e+00 -7.000e+00 -7.000e+00 -7.000e+00 -7.000e+00 -7.000e+00 -7.000e+00 -7.000e+00 -7.000e+00 -7.000e+00 -7.000e+00 -7.000e+00 -7.000e+00 -7.000e+00 -7.000e+00 -7.000e+00 -7.000e+00 -7.000e+00 -7.000e+00 -7.000e+00 -7.000e+00 -7.000e+00 -7.000e+00 -7.000e+00 -7.000e+00 -7.000e+00 -7.000e+00 -7.000e+00 -7.000e+00 -7.000e+00 -7.000e+00 -7.000e+00 -7.000e+00 -7.000e+00 -7.000e+00 -7.000e+00 -7.000e+00 -7.000e+00 -7.000e+00 -7.000e+00 -7.000e+00 -7.000e+00 -7.000e+00 -7.000e+00 -7.000e+00 -1.500e+01 -1.500e+01 -1.500e+01 -1.500e+01 -1.500e+01 -1.500e+01 -1.500e+01 -1.500e+01 -9.000e+00 -9.000e+00 -9.000e+00 -9.000e+00 -9.000e+00 -9.000e+00 -9.000e+00 -9.000e+00 -9.000e+00 -9.000e+00 -9.000e+00 -1.500e+01 -1.500e+01 -1.500e+01 -1.500e+01 -1.500e+01 -9.000e+00 -9.000e+00 -9.000e+00 -9.000e+00 -9.000e+00 -9.000e+00 -9.000e+00 -9.000e+00 -9.000e+00 -1.500e+01 -9.000e+00 -9.000e+00 -9.000e+00 -9.000e+00 -9.000e+00 -9.000e+00 -9.000e+00 -9.000e+00 -9.000e+00 -9.000e+00 -9.000e+00 -9.000e+00 -9.000e+00 -9.000e+00 -9.000e+00 -9.000e+00 -9.000e+00 -9.000e+00 -4.000e+00 -4.000e+00 -4.000e+00 -4.000e+00 -4.000e+00 -4.000e+00 -4.000e+00 -4.000e+00 -4.000e+00 -4.000e+00 -4.000e+00 -4.000e+00 -4.000e+00 -4.000e+00 -4.000e+00 -4.000e+00 -4.000e+00 -4.000e+00 -4.000e+00 -4.000e+00 -4.000e+00 -4.000e+00 -4.000e+00 -4.000e+00 -4.000e+00 -4.000e+00 -4.000e+00 -4.000e+00 -4.000e+00 -4.000e+00 -4.000e+00 -4.000e+00 -4.000e+00 -4.000e+00 -4.000e+00 -4.000e+00 -4.000e+00 -4.000e+00 -4.000e+00 -4.000e+00 -4.000e+00 -4.000e+00 -4.000e+00 -4.000e+00 -4.000e+00 -4.000e+00 -4.000e+00 -4.000e+00 -4.000e+00 -4.000e+00 -4.000e+00 -4.000e+00 -4.000e+00 -4.000e+00
           </DataArray>
           <DataArray type="Float32" Name="nitrate/minimalNutrientConcentration" NumberOfComponents="1" format="ascii">