<?xml version="1.0"?>
<VTKFile type="UnstructuredGrid" version="0.1" byte_order="LittleEndian">
   <UnstructuredGrid>
      <Piece NumberOfPoints="190" NumberOfCells="17">
         <Points>
            <DataArray type="Float32" Name="Position" NumberOfComponents="3" format="ascii">
-0.142	-5.000	0.142
-0.031	-5.000	0.198
0.091	-4.999	0.179
0.179	-4.999	0.091
0.198	-5.000	-0.031
0.142	-5.000	-0.142
0.031	-5.000	-0.198
-0.091	-5.001	-0.179
-0.179	-5.001	-0.091
-0.198	-5.000	0.031
-0.144	-4.040	0.139
-0.033	-4.040	0.196
0.089	-4.040	0.176
0.177	-4.040	0.088
0.196	-4.040	-0.034
0.140	-4.040	-0.144
0.029	-4.040	-0.200
-0.093	-4.040	-0.181
-0.181	-4.040	-0.093
-0.200	-4.040	0.029
-0.143	-3.560	0.142
-0.033	-3.561	0.198
0.089	-3.561	0.179
0.177	-3.561	0.091
0.196	-3.561	-0.031
0.140	-3.560	-0.141
0.030	-3.560	-0.197
-0.093	-3.559	-0.178
-0.180	-3.559	-0.091
-0.200	-3.560	0.032
-0.140	-3.000	0.143
-0.029	-3.001	0.199
0.093	-3.001	0.179
0.180	-3.001	0.092
0.200	-3.001	-0.030
0.143	-3.000	-0.141
0.033	-2.999	-0.197
-0.089	-2.999	-0.177
-0.176	-2.999	-0.090
-0.196	-2.999	0.032
-0.138	-2.401	0.147
-0.028	-2.401	0.203
0.094	-2.401	0.183
0.181	-2.401	0.096
0.200	-2.400	-0.026
0.144	-2.400	-0.137
0.034	-2.399	-0.192
-0.088	-2.399	-0.173
-0.176	-2.399	-0.085
-0.195	-2.400	0.037
-0.137	-1.800	0.150
-0.027	-1.801	0.206
0.096	-1.801	0.187
0.183	-1.801	0.099
0.202	-1.800	-0.023
0.146	-1.800	-0.133
0.036	-1.799	-0.189
-0.087	-1.799	-0.170
-0.174	-1.800	-0.082
-0.193	-1.800	0.040
-0.137	-1.200	0.151
-0.026	-1.200	0.207
0.096	-1.200	0.188
0.183	-1.200	0.100
0.202	-1.200	-0.022
0.146	-1.200	-0.132
0.036	-1.200	-0.188
-0.086	-1.200	-0.169
-0.173	-1.200	-0.081
-0.193	-1.200	0.041
-0.138	-0.600	0.150
-0.028	-0.600	0.206
0.094	-0.600	0.187
0.182	-0.600	0.100
0.201	-0.601	-0.022
0.145	-0.600	-0.133
0.035	-0.600	-0.189
-0.087	-0.600	-0.170
-0.175	-0.600	-0.082
-0.194	-0.600	0.040
-0.135	0.001	0.150
-0.025	-0.000	0.207
0.098	-0.001	0.188
0.185	-0.001	0.101
0.205	-0.001	-0.021
0.149	-0.001	-0.132
0.039	-0.000	-0.188
-0.083	0.001	-0.169
-0.171	0.001	-0.082
-0.190	0.001	0.040
0.031	-4.998	-0.033
0.045	-5.002	-0.009
0.041	-5.005	0.019
0.022	-5.006	0.039
-0.006	-5.005	0.045
-0.031	-5.002	0.033
-0.045	-4.998	0.009
-0.041	-4.995	-0.019
-0.022	-4.994	-0.039
0.006	-4.995	-0.045
-0.029	-5.930	-0.149
-0.015	-5.934	-0.125
-0.019	-5.938	-0.098
-0.038	-5.939	-0.077
-0.065	-5.938	-0.072
-0.090	-5.935	-0.083
-0.104	-5.930	-0.107
-0.100	-5.927	-0.135
-0.081	-5.925	-0.155
-0.054	-5.927	-0.161
-0.068	-6.395	-0.219
-0.055	-6.399	-0.194
-0.059	-6.402	-0.167
-0.078	-6.403	-0.146
-0.105	-6.402	-0.141
-0.130	-6.399	-0.153
-0.144	-6.395	-0.177
-0.140	-6.392	-0.205
-0.121	-6.391	-0.225
-0.093	-6.392	-0.230
-0.091	-6.866	-0.255
-0.078	-6.868	-0.230
-0.082	-6.870	-0.203
-0.102	-6.870	-0.183
-0.129	-6.869	-0.178
-0.154	-6.867	-0.191
-0.167	-6.864	-0.215
-0.163	-6.863	-0.243
-0.143	-6.863	-0.263
-0.116	-6.864	-0.267
-0.116	-7.336	-0.279
-0.104	-7.338	-0.254
-0.108	-7.340	-0.227
-0.128	-7.340	-0.207
-0.155	-7.338	-0.203
-0.180	-7.336	-0.215
-0.193	-7.334	-0.240
-0.188	-7.333	-0.267
-0.169	-7.333	-0.287
-0.141	-7.334	-0.292
-0.142	-7.806	-0.305
-0.130	-7.809	-0.281
-0.134	-7.810	-0.253
-0.154	-7.810	-0.233
-0.181	-7.809	-0.229
-0.206	-7.806	-0.242
-0.219	-7.804	-0.266
-0.214	-7.802	-0.294
-0.194	-7.802	-0.314
-0.167	-7.804	-0.318
-0.179	-8.275	-0.340
-0.166	-8.277	-0.315
-0.171	-8.279	-0.287
-0.190	-8.280	-0.268
-0.218	-8.278	-0.263
-0.242	-8.276	-0.275
-0.255	-8.273	-0.300
-0.251	-8.271	-0.327
-0.231	-8.271	-0.347
-0.204	-8.272	-0.352
-0.204	-8.741	-0.381
-0.190	-8.745	-0.357
-0.193	-8.747	-0.330
-0.212	-8.749	-0.309
-0.240	-8.749	-0.304
-0.265	-8.747	-0.315
-0.278	-8.744	-0.339
-0.275	-8.741	-0.367
-0.256	-8.739	-0.387
-0.229	-8.739	-0.393
-0.211	-9.207	-0.442
-0.197	-9.210	-0.419
-0.199	-9.214	-0.391
-0.218	-9.217	-0.370
-0.245	-9.217	-0.364
-0.270	-9.216	-0.375
-0.285	-9.213	-0.398
-0.282	-9.209	-0.426
-0.264	-9.206	-0.447
-0.237	-9.206	-0.453
-0.209	-9.674	-0.507
-0.194	-9.677	-0.483
-0.196	-9.681	-0.456
-0.214	-9.684	-0.435
-0.241	-9.685	-0.428
-0.267	-9.683	-0.439
-0.281	-9.680	-0.462
-0.279	-9.677	-0.490
-0.261	-9.674	-0.511
-0.234	-9.672	-0.517
		    </DataArray>
         </Points>
         <Cells>
            <DataArray type="Int32" Name="connectivity" NumberOfComponents="1" format="ascii">
 0 10 1 11 2 12 3 13 4 14 5 15 6 16 7 17 8 18 9 19 0 10
 10 20 11 21 12 22 13 23 14 24 15 25 16 26 17 27 18 28 19 29 10 20
 20 30 21 31 22 32 23 33 24 34 25 35 26 36 27 37 28 38 29 39 20 30
 30 40 31 41 32 42 33 43 34 44 35 45 36 46 37 47 38 48 39 49 30 40
 40 50 41 51 42 52 43 53 44 54 45 55 46 56 47 57 48 58 49 59 40 50
 50 60 51 61 52 62 53 63 54 64 55 65 56 66 57 67 58 68 59 69 50 60
 60 70 61 71 62 72 63 73 64 74 65 75 66 76 67 77 68 78 69 79 60 70
 70 80 71 81 72 82 73 83 74 84 75 85 76 86 77 87 78 88 79 89 70 80
 90 100 91 101 92 102 93 103 94 104 95 105 96 106 97 107 98 108 99 109 90 100
 100 110 101 111 102 112 103 113 104 114 105 115 106 116 107 117 108 118 109 119 100 110
 110 120 111 121 112 122 113 123 114 124 115 125 116 126 117 127 118 128 119 129 110 120
 120 130 121 131 122 132 123 133 124 134 125 135 126 136 127 137 128 138 129 139 120 130
 130 140 131 141 132 142 133 143 134 144 135 145 136 146 137 147 138 148 139 149 130 140
 140 150 141 151 142 152 143 153 144 154 145 155 146 156 147 157 148 158 149 159 140 150
 150 160 151 161 152 162 153 163 154 164 155 165 156 166 157 167 158 168 159 169 150 160
 160 170 161 171 162 172 163 173 164 174 165 175 166 176 167 177 168 178 169 179 160 170
 170 180 171 181 172 182 173 183 174 184 175 185 176 186 177 187 178 188 179 189 170 180

            </DataArray>
            <DataArray type="Int32" Name="offsets" NumberOfComponents="1" format="ascii">
 22 44 66 88 110 132 154 176 198 220 242 264 286 308 330 352 374
            </DataArray>
            <DataArray type="UInt8"  Name="types" NumberOfComponents="1" format="ascii">
6 6 6 6 6 6 6 6 6 6 6 6 6 6 6 6 6
            </DataArray>
         </Cells>
         <CellData>
           <DataArray type="Float32" Name="combinedRootClassID" NumberOfComponents="1" format="ascii">
 -2.000e+00 -2.000e+00 -2.000e+00 -2.000e+00 -2.000e+00 -2.000e+00 -2.000e+00 -2.000e+00 -4.000e+00 -4.000e+00 -4.000e+00 -4.000e+00 -4.000e+00 -4.000e+00 -4.000e+00 -4.000e+00 -4.000e+00
           </DataArray>
           <DataArray type="Float32" Name="nitrate/minimalNutrientConcentration" NumberOfComponents="1" format="ascii">
 6.000e+02 6.000e+02 6.000e+02 6.000e+02 6.000e+02 6.000e+02 6.000e+02 6.000e+02 6.000e+02 6.000e+02 6.000e+02 6.000e+02 6.000e+02 6.000e+02 6.000e+02 6.000e+02 6.000e+02
           </DataArray>
           <DataArray type="Float32" Name="nitrate/optimalNutrientConcentration" NumberOfComponents="1" format="ascii">
 1.200e+03 1.200e+03 1.200e+03 1.200e+03 1.200e+03 1.200e+03 1.200e+03 1.200e+03 1.200e+03 1.200e+03 1.200e+03 1.200e+03 1.200e+03 1.200e+03 1.200e+03 1.200e+03 1.200e+03
           </DataArray>
           <DataArray type="Float32" Name="nitrate/radiusDepletionZone" NumberOfComponents="1" format="ascii">
 9.749e-01 1.078e+00 2.113e+00 1.433e+00 1.194e+00 8.388e-01 7.339e-01 5.090e-01 6.906e-01 3.263e+00 1.871e+00 1.403e+00 1.122e+00 7.202e-01 6.173e-01 3.788e-01 3.367e-01
           </DataArray>
           <DataArray type="Float32" Name="nitrate/rootSegmentMinimalNutrientContent" NumberOfComponents="1" format="ascii">
 6.864e+00 3.417e+00 3.981e+00 4.262e+00 4.258e+00 4.256e+00 4.254e+00 4.253e+00 3.458e-01 1.716e-01 1.710e-01 1.705e-01 1.701e-01 1.697e-01 1.695e-01 1.693e-01 1.692e-01
           </DataArray>
           <DataArray type="Float32" Name="nitrate/rootSegmentNutrientUptake" NumberOfComponents="1" format="ascii">
 8.668e-01 3.073e-01 3.387e-01 2.879e-01 2.475e-01 1.891e-01 1.303e-01 5.108e-02 3.732e-01 2.016e-01 1.593e-01 1.422e-01 1.242e-01 1.032e-01 7.962e-02 5.084e-02 1.667e-02
           </DataArray>
           <DataArray type="Float32" Name="nitrate/rootSegmentOptimalNutrientContent" NumberOfComponents="1" format="ascii">
 1.373e+01 6.833e+00 7.963e+00 8.524e+00 8.517e+00 8.512e+00 8.508e+00 8.506e+00 6.917e-01 3.431e-01 3.420e-01 3.410e-01 3.402e-01 3.395e-01 3.390e-01 3.386e-01 3.384e-01
           </DataArray>
           <DataArray type="Float32" Name="parentRootClassID" NumberOfComponents="1" format="ascii">
 -3.000e+00 -3.000e+00 -3.000e+00 -3.000e+00 -3.000e+00 -3.000e+00 -3.000e+00 -3.000e+00 -3.000e+00 -3.000e+00 -3.000e+00 -3.000e+00 -3.000e+00 -3.000e+00 -3.000e+00 -3.000e+00 -3.000e+00
           </DataArray>
           <DataArray type="Float32" Name="plantID" NumberOfComponents="1" format="ascii">
 3.000e+00 3.000e+00 3.000e+00 3.000e+00 3.000e+00 3.000e+00 3.000e+00 3.000e+00 3.000e+00 3.000e+00 3.000e+00 3.000e+00 3.000e+00 3.000e+00 3.000e+00 3.000e+00 3.000e+00
           </DataArray>
           <DataArray type="Float32" Name="plantTypeID" NumberOfComponents="1" format="ascii">
 0.000e+00 0.000e+00 0.000e+00 0.000e+00 0.000e+00 0.000e+00 0.000e+00 0.000e+00 0.000e+00 0.000e+00 0.000e+00 0.000e+00 0.000e+00 0.000e+00 0.000e+00 0.000e+00 0.000e+00
           </DataArray>
           <DataArray type="Float32" Name="rootCircumference" NumberOfComponents="1" format="ascii">
 1.262e+00 1.259e+00 1.259e+00 1.258e+00 1.258e+00 1.257e+00 1.257e+00 1.257e+00 2.859e-01 2.848e-01 2.843e-01 2.839e-01 2.835e-01 2.832e-01 2.830e-01 2.829e-01 2.828e-01
           </DataArray>
           <DataArray type="Float32" Name="rootClassID" NumberOfComponents="1" format="ascii">
 -2.000e+00 -2.000e+00 -2.000e+00 -2.000e+00 -2.000e+00 -2.000e+00 -2.000e+00 -2.000e+00 -4.000e+00 -4.000e+00 -4.000e+00 -4.000e+00 -4.000e+00 -4.000e+00 -4.000e+00 -4.000e+00 -4.000e+00
           </DataArray>
           <DataArray type="Float32" Name="rootDiameter" NumberOfComponents="1" format="ascii">
 4.018e-01 4.009e-01 4.006e-01 4.004e-01 4.003e-01 4.002e-01 4.001e-01 4.000e-01 9.100e-02 9.064e-02 9.049e-02 9.036e-02 9.025e-02 9.016e-02 9.009e-02 9.004e-02 9.001e-02
           </DataArray>
           <DataArray type="Float32" Name="rootLength2Base" NumberOfComponents="1" format="ascii">
 0.000e+00 9.600e-01 1.440e+00 2.000e+00 2.600e+00 3.200e+00 3.800e+00 4.400e+00 0.000e+00 9.428e-01 1.414e+00 1.886e+00 2.357e+00 2.828e+00 3.300e+00 3.771e+00 4.243e+00
           </DataArray>
           <DataArray type="Float32" Name="rootPotentialSecondaryGrowth" NumberOfComponents="1" format="ascii">
 4.018e-01 4.009e-01 4.006e-01 4.004e-01 4.003e-01 4.002e-01 4.001e-01 4.000e-01 9.100e-02 9.064e-02 9.049e-02 9.036e-02 9.025e-02 9.016e-02 9.009e-02 9.004e-02 9.001e-02
           </DataArray>
           <DataArray type="Float32" Name="rootSegmentAge" NumberOfComponents="1" format="ascii">
 2.000e+00 1.400e+00 1.200e+00 1.000e+00 8.000e-01 6.000e-01 4.000e-01 2.000e-01 2.000e+00 1.600e+00 1.400e+00 1.200e+00 1.000e+00 8.000e-01 6.000e-01 4.000e-01 2.000e-01
           </DataArray>
           <DataArray type="Float32" Name="rootSegmentDryWeight" NumberOfComponents="1" format="ascii">
 1.144e-02 5.694e-03 6.636e-03 7.103e-03 7.097e-03 7.093e-03 7.090e-03 7.088e-03 5.764e-04 2.859e-04 2.850e-04 2.842e-04 2.835e-04 2.829e-04 2.825e-04 2.821e-04 2.820e-04
           </DataArray>
           <DataArray type="Float32" Name="rootSegmentLength" NumberOfComponents="1" format="ascii">
 9.600e-01 4.800e-01 5.600e-01 6.000e-01 6.000e-01 6.000e-01 6.000e-01 6.000e-01 9.428e-01 4.714e-01 4.714e-01 4.714e-01 4.714e-01 4.714e-01 4.714e-01 4.714e-01 4.714e-01
           </DataArray>
           <DataArray type="Float32" Name="rootSegmentLengthDuration" NumberOfComponents="1" format="ascii">
 1.599e+00 6.240e-01 6.160e-01 5.400e-01 4.200e-01 3.000e-01 1.800e-01 6.000e-02 1.697e+00 7.071e-01 6.128e-01 5.185e-01 4.243e-01 3.300e-01 2.357e-01 1.414e-01 4.714e-02
           </DataArray>
           <DataArray type="Float32" Name="rootSegmentSurfaceArea" NumberOfComponents="1" format="ascii">
 1.212e+00 6.045e-01 7.048e-01 7.548e-01 7.545e-01 7.543e-01 7.541e-01 7.540e-01 2.695e-01 1.342e-01 1.340e-01 1.338e-01 1.337e-01 1.335e-01 1.334e-01 1.333e-01 1.333e-01
           </DataArray>
           <DataArray type="Float32" Name="rootSegmentVolume" NumberOfComponents="1" format="ascii">
 1.217e-01 6.058e-02 7.059e-02 7.556e-02 7.550e-02 7.546e-02 7.542e-02 7.540e-02 6.132e-03 3.042e-03 3.032e-03 3.023e-03 3.016e-03 3.010e-03 3.005e-03 3.002e-03 3.000e-03
           </DataArray>
           <DataArray type="Float32" Name="spatialRootDensity" NumberOfComponents="1" format="ascii">
 3.376e-01 2.251e-01 0.000e+00 0.000e+00 0.000e+00 0.000e+00 0.000e+00 0.000e+00 3.438e-01 2.292e-01 0.000e+00 0.000e+00 0.000e+00 0.000e+00 0.000e+00 0.000e+00 0.000e+00
           </DataArray>
         </CellData>
      </Piece>
   </UnstructuredGrid>
</VTKFile>
