<?xml version="1.0"?>
<VTKFile type="UnstructuredGrid" version="0.1" byte_order="LittleEndian">
   <UnstructuredGrid>
      <Piece NumberOfPoints="21760" NumberOfCells="1522">
         <Points>
            <DataArray type="Float32" Name="Position" NumberOfComponents="3" format="ascii">
-0.053	-5.036	0.146
-0.054	-5.028	0.150
-0.055	-5.019	0.149
-0.056	-5.012	0.142
-0.055	-5.011	0.133
-0.055	-5.015	0.125
-0.053	-5.023	0.121
-0.052	-5.032	0.122
-0.052	-5.039	0.128
-0.052	-5.040	0.137
-0.880	-5.128	0.103
-0.881	-5.120	0.107
-0.882	-5.111	0.106
-0.882	-5.104	0.100
-0.882	-5.102	0.091
-0.881	-5.106	0.082
-0.880	-5.114	0.078
-0.879	-5.123	0.079
-0.879	-5.130	0.085
-0.879	-5.132	0.094
-1.753	-5.216	0.067
-1.754	-5.208	0.071
-1.755	-5.199	0.070
-1.755	-5.192	0.063
-1.754	-5.191	0.054
-1.754	-5.195	0.046
-1.752	-5.203	0.042
-1.752	-5.212	0.043
-1.752	-5.219	0.050
-1.752	-5.220	0.059
-2.291	-5.254	0.009
-2.292	-5.246	0.013
-2.292	-5.237	0.012
-2.292	-5.231	0.005
-2.291	-5.229	-0.004
-2.290	-5.234	-0.012
-2.289	-5.242	-0.016
-2.288	-5.251	-0.015
-2.289	-5.257	-0.008
-2.290	-5.259	0.001
-0.097	-5.074	0.253
-0.098	-5.068	0.260
-0.101	-5.065	0.268
-0.105	-5.069	0.276
-0.109	-5.076	0.279
-0.111	-5.085	0.278
-0.110	-5.092	0.272
-0.107	-5.094	0.263
-0.103	-5.091	0.256
-0.099	-5.083	0.252
0.644	-5.293	0.569
0.644	-5.286	0.576
0.641	-5.284	0.584
0.637	-5.288	0.592
0.633	-5.295	0.595
0.631	-5.304	0.594
0.631	-5.311	0.587
0.633	-5.312	0.578
0.637	-5.309	0.571
0.641	-5.301	0.567
1.389	-5.611	0.789
1.390	-5.605	0.796
1.388	-5.602	0.805
1.383	-5.605	0.812
1.378	-5.613	0.816
1.375	-5.621	0.814
1.374	-5.627	0.807
1.377	-5.630	0.799
1.381	-5.627	0.791
1.386	-5.619	0.788
1.747	-5.817	0.969
1.748	-5.811	0.976
1.745	-5.808	0.984
1.740	-5.810	0.991
1.735	-5.817	0.995
1.731	-5.825	0.993
1.730	-5.832	0.987
1.733	-5.835	0.979
1.738	-5.832	0.971
1.743	-5.826	0.968
-0.533	-5.867	1.285
-0.535	-5.860	1.289
-0.538	-5.851	1.289
-0.539	-5.844	1.283
-0.538	-5.841	1.274
-0.536	-5.845	1.265
-0.534	-5.852	1.260
-0.531	-5.861	1.261
-0.530	-5.868	1.267
-0.531	-5.870	1.276
-1.371	-6.082	1.172
-1.373	-6.075	1.178
-1.375	-6.066	1.177
-1.377	-6.059	1.172
-1.377	-6.056	1.163
-1.377	-6.059	1.154
-1.375	-6.066	1.149
-1.373	-6.076	1.149
-1.371	-6.083	1.155
-1.371	-6.085	1.164
-2.181	-6.244	1.266
-2.183	-6.237	1.271
-2.185	-6.228	1.272
-2.187	-6.221	1.266
-2.188	-6.218	1.258
-2.188	-6.221	1.249
-2.187	-6.228	1.243
-2.185	-6.237	1.243
-2.183	-6.244	1.248
-2.182	-6.247	1.257
-2.697	-6.366	1.293
-2.699	-6.358	1.298
-2.701	-6.349	1.298
-2.703	-6.342	1.293
-2.704	-6.339	1.284
-2.704	-6.342	1.275
-2.702	-6.349	1.270
-2.700	-6.358	1.270
-2.698	-6.365	1.275
-2.697	-6.368	1.284
-0.570	-5.973	1.376
-0.566	-5.965	1.379
-0.566	-5.956	1.380
-0.572	-5.949	1.377
-0.579	-5.946	1.373
-0.587	-5.949	1.369
-0.591	-5.957	1.366
-0.591	-5.966	1.366
-0.586	-5.973	1.368
-0.578	-5.976	1.372
-0.984	-6.041	2.151
-0.980	-6.034	2.154
-0.981	-6.025	2.155
-0.986	-6.017	2.154
-0.994	-6.015	2.150
-1.001	-6.018	2.145
-1.005	-6.025	2.141
-1.004	-6.035	2.140
-0.999	-6.042	2.142
-0.991	-6.044	2.146
-1.342	-6.196	2.739
-1.338	-6.188	2.743
-1.339	-6.179	2.745
-1.345	-6.172	2.743
-1.353	-6.170	2.739
-1.360	-6.173	2.734
-1.364	-6.180	2.730
-1.362	-6.189	2.728
-1.357	-6.196	2.730
-1.349	-6.199	2.734
-0.610	-6.080	1.468
-0.606	-6.072	1.470
-0.608	-6.063	1.471
-0.614	-6.056	1.471
-0.623	-6.054	1.469
-0.631	-6.058	1.467
-0.635	-6.066	1.465
-0.634	-6.075	1.465
-0.628	-6.082	1.465
-0.618	-6.084	1.466
-0.761	-6.192	2.317
-0.757	-6.184	2.318
-0.759	-6.174	2.320
-0.765	-6.168	2.320
-0.774	-6.167	2.319
-0.783	-6.171	2.318
-0.787	-6.179	2.317
-0.785	-6.188	2.316
-0.778	-6.195	2.315
-0.769	-6.196	2.316
-0.754	-6.280	3.028
-0.751	-6.271	3.029
-0.753	-6.262	3.030
-0.760	-6.256	3.031
-0.769	-6.255	3.031
-0.777	-6.260	3.031
-0.781	-6.268	3.030
-0.779	-6.277	3.029
-0.772	-6.283	3.028
-0.762	-6.284	3.028
-0.651	-6.192	1.564
-0.647	-6.184	1.568
-0.648	-6.175	1.568
-0.653	-6.168	1.566
-0.661	-6.165	1.562
-0.668	-6.168	1.557
-0.672	-6.176	1.554
-0.672	-6.185	1.553
-0.667	-6.192	1.555
-0.659	-6.195	1.559
-1.088	-6.278	2.307
-1.084	-6.270	2.311
-1.086	-6.261	2.312
-1.091	-6.254	2.311
-1.099	-6.251	2.306
-1.106	-6.254	2.301
-1.109	-6.262	2.297
-1.108	-6.271	2.295
-1.103	-6.278	2.297
-1.095	-6.281	2.301
-1.549	-6.542	2.943
-1.546	-6.534	2.947
-1.547	-6.525	2.949
-1.553	-6.518	2.948
-1.561	-6.516	2.944
-1.568	-6.519	2.938
-1.572	-6.526	2.934
-1.570	-6.535	2.932
-1.565	-6.542	2.933
-1.557	-6.545	2.937
-1.747	-6.632	3.341
-1.743	-6.624	3.344
-1.745	-6.615	3.346
-1.750	-6.608	3.345
-1.759	-6.606	3.341
-1.766	-6.609	3.337
-1.770	-6.617	3.333
-1.769	-6.626	3.332
-1.763	-6.633	3.333
-1.755	-6.635	3.336
-0.693	-6.285	1.639
-0.686	-6.285	1.645
-0.682	-6.288	1.653
-0.684	-6.294	1.660
-0.691	-6.299	1.664
-0.699	-6.303	1.663
-0.706	-6.303	1.657
-0.710	-6.300	1.649
-0.708	-6.294	1.642
-0.701	-6.289	1.638
-0.352	-6.961	1.243
-0.345	-6.960	1.249
-0.342	-6.962	1.258
-0.345	-6.967	1.265
-0.351	-6.973	1.269
-0.359	-6.977	1.267
-0.366	-6.978	1.260
-0.368	-6.976	1.252
-0.366	-6.971	1.245
-0.360	-6.965	1.241
0.159	-7.596	0.991
0.165	-7.594	0.998
0.167	-7.596	1.007
0.165	-7.601	1.014
0.159	-7.607	1.017
0.151	-7.612	1.015
0.145	-7.614	1.009
0.143	-7.612	1.000
0.145	-7.607	0.992
0.151	-7.601	0.989
0.241	-7.702	0.946
0.245	-7.702	0.954
0.244	-7.702	0.964
0.237	-7.702	0.970
0.228	-7.702	0.972
0.220	-7.702	0.967
0.215	-7.702	0.959
0.217	-7.702	0.950
0.223	-7.702	0.943
0.233	-7.702	0.942
-0.721	-6.420	1.742
-0.717	-6.412	1.744
-0.718	-6.403	1.744
-0.724	-6.396	1.744
-0.733	-6.394	1.742
-0.741	-6.398	1.740
-0.745	-6.406	1.739
-0.744	-6.415	1.738
-0.738	-6.422	1.739
-0.729	-6.424	1.741
-0.875	-6.476	2.567
-0.871	-6.468	2.568
-0.872	-6.459	2.568
-0.879	-6.452	2.569
-0.888	-6.451	2.568
-0.896	-6.455	2.567
-0.900	-6.463	2.566
-0.899	-6.472	2.566
-0.892	-6.479	2.566
-0.883	-6.480	2.566
-0.833	-6.540	3.432
-0.829	-6.532	3.433
-0.831	-6.523	3.434
-0.837	-6.517	3.434
-0.847	-6.515	3.434
-0.855	-6.520	3.433
-0.859	-6.528	3.432
-0.857	-6.537	3.431
-0.850	-6.544	3.431
-0.841	-6.545	3.431
-0.849	-6.549	3.554
-0.845	-6.549	3.562
-0.846	-6.549	3.571
-0.853	-6.549	3.577
-0.862	-6.549	3.579
-0.870	-6.549	3.575
-0.874	-6.549	3.566
-0.873	-6.549	3.557
-0.866	-6.549	3.551
-0.857	-6.549	3.549
-0.764	-6.533	1.844
-0.766	-6.525	1.847
-0.766	-6.516	1.845
-0.766	-6.510	1.838
-0.764	-6.509	1.829
-0.762	-6.513	1.821
-0.760	-6.522	1.818
-0.760	-6.531	1.820
-0.760	-6.537	1.827
-0.762	-6.538	1.836
-1.620	-6.631	1.672
-1.622	-6.623	1.676
-1.623	-6.613	1.674
-1.623	-6.607	1.668
-1.622	-6.606	1.658
-1.620	-6.610	1.650
-1.618	-6.618	1.647
-1.616	-6.627	1.648
-1.617	-6.633	1.655
-1.618	-6.635	1.664
-2.295	-6.746	1.552
-2.287	-6.741	1.552
-2.278	-6.743	1.552
-2.271	-6.749	1.552
-2.270	-6.759	1.552
-2.274	-6.767	1.552
-2.282	-6.771	1.552
-2.291	-6.770	1.552
-2.298	-6.763	1.552
-2.299	-6.754	1.552
-0.789	-6.631	1.911
-0.791	-6.625	1.918
-0.793	-6.625	1.926
-0.796	-6.629	1.934
-0.798	-6.638	1.937
-0.798	-6.647	1.935
-0.797	-6.653	1.928
-0.794	-6.654	1.919
-0.791	-6.649	1.912
-0.789	-6.640	1.908
0.048	-6.722	2.162
0.047	-6.716	2.169
0.045	-6.716	2.178
0.042	-6.721	2.185
0.040	-6.730	2.188
0.040	-6.738	2.186
0.041	-6.744	2.179
0.043	-6.745	2.170
0.046	-6.740	2.162
0.047	-6.731	2.159
0.845	-6.831	2.312
0.844	-6.826	2.320
0.842	-6.825	2.329
0.840	-6.831	2.336
0.839	-6.839	2.339
0.838	-6.848	2.336
0.839	-6.854	2.329
0.840	-6.854	2.320
0.842	-6.849	2.312
0.844	-6.840	2.310
-0.825	-6.765	2.024
-0.827	-6.757	2.027
-0.827	-6.748	2.024
-0.826	-6.742	2.017
-0.823	-6.742	2.008
-0.821	-6.747	2.001
-0.819	-6.755	1.998
-0.819	-6.764	2.000
-0.820	-6.770	2.008
-0.823	-6.770	2.017
-1.636	-6.852	1.793
-1.638	-6.843	1.795
-1.638	-6.835	1.793
-1.636	-6.829	1.785
-1.633	-6.829	1.776
-1.631	-6.834	1.769
-1.630	-6.843	1.767
-1.630	-6.852	1.769
-1.631	-6.857	1.776
-1.634	-6.857	1.785
-2.480	-6.888	1.557
-2.481	-6.879	1.559
-2.481	-6.870	1.556
-2.478	-6.865	1.549
-2.475	-6.865	1.540
-2.473	-6.871	1.533
-2.471	-6.880	1.531
-2.472	-6.889	1.534
-2.474	-6.894	1.542
-2.478	-6.893	1.551
-2.543	-6.891	1.531
-2.544	-6.882	1.532
-2.543	-6.874	1.529
-2.540	-6.869	1.521
-2.537	-6.870	1.513
-2.534	-6.876	1.507
-2.532	-6.885	1.505
-2.533	-6.894	1.509
-2.536	-6.898	1.516
-2.540	-6.897	1.525
-0.843	-6.886	2.104
-0.838	-6.878	2.106
-0.839	-6.869	2.107
-0.844	-6.861	2.105
-0.852	-6.859	2.101
-0.860	-6.862	2.097
-0.865	-6.870	2.095
-0.864	-6.879	2.095
-0.859	-6.886	2.096
-0.851	-6.889	2.100
-1.183	-6.934	2.869
-1.179	-6.926	2.872
-1.181	-6.917	2.873
-1.187	-6.910	2.872
-1.195	-6.908	2.870
-1.203	-6.912	2.866
-1.207	-6.919	2.863
-1.206	-6.928	2.862
-1.200	-6.935	2.862
-1.191	-6.937	2.865
-1.380	-7.211	3.613
-1.377	-7.203	3.617
-1.379	-7.195	3.620
-1.386	-7.188	3.620
-1.395	-7.187	3.618
-1.402	-7.191	3.615
-1.406	-7.199	3.611
-1.404	-7.207	3.608
-1.397	-7.213	3.608
-1.388	-7.215	3.610
-0.146	-5.140	0.379
-0.147	-5.133	0.385
-0.151	-5.130	0.392
-0.156	-5.132	0.400
-0.160	-5.139	0.404
-0.162	-5.148	0.404
-0.161	-5.156	0.398
-0.157	-5.159	0.391
-0.152	-5.157	0.383
-0.148	-5.149	0.379
0.568	-5.302	0.801
0.567	-5.295	0.807
0.564	-5.292	0.815
0.560	-5.296	0.823
0.556	-5.303	0.827
0.554	-5.312	0.825
0.555	-5.319	0.820
0.558	-5.322	0.811
0.562	-5.318	0.804
0.566	-5.311	0.800
1.289	-5.546	1.085
1.297	-5.546	1.089
1.306	-5.546	1.087
1.313	-5.546	1.081
1.314	-5.546	1.072
1.310	-5.546	1.063
1.302	-5.546	1.059
1.293	-5.546	1.061
1.286	-5.546	1.067
1.285	-5.546	1.076
-0.871	-6.989	2.177
-0.873	-6.981	2.181
-0.877	-6.977	2.189
-0.882	-6.979	2.196
-0.887	-6.986	2.200
-0.889	-6.995	2.200
-0.887	-7.003	2.196
-0.883	-7.007	2.188
-0.878	-7.005	2.181
-0.873	-6.998	2.176
-0.158	-7.151	2.658
-0.158	-7.143	2.662
-0.162	-7.138	2.670
-0.168	-7.139	2.677
-0.174	-7.146	2.681
-0.177	-7.154	2.681
-0.176	-7.162	2.676
-0.172	-7.167	2.669
-0.166	-7.166	2.662
-0.161	-7.159	2.658
0.120	-7.291	2.904
0.120	-7.283	2.908
0.116	-7.278	2.915
0.110	-7.279	2.922
0.104	-7.284	2.926
0.100	-7.293	2.926
0.100	-7.301	2.921
0.104	-7.305	2.914
0.110	-7.305	2.907
0.116	-7.299	2.903
[...]
         <CellData>
           <DataArray type="Float32" Name="combinedRootClassID" NumberOfComponents="1" format="ascii">
 -1.300e+01 -1.300e+01 -1.300e+01 -1.300e+01 -1.300e+01 -1.300e+01 -1.300e+01 -1.300e+01 -1.300e+01 -1.300e+01 -1.300e+01 -1.300e+01 -1.300e+01 -1.300e+01 -1.300e+01 -1.300e+01 -1.300e+01 -1.300e+01 -1.300e+01 -1.300e+01 -1.300e+01 -1.300e+01 -1.300e+01 -1.300e+01 -1.300e+01 -1.300e+01 -1.300e+01 -1.300e+01 -1.300e+01 -1.300e+01 -1.300e+01 -1.300e+01 -1.300e+01 -1.300e+01 -1.300e+01 -1.300e+01 -1.300e+01 -1.300e+01 -1.300e+01 -1.300e+01 -1.300e+01 -1.300e+01 -1.300e+01 -1.300e+01 -1.300e+01 -1.300e+01 -1.300e+01 -1.300e+01 -1.300e+01 -1.300e+01 -1.300e+01 -1.300e+01 -1.300e+01 -1.300e+01 -1.300e+01 -1.300e+01 -1.300e+01 -1.300e+01 -1.300e+01 -1.300e+01 -1.300e+01 -1.300e+01 -1.300e+01 -1.300e+01 -1.300e+01 -1.300e+01 -1.300e+01 -1.300e+01 -1.300e+01 -1.300e+01 -1.300e+01 -1.300e+01 -1.300e+01 -1.300e+01 -1.300e+01 -1.300e+01 -1.300e+01 -1.300e+01 -1.300e+01 -1.300e+01 -1.300e+01 -1.300e+01 -1.300e+01 -1.300e+01 -1.300e+01 -1.300e+01 -1.300e+01 -1.300e+01 -1.300e+01 -1.300e+01 -1.300e+01 -1.300e+01 -1.300e+01 -1.300e+01 -1.300e+01 -1.300e+01 -1.300e+01 -1.300e+01 -1.300e+01 -1.300e+01 -1.300e+01 -1.300e+01 -1.300e+01 -1.300e+01 -1.300e+01 -1.300e+01 -1.300e+01 -1.300e+01 -1.300e+01 -1.300e+01 -1.300e+01 -1.300e+01 -1.300e+01 -1.300e+01 -1.300e+01 -1.300e+01 -1.300e+01 -1.300e+01 -1.300e+01 -1.300e+01 -1.300e+01 -1.300e+01 -1.300e+01 -1.300e+01 -1.300e+01 -1.300e+01 -1.300e+01 -1.300e+01 -1.300e+01 -1.300e+01 -1.300e+01 -1.300e+01 -1.300e+01 -1.300e+01 -1.300e+01 -1.300e+01 -1.300e+01 -1.300e+01 -1.300e+01 -1.300e+01 -1.300e+01 -1.300e+01 -1.300e+01 -1.300e+01 -1.300e+01 -1.300e+01 -1.300e+01 -1.300e+01 -1.300e+01 -1.300e+01 -1.300e+01 -1.300e+01 -1.300e+01 -1.300e+01 -1.300e+01 -5.000e+00 -5.000e+00 -5.000e+00 -5.000e+00 -5.000e+00 -5.000e+00 -5.000e+00 -5.000e+00 -5.000e+00 -5.000e+00 -5.000e+00 -5.000e+00 -5.000e+00 -5.000e+00 -5.000e+00 -5.000e+00 -5.000e+00 -5.000e+00 -5.000e+00 -5.000e+00 -5.000e+00 -5.000e+00 -5.000e+00 -5.000e+00 -5.000e+00 -5.000e+00 -5.000e+00 -5.000e+00 -1.300e+01 -1.300e+01 -1.300e+01 -1.300e+01 -1.300e+01 -1.300e+01 -1.300e+01 -1.300e+01 -1.300e+01 -1.300e+01 -1.300e+01 -1.300e+01 -1.300e+01 -1.300e+01 -1.300e+01 -1.300e+01 -1.300e+01 -1.300e+01 -1.300e+01 -1.300e+01 -1.300e+01 -1.300e+01 -1.300e+01 -1.300e+01 -1.300e+01 -1.300e+01 -1.300e+01 -1.300e+01 -1.300e+01 -1.300e+01 -1.300e+01 -1.300e+01 -1.300e+01 -1.300e+01 -1.300e+01 -1.300e+01 -1.300e+01 -1.300e+01 -1.300e+01 -1.300e+01 -1.300e+01 -1.300e+01 -1.300e+01 -1.300e+01 -1.300e+01 -1.300e+01 -1.300e+01 -1.300e+01 -1.300e+01 -1.300e+01 -1.300e+01 -1.300e+01 -1.300e+01 -1.300e+01 -1.300e+01 -1.300e+01 -1.300e+01 -1.300e+01 -1.300e+01 -1.300e+01 -1.300e+01 -1.300e+01 -1.300e+01 -1.300e+01 -1.300e+01 -1.300e+01 -1.300e+01 -1.300e+01 -1.300e+01 -1.300e+01 -1.300e+01 -1.300e+01 -1.300e+01 -1.300e+01 -1.300e+01 -1.300e+01 -1.300e+01 -1.300e+01 -1.300e+01 -1.300e+01 -1.300e+01 -1.300e+01 -1.300e+01 -1.300e+01 -1.300e+01 -1.300e+01 -1.300e+01 -1.300e+01 -1.300e+01 -1.300e+01 -1.300e+01 -1.300e+01 -1.300e+01 -1.300e+01 -1.300e+01 -1.300e+01 -1.300e+01 -1.300e+01 -1.300e+01 -1.300e+01 -1.300e+01 -1.300e+01 -1.300e+01 -1.300e+01 -1.300e+01 -1.300e+01 -1.300e+01 -1.300e+01 -1.300e+01 -1.300e+01 -1.300e+01 -1.300e+01 -1.300e+01 -1.300e+01 -1.300e+01 -1.300e+01 -1.300e+01 -1.300e+01 -1.300e+01 -1.300e+01 -1.300e+01 -1.300e+01 -1.300e+01 -1.300e+01 -1.300e+01 -1.300e+01 -1.300e+01 -1.300e+01 -1.300e+01 -1.300e+01 -1.300e+01 -1.300e+01 -1.300e+01 -1.300e+01 -1.300e+01 -1.300e+01 -1.300e+01 -1.300e+01 -1.300e+01 -1.300e+01 -1.300e+01 -1.300e+01 -1.300e+01 -1.300e+01 -1.300e+01 -1.300e+01 -1.300e+01 -1.300e+01 -1.300e+01 -1.300e+01 -1.300e+01 -5.000e+00 -5.000e+00 -5.000e+00 -5.000e+00 -5.000e+00 -5.000e+00 -5.000e+00 -5.000e+00 -5.000e+00 -5.000e+00 -5.000e+00 -5.000e+00 -5.000e+00 -5.000e+00 -5.000e+00 -5.000e+00 -5.000e+00 -5.000e+00 -5.000e+00 -5.000e+00 -5.000e+00 -5.000e+00 -5.000e+00 -5.000e+00 -5.000e+00 -5.000e+00 -5.000e+00 -5.000e+00 -1.300e+01 -1.300e+01 -1.300e+01 -1.300e+01 -1.300e+01 -1.300e+01 -1.300e+01 -1.300e+01 -1.300e+01 -1.300e+01 -1.300e+01 -1.300e+01 -1.300e+01 -1.300e+01 -1.300e+01 -1.300e+01 -1.300e+01 -1.300e+01 -1.300e+01 -1.300e+01 -1.300e+01 -1.300e+01 -1.300e+01 -1.300e+01 -1.300e+01 -1.300e+01 -1.300e+01 -1.300e+01 -1.300e+01 -1.300e+01 -1.300e+01 -1.300e+01 -1.300e+01 -1.300e+01 -1.300e+01 -1.300e+01 -1.300e+01 -1.300e+01 -1.300e+01 -1.300e+01 -1.300e+01 -1.300e+01 -1.300e+01 -1.300e+01 -1.300e+01 -1.300e+01 -1.300e+01 -1.300e+01 -1.300e+01 -1.300e+01 -1.300e+01 -1.300e+01 -1.300e+01 -1.300e+01 -1.300e+01 -1.300e+01 -1.300e+01 -1.300e+01 -1.300e+01 -1.300e+01 -1.300e+01 -1.300e+01 -1.300e+01 -1.300e+01 -1.300e+01 -1.300e+01 -1.300e+01 -1.300e+01 -1.300e+01 -1.300e+01 -1.300e+01 -1.300e+01 -1.300e+01 -1.300e+01 -1.300e+01 -1.300e+01 -1.300e+01 -1.300e+01 -1.300e+01 -1.300e+01 -1.300e+01 -1.300e+01 -1.300e+01 -1.300e+01 -1.300e+01 -1.300e+01 -1.300e+01 -1.300e+01 -1.300e+01 -1.300e+01 -1.300e+01 -1.300e+01 -1.300e+01 -1.300e+01 -1.300e+01 -1.300e+01 -1.300e+01 -1.300e+01 -1.300e+01 -1.300e+01 -1.300e+01 -1.300e+01 -1.300e+01 -1.300e+01 -1.300e+01 -1.300e+01 -1.300e+01 -1.300e+01 -1.300e+01 -1.300e+01 -1.300e+01 -1.300e+01 -1.300e+01 -1.300e+01 -1.300e+01 -1.300e+01 -1.300e+01 -1.300e+01 -1.300e+01 -1.300e+01 -1.300e+01 -1.300e+01 -1.300e+01 -1.300e+01 -1.300e+01 -1.300e+01 -1.300e+01 -1.300e+01 -1.300e+01 -1.300e+01 -1.300e+01 -1.300e+01 -1.300e+01 -1.300e+01 -1.300e+01 -1.300e+01 -1.300e+01 -1.300e+01 -1.300e+01 -1.300e+01 -1.300e+01 -1.300e+01 -1.300e+01 -1.300e+01 -1.300e+01 -5.000e+00 -5.000e+00 -5.000e+00 -5.000e+00 -5.000e+00 -5.000e+00 -5.000e+00 -5.000e+00 -5.000e+00 -5.000e+00 -5.000e+00 -5.000e+00 -5.000e+00 -5.000e+00 -5.000e+00 -5.000e+00 -5.000e+00 -5.000e+00 -5.000e+00 -5.000e+00 -5.000e+00 -5.000e+00 -5.000e+00 -5.000e+00 -5.000e+00 -5.000e+00 -5.000e+00 -5.000e+00 -1.300e+01 -1.300e+01 -1.300e+01 -1.300e+01 -1.300e+01 -1.300e+01 -1.300e+01 -1.300e+01 -1.300e+01 -1.300e+01 -1.300e+01 -1.300e+01 -1.300e+01 -1.300e+01 -1.300e+01 -1.300e+01 -1.300e+01 -1.300e+01 -1.300e+01 -1.300e+01 -1.300e+01 -1.300e+01 -1.300e+01 -1.300e+01 -1.300e+01 -1.300e+01 -1.300e+01 -1.300e+01 -1.300e+01 -1.300e+01 -1.300e+01 -1.300e+01 -1.300e+01 -1.300e+01 -1.300e+01 -1.300e+01 -1.300e+01 -1.300e+01 -1.300e+01 -1.300e+01 -1.300e+01 -1.300e+01 -1.300e+01 -1.300e+01 -1.300e+01 -1.300e+01 -1.300e+01 -1.300e+01 -1.300e+01 -1.300e+01 -1.300e+01 -1.300e+01 -1.300e+01 -1.300e+01 -1.300e+01 -1.300e+01 -1.300e+01 -1.300e+01 -1.300e+01 -1.300e+01 -1.300e+01 -1.300e+01 -1.300e+01 -1.300e+01 -1.300e+01 -1.300e+01 -1.300e+01 -1.300e+01 -1.300e+01 -1.300e+01 -1.300e+01 -1.300e+01 -1.300e+01 -1.300e+01 -1.300e+01 -1.300e+01 -1.300e+01 -1.300e+01 -1.300e+01 -1.300e+01 -1.300e+01 -1.300e+01 -1.300e+01 -1.300e+01 -1.300e+01 -1.300e+01 -1.300e+01 -1.300e+01 -1.300e+01 -1.300e+01 -1.300e+01 -1.300e+01 -1.300e+01 -1.300e+01 -1.300e+01 -1.300e+01 -1.300e+01 -1.300e+01 -1.300e+01 -1.300e+01 -1.300e+01 -1.300e+01 -1.300e+01 -1.300e+01 -1.300e+01 -1.300e+01 -1.300e+01 -1.300e+01 -1.300e+01 -1.300e+01 -1.300e+01 -1.300e+01 -1.300e+01 -1.300e+01 -1.300e+01 -1.300e+01 -1.300e+01 -1.300e+01 -1.300e+01 -1.300e+01 -1.300e+01 -1.300e+01 -1.300e+01 -1.300e+01 -1.300e+01 -1.300e+01 -1.300e+01 -1.300e+01 -1.300e+01 -1.300e+01 -1.300e+01 -1.300e+01 -1.300e+01 -1.300e+01 -1.300e+01 -1.300e+01 -1.300e+01 -1.300e+01 -1.300e+01 -1.300e+01 -1.300e+01 -1.300e+01 -1.300e+01 -1.300e+01 -1.300e+01 -1.300e+01 -1.300e+01 -5.000e+00 -5.000e+00 -5.000e+00 -5.000e+00 -5.000e+00 -5.000e+00 -5.000e+00 -5.000e+00 -5.000e+00 -5.000e+00 -5.000e+00 -5.000e+00 -5.000e+00 -5.000e+00 -5.000e+00 -5.000e+00 -5.000e+00 -5.000e+00 -5.000e+00 -5.000e+00 -5.000e+00 -5.000e+00 -5.000e+00 -5.000e+00 -5.000e+00 -5.000e+00 -5.000e+00 -5.000e+00 -1.900e+01 -1.900e+01 -1.900e+01 -1.900e+01 -1.900e+01 -1.900e+01 -1.900e+01 -1.900e+01 -1.900e+01 -1.900e+01 -1.900e+01 -1.900e+01 -1.900e+01 -1.900e+01 -1.900e+01 -1.900e+01 -1.900e+01 -1.900e+01 -1.900e+01 -1.900e+01 -1.100e+01 -1.100e+01 -1.100e+01 -1.100e+01 -1.100e+01 -1.100e+01 -1.100e+01 -1.100e+01 -1.100e+01 -1.100e+01 -1.100e+01 -1.100e+01 -1.100e+01 -1.100e+01 -1.100e+01 -1.100e+01 -1.100e+01 -1.900e+01 -1.900e+01 -1.900e+01 -1.900e+01 -1.900e+01 -1.900e+01 -1.900e+01 -1.900e+01 -1.900e+01 -1.900e+01 -1.900e+01 -1.900e+01 -1.900e+01 -1.900e+01 -1.900e+01 -1.900e+01 -1.900e+01 -1.900e+01 -1.900e+01 -1.900e+01 -1.100e+01 -1.100e+01 -1.100e+01 -1.100e+01 -1.100e+01 -1.100e+01 -1.100e+01 -1.100e+01 -1.100e+01 -1.100e+01 -1.100e+01 -1.100e+01 -1.100e+01 -1.100e+01 -1.100e+01 -1.100e+01 -1.100e+01 -1.900e+01 -1.900e+01 -1.900e+01 -1.900e+01 -1.900e+01 -1.900e+01 -1.900e+01 -1.900e+01 -1.900e+01 -1.900e+01 -1.900e+01 -1.900e+01 -1.900e+01 -1.900e+01 -1.900e+01 -1.900e+01 -1.900e+01 -1.900e+01 -1.900e+01 -1.900e+01 -1.100e+01 -1.100e+01 -1.100e+01 -1.100e+01 -1.100e+01 -1.100e+01 -1.100e+01 -1.100e+01 -1.100e+01 -1.100e+01 -1.100e+01 -1.100e+01 -1.100e+01 -1.100e+01 -1.100e+01 -1.100e+01 -1.100e+01 -1.900e+01 -1.900e+01 -1.900e+01 -1.900e+01 -1.900e+01 -1.900e+01 -1.900e+01 -1.900e+01 -1.900e+01 -1.900e+01 -1.900e+01 -1.900e+01 -1.900e+01 -1.900e+01 -1.900e+01 -1.900e+01 -1.900e+01 -1.900e+01 -1.900e+01 -1.900e+01 -1.100e+01 -1.100e+01 -1.100e+01 -1.100e+01 -1.100e+01 -1.100e+01 -1.100e+01 -1.100e+01 -1.100e+01 -1.100e+01 -1.100e+01 -1.100e+01 -1.100e+01 -1.100e+01 -1.100e+01 -1.100e+01 -1.100e+01 -2.000e+01 -2.000e+01 -2.000e+01 -2.000e+01 -2.000e+01 -2.000e+01 -2.000e+01 -2.000e+01 -2.000e+01 -2.000e+01 -2.000e+01 -2.000e+01 -2.000e+01 -2.000e+01 -2.000e+01 -2.000e+01 -2.000e+01 -2.000e+01 -2.000e+00 -2.000e+00 -2.000e+00 -2.000e+00 -2.000e+00 -2.000e+00 -2.000e+00 -2.000e+00 -2.000e+00 -2.000e+00 -1.500e+01 -1.500e+01 -7.000e+00 -7.000e+00 -7.000e+00 -7.000e+00 -7.000e+00 -7.000e+00 -1.500e+01 -1.500e+01 -7.000e+00 -7.000e+00 -7.000e+00 -7.000e+00 -7.000e+00 -7.000e+00 -1.500e+01 -7.000e+00 -7.000e+00 -7.000e+00 -7.000e+00 -7.000e+00 -7.000e+00 -7.000e+00 -7.000e+00 -7.000e+00 -7.000e+00 -7.000e+00 -7.000e+00 -7.000e+00 -7.000e+00 -7.000e+00 -7.000e+00 -7.000e+00 -7.000e+00 -7.000e+00 -7.000e+00 -7.000e+00 -7.000e+00 -7.000e+00 -7.000e+00 -7.000e+00 -7.000e+00 -7.000e+00 -7.000e+00 -7.000e+00 -7.000e+00 -1.500e+01 -7.000e+00 -7.000e+00 -7.000e+00 -7.000e+00 -7.000e+00 -7.000e+00 -7.000e+00 -7.000e+00 -7.000e+00 -7.000e+00 -7.000e+00 -7.000e+00 -7.000e+00 -7.000e+00 -7.000e+00 -7.000e+00 -7.000e+00 -7.000e+00 -7.000e+00 -7.000e+00 -7.000e+00 -7.000e+00 -7.000e+00 -7.000e+00 -7.000e+00 -7.000e+00 -7.000e+00 -7.000e+00 -7.000e+00 -7.000e+00 -7.000e+00 -7.000e+00 -7.000e+00 -7.000e+00 -7.000e+00 -7.000e+00 -7.000e+00 -7.000e+00 -7.000e+00 -7.000e+00 -7.000e+00 -7.000e+00 -7.000e+00 -7.000e+00 -7.000e+00 -7.000e+00 -7.000e+00 -7.000e+00 -7.000e+00 -1.500e+01 -7.000e+00 -7.000e+00 -7.000e+00 -7.000e+00 -7.000e+00 -7.000e+00 -7.000e+00 -7.000e+00 -7.000e+00 -7.000e+00 -7.000e+00 -7.000e+00 -7.000e+00 -7.000e+00 -7.000e+00 -7.000e+00 -7.000e+00 -7.000e+00 -7.000e+00 -7.000e+00 -7.000e+00 -7.000e+00 -7.000e+00 -7.000e+00 -7.000e+00 -7.000e+00 -7.000e+00 -7.000e+00 -7.000e+00 -7.000e+00 -7.000e+00 -7.000e+00 -7.000e+00 -7.000e+00 -7.000e+00 -7.000e+00 -7.000e+00 -7.000e+00 -7.000e+00 -7.000e+00 -7.000e+00 -7.000e+00 -7.000e+00 -7.000e+00 -7.000e+00 -7.000e+00 -7.000e+00 -7.000e+00 -7.000e+00 -7.000e+00 -7.000e+00 -7.000e+00 -7.000e+00 -7.000e+00 -7.000e+00 -7.000e+00 -7.000e+00 -7.000e+00 -7.000e+00 -7.000e+00 -7.000e+00 -1.500e+01 -7.000e+00 -7.000e+00 -7.000e+00 -7.000e+00 -7.000e+00 -7.000e+00 -1.500e+01 -7.000e+00 -7.000e+00 -7.000e+00 -7.000e+00 -7.000e+00 -7.000e+00 -7.000e+00 -7.000e+00 -7.000e+00 -7.000e+00 -7.000e+00 -1.500e+01 -7.000e+00 -7.000e+00 -7.000e+00 -7.000e+00 -7.000e+00 -7.000e+00 -1.500e+01 -7.000e+00 -7.000e+00 -7.000e+00 -7.000e+00 -7.000e+00 -7.000e+00 -1.500e+01 -7.000e+00 -7.000e+00 -7.000e+00 -7.000e+00 -7.000e+00 -7.000e+00 -1.500e+01 -7.000e+00 -7.000e+00 -7.000e+00 -7.000e+00 -7.000e+00 -7.000e+00 -7.000e+00 -7.000e+00 -7.000e+00 -7.000e+00 -7.000e+00 -1.500e+01 -7.000e+00 -7.000e+00 -7.000e+00 -7.000e+00 -7.000e+00 -7.000e+00 -1.500e+01 -7.000e+00 -7.000e+00 -7.000e+00 -7.000e+00 -7.000e+00 -7.000e+00 -7.000e+00 -7.000e+00 -7.000e+00 -7.000e+00 -7.000e+00 -7.000e+00 -7.000e+00 -7.000e+00 -7.000e+00 -7.000e+00 -1.500e+01 -7.000e+00 -7.000e+00 -7.000e+00 -7.000e+00 -7.000e+00 -7.000e+00 -1.500e+01 -7.000e+00 -7.000e+00 -7.000e+00 -7.000e+00 -7.000e+00 -7.000e+00 -7.000e+00 -7.000e+00 -7.000e+00 -7.000e+00 -7.000e+00 -7.000e+00 -7.000e+00 -7.000e+00 -7.000e+00 -7.000e+00 -7.000e+00 -7.000e+00 -7.000e+00 -7.000e+00 -7.000e+00 -7.000e+00 -7.000e+00 -7.000e+00 -7.000e+00 -7.000e+00 -7.000e+00 -7.000e+00 -7.000e+00 -7.000e+00 -7.000e+00 -7.000e+00 -7.000e+00 -7.000e+00 -7.000e+00 -7.000e+00 -7.000e+00 -7.000e+00 -7.000e+00 -7.000e+00 -7.000e+00 -7.000e+00 -7.000e+00 -7.000e+00 -7.000e+00 -7.000e+00 -7.000e+00 -7.000e+00 -7.000e+00 -7.000e+00 -7.000e+00 -7.000e+00 -1.500e+01 -7.000e+00 -7.000e+00 -7.000e+00 -7.000e+00 -7.000e+00 -7.000e+00 -7.000e+00 -7.000e+00 -7.000e+00 -7.000e+00 -7.000e+00 -7.000e+00 -7.000e+00 -7.000e+00 -7.000e+00 -7.000e+00 -7.000e+00 -7.000e+00 -7.000e+00 -7.000e+00 -1.500e+01 -7.000e+00 -7.000e+00 -7.000e+00 -7.000e+00 -7.000e+00 -7.000e+00 -7.000e+00 -7.000e+00 -7.000e+00 -7.000e+00 -7.000e+00 -7.000e+00 -7.000e+00 -7.000e+00 -7.000e+00 -7.000e+00 -7.000e+00 -7.000e+00 -7.000e+00 -7.000e+00 -7.000e+00 -7.000e+00 -7.000e+00 -7.000e+00 -7.000e+00 -7.000e+00 -7.000e+00 -7.000e+00 -7.000e+00 -7.000e+00 -1.500e+01 -7.000e+00 -7.000e+00 -7.000e+00 -7.000e+00 -7.000e+00 -7.000e+00 -7.000e+00 -7.000e+00 -7.000e+00 -7.000e+00 -7.000e+00 -7.000e+00 -7.000e+00 -7.000e+00 -7.000e+00 -7.000e+00 -7.000e+00 -7.000e+00 -7.000e+00 -7.000e+00 -7.000e+00 -7.000e+00 -7.000e+00 -7.000e+00 -7.000e+00 -7.000e+00 -7.000e+00 -7.000e+00 -7.000e+00 -7.000e+00 -7.000e+00 -7.000e+00 -7.000e+00 -7.000e+00 -7.000e+00 -7.000e+00 -7.000e+00 -7.000e+00 -7.000e+00 -7.000e+00 -7.000e+00 -7.000e+00 -7.000e+00 -7.000e+00 -7.000e+00 -7.000e+00 -7.000e+00 -7.000e+00 -7.000e+00 -7.000e+00 -1.500e+01 -1.500e+01 -1.500e+01 -7.000e+00 -7.000e+00 -7.000e+00 -7.000e+00 -7.000e+00 -7.000e+00 -7.000e+00 -7.000e+00 -7.000e+00 -7.000e+00 -7.000e+00 -7.000e+00 -7.000e+00 -7.000e+00 -7.000e+00 -7.000e+00 -7.000e+00 -7.000e+00 -7.000e+00 -7.000e+00 -7.000e+00 -7.000e+00 -7.000e+00 -7.000e+00 -7.000e+00 -7.000e+00 -7.000e+00 -7.000e+00 -7.000e+00 -7.000e+00 -7.000e+00 -7.000e+00 -7.000e+00 -7.000e+00 -7.000e+00 -7.000e+00 -7.000e+00 -7.000e+00 -7.000e+00 -7.000e+00 -7.000e+00 -7.000e+00 -7.000e+00 -7.000e+00 -7.000e+00 -7.000e+00 -7.000e+00 -7.000e+00 -1.500e+01 -1.500e+01 -7.000e+00 -7.000e+00 -7.000e+00 -7.000e+00 -7.000e+00 -7.000e+00 -7.000e+00 -7.000e+00 -7.000e+00 -7.000e+00 -7.000e+00 -7.000e+00 -7.000e+00 -7.000e+00 -7.000e+00 -7.000e+00 -7.000e+00 -7.000e+00 -7.000e+00 -7.000e+00 -7.000e+00 -7.000e+00 -7.000e+00 -7.000e+00 -7.000e+00 -7.000e+00 -7.000e+00 -7.000e+00 -7.000e+00 -7.000e+00 -7.000e+00 -7.000e+00 -7.000e+00 -7.000e+00 -7.000e+00 -7.000e+00 -7.000e+00 -7.000e+00 -7.000e+00 -7.000e+00 -7.000e+00 -7.000e+00 -1.500e+01 -7.000e+00 -7.000e+00 -7.000e+00 -7.000e+00 -7.000e+00 -7.000e+00 -7.000e+00 -7.000e+00 -7.000e+00 -7.000e+00 -7.000e+00 -7.000e+00 -7.000e+00 -7.000e+00 -7.000e+00 -7.000e+00 -7.000e+00 -7.000e+00 -7.000e+00 -7.000e+00 -7.000e+00 -7.000e+00 -7.000e+00 -7.000e+00 -7.000e+00 -7.000e+00 -7.000e+00 -7.000e+00 -7.000e+00 -7.000e+00 -7.000e+00 -7.000e+00 -7.000e+00 -7.000e+00 -7.000e+00 -7.000e+00 -7.000e+00 -7.000e+00 -7.000e+00 -1.500e+01 -7.000e+00 -7.000e+00 -7.000e+00 -7.000e+00 -7.000e+00 -7.000e+00 -7.000e+00 -7.000e+00 -7.000e+00 -7.000e+00 -7.000e+00 -7.000e+00 -7.000e+00 -7.000e+00 -7.000e+00 -7.000e+00 -7.000e+00 -7.000e+00 -7.000e+00 -7.000e+00 -7.000e+00 -7.000e+00 -7.000e+00 -7.000e+00 -7.000e+00 -7.000e+00 -7.000e+00 -7.000e+00 -7.000e+00 -7.000e+00 -7.000e+00 -7.000e+00 -7.000e+00 -7.000e+00 -7.000e+00 -1.700e+01 -1.700e+01 -1.700e+01 -9.000e+00 -9.000e+00 -9.000e+00 -9.000e+00 -9.000e+00 -9.000e+00 -9.000e+00 -1.700e+01 -1.700e+01 -1.700e+01 -1.700e+01 -9.000e+00 -9.000e+00 -9.000e+00 -9.000e+00 -9.000e+00 -9.000e+00 -9.000e+00 -9.000e+00 -9.000e+00 -9.000e+00 -9.000e+00 -9.000e+00 -9.000e+00 -9.000e+00 -9.000e+00 -9.000e+00 -9.000e+00 -4.000e+00 -4.000e+00 -4.000e+00 -4.000e+00 -4.000e+00 -4.000e+00 -4.000e+00 -4.000e+00 -4.000e+00 -4.000e+00 -4.000e+00 -4.000e+00 -4.000e+00 -4.000e+00 -4.000e+00 -4.000e+00 -4.000e+00 -4.000e+00 -4.000e+00 -4.000e+00 -4.000e+00 -4.000e+00 -4.000e+00 -4.000e+00 -4.000e+00 -4.000e+00 -4.000e+00 -4.000e+00 -4.000e+00 -4.000e+00 -4.000e+00 -4.000e+00 -4.000e+00 -4.000e+00 -4.000e+00 -4.000e+00
           </DataArray>
           <DataArray type="Float32" Name="nitrate/Cmin" NumberOfComponents="1" format="ascii">