<?xml version="1.0"?>
<VTKFile type="UnstructuredGrid" version="0.1" byte_order="LittleEndian">
   <UnstructuredGrid>
      <Piece NumberOfPoints="45130" NumberOfCells="3234">
         <Points>
            <DataArray type="Float32" Name="Position" NumberOfComponents="3" format="ascii">
-0.053	-5.036	0.146
-0.054	-5.028	0.150
-0.055	-5.019	0.149
-0.056	-5.012	0.142
-0.055	-5.011	0.133
-0.055	-5.015	0.125
-0.053	-5.023	0.121
-0.052	-5.032	0.122
-0.052	-5.039	0.128
-0.052	-5.040	0.137
-0.880	-5.128	0.103
-0.881	-5.120	0.107
-0.882	-5.111	0.106
-0.882	-5.104	0.100
-0.882	-5.102	0.091
-0.881	-5.106	0.082
-0.880	-5.114	0.078
-0.879	-5.123	0.079
-0.879	-5.130	0.085
-0.879	-5.132	0.094
-1.753	-5.217	0.067
-1.754	-5.208	0.071
-1.754	-5.199	0.070
-1.755	-5.193	0.064
-1.755	-5.191	0.055
-1.754	-5.195	0.046
-1.753	-5.203	0.042
-1.752	-5.212	0.043
-1.752	-5.219	0.049
-1.752	-5.220	0.058
-2.622	-5.280	0.044
-2.623	-5.272	0.049
-2.624	-5.263	0.049
-2.625	-5.256	0.043
-2.626	-5.254	0.034
-2.626	-5.257	0.025
-2.625	-5.265	0.020
-2.624	-5.274	0.021
-2.623	-5.281	0.027
-2.622	-5.284	0.036
-3.393	-5.416	0.139
-3.394	-5.408	0.144
-3.395	-5.399	0.144
-3.397	-5.392	0.139
-3.399	-5.389	0.130
-3.400	-5.392	0.121
-3.399	-5.400	0.116
-3.397	-5.409	0.116
-3.395	-5.416	0.121
-3.394	-5.419	0.130
-0.097	-5.074	0.253
-0.098	-5.068	0.260
-0.101	-5.065	0.268
-0.105	-5.069	0.276
-0.109	-5.076	0.279
-0.111	-5.085	0.278
-0.110	-5.092	0.272
-0.107	-5.094	0.263
-0.103	-5.091	0.256
-0.099	-5.083	0.252
0.644	-5.293	0.569
0.644	-5.286	0.576
0.641	-5.284	0.584
0.637	-5.288	0.592
0.633	-5.295	0.595
0.631	-5.304	0.594
0.631	-5.311	0.587
0.633	-5.312	0.578
0.637	-5.309	0.571
0.641	-5.301	0.567
1.390	-5.612	0.790
1.391	-5.605	0.796
1.388	-5.602	0.804
1.383	-5.605	0.812
1.378	-5.612	0.815
1.374	-5.620	0.814
1.374	-5.627	0.807
1.377	-5.630	0.799
1.381	-5.627	0.792
1.387	-5.620	0.788
1.999	-5.989	1.218
2.000	-5.981	1.222
1.996	-5.976	1.229
1.989	-5.975	1.235
1.982	-5.980	1.238
1.977	-5.987	1.238
1.976	-5.995	1.233
1.980	-6.001	1.227
1.987	-6.001	1.220
1.994	-5.997	1.217
2.293	-6.286	1.785
2.295	-6.278	1.789
2.291	-6.271	1.794
2.284	-6.269	1.799
2.275	-6.272	1.802
2.269	-6.279	1.802
2.268	-6.287	1.798
2.271	-6.294	1.793
2.279	-6.296	1.788
2.287	-6.293	1.785
-0.533	-5.867	1.285
-0.535	-5.860	1.289
-0.538	-5.851	1.289
-0.539	-5.844	1.283
-0.538	-5.841	1.274
-0.536	-5.845	1.265
-0.534	-5.852	1.260
-0.531	-5.861	1.261
-0.530	-5.868	1.267
-0.531	-5.870	1.276
-1.371	-6.082	1.172
-1.373	-6.075	1.178
-1.375	-6.066	1.177
-1.377	-6.059	1.172
-1.377	-6.056	1.163
-1.377	-6.059	1.154
-1.375	-6.066	1.149
-1.373	-6.076	1.149
-1.371	-6.083	1.155
-1.371	-6.085	1.164
-2.182	-6.244	1.266
-2.183	-6.237	1.271
-2.185	-6.228	1.272
-2.187	-6.221	1.266
-2.188	-6.218	1.257
-2.188	-6.221	1.249
-2.187	-6.228	1.243
-2.185	-6.237	1.243
-2.183	-6.245	1.248
-2.182	-6.247	1.257
-2.994	-6.425	1.274
-2.994	-6.418	1.279
-2.996	-6.409	1.279
-2.998	-6.401	1.274
-2.999	-6.399	1.265
-3.000	-6.402	1.256
-3.000	-6.409	1.251
-2.998	-6.418	1.251
-2.996	-6.426	1.257
-2.995	-6.428	1.265
-3.824	-6.499	1.494
-3.822	-6.492	1.499
-3.823	-6.483	1.499
-3.826	-6.475	1.494
-3.830	-6.472	1.486
-3.833	-6.475	1.478
-3.834	-6.482	1.473
-3.834	-6.492	1.473
-3.831	-6.499	1.477
-3.827	-6.502	1.485
-4.026	-6.496	1.598
-4.017	-6.492	1.598
-4.008	-6.494	1.598
-4.002	-6.500	1.598
-4.000	-6.509	1.598
-4.005	-6.518	1.598
-4.013	-6.522	1.598
-4.022	-6.520	1.598
-4.028	-6.514	1.598
-4.030	-6.505	1.598
-2.016	-18.470	4.838
-2.016	-18.460	4.837
-2.012	-18.454	4.831
-2.006	-18.452	4.824
-2.001	-18.456	4.818
-1.998	-18.464	4.814
-1.998	-18.473	4.816
-2.002	-18.480	4.821
-2.008	-18.482	4.828
-2.013	-18.478	4.835
-2.671	-18.514	4.324
-2.671	-18.505	4.324
-2.668	-18.498	4.319
-2.663	-18.495	4.312
-2.658	-18.498	4.305
-2.655	-18.506	4.300
-2.655	-18.515	4.301
-2.658	-18.522	4.306
-2.663	-18.525	4.313
-2.667	-18.522	4.320
-2.840	-18.522	4.230
-2.841	-18.513	4.230
-2.839	-18.505	4.226
-2.835	-18.501	4.218
-2.830	-18.503	4.211
-2.827	-18.510	4.205
-2.827	-18.520	4.205
-2.829	-18.528	4.209
-2.833	-18.531	4.217
-2.837	-18.529	4.225
-2.014	-18.605	4.816
-2.006	-18.603	4.820
-2.000	-18.607	4.825
-1.997	-18.614	4.830
-2.000	-18.622	4.833
-2.006	-18.629	4.832
-2.014	-18.631	4.828
-2.021	-18.627	4.822
-2.023	-18.620	4.817
-2.021	-18.611	4.815
-1.595	-18.932	4.127
-1.588	-18.930	4.132
-1.582	-18.934	4.139
-1.580	-18.941	4.144
-1.583	-18.950	4.146
-1.589	-18.956	4.145
-1.597	-18.958	4.140
-1.603	-18.955	4.134
-1.605	-18.947	4.128
-1.602	-18.939	4.126
-1.459	-19.019	3.992
-1.452	-19.017	3.997
-1.447	-19.020	4.004
-1.446	-19.027	4.010
-1.449	-19.035	4.013
-1.455	-19.042	4.010
-1.462	-19.044	4.005
-1.467	-19.041	3.998
-1.468	-19.034	3.992
-1.465	-19.025	3.990
-2.022	-18.770	4.833
-2.024	-18.761	4.831
-2.021	-18.754	4.825
-2.016	-18.752	4.818
-2.010	-18.756	4.812
-2.005	-18.764	4.809
-2.003	-18.772	4.812
-2.006	-18.779	4.818
-2.011	-18.781	4.825
-2.017	-18.778	4.831
-2.682	-19.015	4.288
-2.685	-19.006	4.287
-2.684	-18.999	4.282
-2.680	-18.995	4.274
-2.674	-18.997	4.267
-2.669	-19.004	4.264
-2.666	-19.012	4.265
-2.666	-19.020	4.270
-2.670	-19.023	4.278
-2.676	-19.022	4.285
-2.728	-19.042	4.256
-2.732	-19.034	4.256
-2.734	-19.026	4.252
-2.731	-19.021	4.244
-2.726	-19.021	4.237
-2.720	-19.026	4.232
-2.716	-19.034	4.231
-2.715	-19.042	4.235
-2.717	-19.047	4.243
-2.722	-19.047	4.250
-2.006	-18.919	4.808
-2.005	-18.910	4.811
-2.010	-18.904	4.817
-2.017	-18.903	4.823
-2.024	-18.907	4.827
-2.029	-18.915	4.827
-2.029	-18.923	4.824
-2.025	-18.930	4.818
-2.018	-18.931	4.813
-2.011	-18.927	4.809
-1.537	-19.181	5.469
-1.537	-19.172	5.473
-1.537	-19.163	5.472
-1.537	-19.157	5.465
-1.537	-19.155	5.456
-1.537	-19.159	5.448
-1.537	-19.168	5.444
-1.537	-19.177	5.445
-1.537	-19.183	5.452
-1.537	-19.185	5.461
-2.034	-19.060	4.820
-2.029	-19.054	4.815
-2.021	-19.052	4.810
-2.014	-19.056	4.806
-2.009	-19.064	4.805
-2.009	-19.073	4.808
-2.014	-19.079	4.812
-2.021	-19.081	4.817
-2.029	-19.077	4.821
-2.034	-19.069	4.822
-2.491	-19.244	4.083
-2.486	-19.237	4.078
-2.478	-19.235	4.073
-2.471	-19.239	4.070
-2.466	-19.247	4.069
-2.466	-19.256	4.071
-2.471	-19.263	4.075
-2.478	-19.264	4.080
-2.486	-19.261	4.084
-2.491	-19.253	4.085
-2.013	-19.223	4.804
-2.011	-19.214	4.806
-2.015	-19.206	4.810
-2.022	-19.202	4.813
-2.031	-19.204	4.816
-2.038	-19.210	4.816
-2.040	-19.219	4.814
-2.036	-19.227	4.811
-2.029	-19.231	4.807
-2.020	-19.229	4.805
-1.740	-19.453	5.588
-1.738	-19.444	5.590
-1.742	-19.437	5.593
-1.749	-19.433	5.597
-1.758	-19.434	5.599
-1.764	-19.441	5.600
-1.766	-19.450	5.598
-1.763	-19.458	5.594
-1.755	-19.462	5.591
-1.747	-19.460	5.588
-2.022	-19.378	4.816
-2.021	-19.372	4.822
-2.023	-19.363	4.824
-2.028	-19.356	4.822
-2.034	-19.352	4.816
-2.039	-19.354	4.808
-2.040	-19.361	4.802
-2.038	-19.370	4.799
-2.033	-19.377	4.802
-2.027	-19.380	4.808
-2.582	-19.608	5.195
-2.574	-19.604	5.195
-2.565	-19.606	5.195
-2.558	-19.612	5.195
-2.557	-19.621	5.195
-2.561	-19.630	5.195
-2.569	-19.634	5.195
-2.578	-19.632	5.195
-2.585	-19.626	5.195
-2.586	-19.617	5.195
-2.046	-19.506	4.814
-2.038	-19.502	4.810
-2.030	-19.503	4.808
-2.023	-19.510	4.808
-2.021	-19.519	4.810
-2.024	-19.527	4.813
-2.032	-19.531	4.816
-2.041	-19.529	4.819
-2.048	-19.523	4.819
-2.050	-19.514	4.817
-2.269	-19.704	4.070
-2.261	-19.700	4.067
-2.252	-19.702	4.065
-2.245	-19.708	4.065
-2.243	-19.717	4.066
-2.247	-19.725	4.069
-2.254	-19.729	4.073
-2.263	-19.727	4.075
-2.270	-19.721	4.075
-2.272	-19.712	4.074
-2.031	-19.678	4.823
-2.030	-19.671	4.829
-2.032	-19.662	4.830
-2.035	-19.655	4.826
-2.040	-19.652	4.819
-2.043	-19.654	4.811
-2.044	-19.661	4.805
-2.042	-19.670	4.803
-2.039	-19.678	4.807
-2.034	-19.681	4.815
-2.769	-19.872	5.172
-2.768	-19.865	5.178
-2.769	-19.856	5.180
-2.773	-19.848	5.176
-2.778	-19.845	5.168
-2.781	-19.847	5.160
-2.782	-19.854	5.154
-2.780	-19.863	5.153
-2.776	-19.871	5.156
-2.772	-19.874	5.164
-2.046	-19.807	4.824
-2.040	-19.802	4.820
-2.031	-19.803	4.817
-2.024	-19.809	4.816
-2.021	-19.817	4.817
-2.024	-19.826	4.820
-2.030	-19.830	4.824
-2.039	-19.829	4.828
-2.046	-19.824	4.829
-2.049	-19.815	4.827
-2.325	-20.004	4.137
-2.318	-20.000	4.133
-2.310	-20.001	4.130
-2.302	-20.007	4.129
-2.300	-20.015	4.130
-2.302	-20.024	4.133
-2.309	-20.028	4.138
-2.318	-20.027	4.141
-2.325	-20.021	4.142
-2.328	-20.013	4.141
-0.570	-5.973	1.376
-0.566	-5.965	1.379
-0.566	-5.956	1.380
-0.572	-5.949	1.377
-0.579	-5.946	1.373
-0.587	-5.949	1.369
-0.591	-5.957	1.366
-0.591	-5.966	1.366
-0.586	-5.973	1.368
-0.578	-5.976	1.372
-0.984	-6.041	2.151
-0.980	-6.034	2.155
-0.981	-6.025	2.156
-0.986	-6.017	2.154
-0.994	-6.015	2.149
-1.001	-6.018	2.145
-1.005	-6.025	2.141
-1.004	-6.034	2.140
-0.999	-6.042	2.142
-0.991	-6.044	2.146
-1.444	-6.204	2.869
-1.441	-6.196	2.874
-1.442	-6.187	2.875
-1.446	-6.180	2.872
-1.453	-6.177	2.866
-1.460	-6.180	2.860
-1.463	-6.187	2.856
-1.462	-6.196	2.855
-1.458	-6.204	2.858
-1.451	-6.207	2.863
-2.090	-6.249	3.378
-2.086	-6.249	3.386
-2.087	-6.249	3.395
-2.094	-6.249	3.402
-2.103	-6.249	3.403
-2.111	-6.249	3.399
-2.115	-6.249	3.391
-2.114	-6.249	3.382
-2.107	-6.249	3.375
-2.098	-6.249	3.374
-2.032	-19.956	4.817
-2.028	-19.952	4.824
-2.026	-19.954	4.833
-2.026	-19.960	4.840
-2.029	-19.969	4.842
-2.034	-19.976	4.839
-2.038	-19.980	4.831
-2.041	-19.978	4.822
-2.040	-19.972	4.816
-2.037	-19.963	4.813
-1.457	-20.232	4.612
-1.453	-20.229	4.619
-1.450	-20.231	4.628
-1.451	-20.237	4.635
-1.454	-20.245	4.637
-1.459	-20.253	4.634
-1.463	-20.256	4.626
-1.465	-20.254	4.617
-1.465	-20.248	4.611
-1.462	-20.240	4.608
-2.031	-20.128	4.846
-2.035	-20.121	4.852
-2.038	-20.113	4.852
-2.041	-20.105	4.847
-2.041	-20.102	4.838
-2.038	-20.104	4.830
-2.034	-20.110	4.824
-2.031	-20.118	4.824
-2.028	-20.126	4.829
-2.028	-20.129	4.837
-2.597	-20.378	4.740
-2.601	-20.372	4.745
-2.604	-20.364	4.746
-2.607	-20.356	4.741
-2.607	-20.353	4.732
-2.604	-20.354	4.723
-2.601	-20.361	4.718
-2.597	-20.369	4.717
-2.594	-20.376	4.722
-2.594	-20.380	4.731
-2.034	-20.277	4.858
-2.036	-20.270	4.863
-2.039	-20.261	4.863
[...]
         <CellData>
           <DataArray type="Float32" Name="combinedRootClassID" NumberOfComponents="1" format="ascii">
 -1.300e+01 -1.300e+01 -1.300e+01 -1.300e+01 -1.300e+01 -1.300e+01 -1.300e+01 -1.300e+01 -1.300e+01 -1.300e+01 -1.300e+01 -1.300e+01 -1.300e+01 -1.300e+01 -1.300e+01 -1.300e+01 -1.300e+01 -1.300e+01 -1.300e+01 -1.300e+01 -1.300e+01 -1.300e+01 -1.300e+01 -1.300e+01 -1.300e+01 -1.300e+01 -1.300e+01 -1.300e+01 -1.300e+01 -1.300e+01 -1.300e+01 -1.300e+01 -1.300e+01 -1.300e+01 -1.300e+01 -1.300e+01 -1.300e+01 -1.300e+01 -1.300e+01 -1.300e+01 -1.300e+01 -1.300e+01 -1.300e+01 -1.300e+01 -1.300e+01 -1.300e+01 -1.300e+01 -1.300e+01 -1.300e+01 -1.300e+01 -1.300e+01 -1.300e+01 -1.300e+01 -1.300e+01 -1.300e+01 -1.300e+01 -1.300e+01 -1.300e+01 -1.300e+01 -1.300e+01 -1.300e+01 -1.300e+01 -1.300e+01 -1.300e+01 -1.300e+01 -1.300e+01 -1.300e+01 -1.300e+01 -1.300e+01 -1.300e+01 -1.300e+01 -1.300e+01 -1.300e+01 -1.300e+01 -1.300e+01 -1.300e+01 -1.300e+01 -1.300e+01 -1.300e+01 -1.300e+01 -1.300e+01 -1.300e+01 -1.300e+01 -1.300e+01 -1.300e+01 -1.300e+01 -1.300e+01 -1.300e+01 -1.300e+01 -1.300e+01 -1.300e+01 -1.300e+01 -1.300e+01 -1.300e+01 -1.300e+01 -1.300e+01 -1.300e+01 -1.300e+01 -1.300e+01 -1.300e+01 -1.300e+01 -1.300e+01 -1.300e+01 -1.300e+01 -1.300e+01 -1.300e+01 -1.300e+01 -1.300e+01 -1.300e+01 -1.300e+01 -1.300e+01 -1.300e+01 -1.300e+01 -1.300e+01 -1.300e+01 -1.300e+01 -1.300e+01 -1.300e+01 -1.300e+01 -1.300e+01 -1.300e+01 -1.300e+01 -1.300e+01 -1.300e+01 -1.300e+01 -1.300e+01 -1.300e+01 -1.300e+01 -1.300e+01 -1.300e+01 -1.300e+01 -1.300e+01 -1.300e+01 -1.300e+01 -1.300e+01 -1.300e+01 -1.300e+01 -1.300e+01 -1.300e+01 -1.300e+01 -1.300e+01 -1.300e+01 -1.300e+01 -1.300e+01 -1.300e+01 -1.300e+01 -1.300e+01 -1.300e+01 -1.300e+01 -1.300e+01 -1.300e+01 -1.300e+01 -1.300e+01 -1.300e+01 -1.300e+01 -1.300e+01 -1.300e+01 -1.300e+01 -1.300e+01 -1.300e+01 -1.300e+01 -1.300e+01 -1.300e+01 -1.300e+01 -1.300e+01 -1.300e+01 -1.300e+01 -1.300e+01 -1.300e+01 -1.300e+01 -1.300e+01 -1.300e+01 -1.300e+01 -1.300e+01 -1.300e+01 -1.300e+01 -1.300e+01 -1.300e+01 -1.300e+01 -1.300e+01 -1.300e+01 -1.300e+01 -1.300e+01 -1.300e+01 -1.300e+01 -1.300e+01 -1.300e+01 -1.300e+01 -1.300e+01 -1.300e+01 -1.300e+01 -1.300e+01 -1.300e+01 -1.300e+01 -1.300e+01 -1.300e+01 -1.300e+01 -1.300e+01 -1.300e+01 -1.300e+01 -1.300e+01 -1.300e+01 -1.300e+01 -1.300e+01 -1.300e+01 -1.300e+01 -1.300e+01 -1.300e+01 -1.300e+01 -1.300e+01 -1.300e+01 -1.300e+01 -1.300e+01 -1.300e+01 -1.300e+01 -1.300e+01 -1.300e+01 -1.300e+01 -1.300e+01 -1.300e+01 -1.300e+01 -1.300e+01 -1.300e+01 -1.300e+01 -1.300e+01 -1.300e+01 -1.300e+01 -1.300e+01 -1.300e+01 -1.300e+01 -1.300e+01 -1.300e+01 -1.300e+01 -1.300e+01 -1.300e+01 -1.300e+01 -1.300e+01 -1.300e+01 -1.300e+01 -1.300e+01 -1.300e+01 -1.300e+01 -1.300e+01 -1.300e+01 -1.300e+01 -1.300e+01 -1.300e+01 -1.300e+01 -1.300e+01 -1.300e+01 -1.300e+01 -1.300e+01 -1.300e+01 -1.300e+01 -1.300e+01 -1.300e+01 -1.300e+01 -1.300e+01 -1.300e+01 -1.300e+01 -1.300e+01 -1.300e+01 -1.300e+01 -1.300e+01 -1.300e+01 -1.300e+01 -1.300e+01 -1.300e+01 -1.300e+01 -1.300e+01 -1.300e+01 -1.300e+01 -1.300e+01 -1.300e+01 -1.300e+01 -1.300e+01 -1.300e+01 -1.300e+01 -1.300e+01 -1.300e+01 -1.300e+01 -1.300e+01 -1.300e+01 -1.300e+01 -1.300e+01 -1.300e+01 -1.300e+01 -1.300e+01 -1.300e+01 -1.300e+01 -1.300e+01 -1.300e+01 -1.300e+01 -1.300e+01 -1.300e+01 -1.300e+01 -1.300e+01 -1.300e+01 -1.300e+01 -1.300e+01 -1.300e+01 -1.300e+01 -1.300e+01 -1.300e+01 -1.300e+01 -1.300e+01 -1.300e+01 -1.300e+01 -1.300e+01 -1.300e+01 -1.300e+01 -1.300e+01 -1.300e+01 -1.300e+01 -1.300e+01 -1.300e+01 -1.300e+01 -1.300e+01 -1.300e+01 -1.300e+01 -1.300e+01 -1.300e+01 -1.300e+01 -1.300e+01 -1.300e+01 -1.300e+01 -1.300e+01 -1.300e+01 -1.300e+01 -1.300e+01 -1.300e+01 -1.300e+01 -1.300e+01 -1.300e+01 -1.300e+01 -1.300e+01 -1.300e+01 -1.300e+01 -5.000e+00 -5.000e+00 -5.000e+00 -5.000e+00 -5.000e+00 -5.000e+00 -5.000e+00 -5.000e+00 -5.000e+00 -5.000e+00 -5.000e+00 -5.000e+00 -5.000e+00 -5.000e+00 -5.000e+00 -5.000e+00 -5.000e+00 -5.000e+00 -5.000e+00 -5.000e+00 -5.000e+00 -5.000e+00 -5.000e+00 -5.000e+00 -5.000e+00 -5.000e+00 -5.000e+00 -5.000e+00 -5.000e+00 -5.000e+00 -5.000e+00 -5.000e+00 -5.000e+00 -5.000e+00 -5.000e+00 -5.000e+00 -5.000e+00 -5.000e+00 -1.300e+01 -1.300e+01 -1.300e+01 -1.300e+01 -1.300e+01 -1.300e+01 -1.300e+01 -1.300e+01 -1.300e+01 -1.300e+01 -1.300e+01 -1.300e+01 -1.300e+01 -1.300e+01 -1.300e+01 -1.300e+01 -1.300e+01 -1.300e+01 -1.300e+01 -1.300e+01 -1.300e+01 -1.300e+01 -1.300e+01 -1.300e+01 -1.300e+01 -1.300e+01 -1.300e+01 -1.300e+01 -1.300e+01 -1.300e+01 -1.300e+01 -1.300e+01 -1.300e+01 -1.300e+01 -1.300e+01 -1.300e+01 -1.300e+01 -1.300e+01 -1.300e+01 -1.300e+01 -1.300e+01 -1.300e+01 -1.300e+01 -1.300e+01 -1.300e+01 -1.300e+01 -1.300e+01 -1.300e+01 -1.300e+01 -1.300e+01 -1.300e+01 -1.300e+01 -1.300e+01 -1.300e+01 -1.300e+01 -1.300e+01 -1.300e+01 -1.300e+01 -1.300e+01 -1.300e+01 -1.300e+01 -1.300e+01 -1.300e+01 -1.300e+01 -1.300e+01 -1.300e+01 -1.300e+01 -1.300e+01 -1.300e+01 -1.300e+01 -1.300e+01 -1.300e+01 -1.300e+01 -1.300e+01 -1.300e+01 -1.300e+01 -1.300e+01 -1.300e+01 -1.300e+01 -1.300e+01 -1.300e+01 -1.300e+01 -1.300e+01 -1.300e+01 -1.300e+01 -1.300e+01 -1.300e+01 -1.300e+01 -1.300e+01 -1.300e+01 -1.300e+01 -1.300e+01 -1.300e+01 -1.300e+01 -1.300e+01 -1.300e+01 -1.300e+01 -1.300e+01 -1.300e+01 -1.300e+01 -1.300e+01 -1.300e+01 -1.300e+01 -1.300e+01 -1.300e+01 -1.300e+01 -1.300e+01 -1.300e+01 -1.300e+01 -1.300e+01 -1.300e+01 -1.300e+01 -1.300e+01 -1.300e+01 -1.300e+01 -1.300e+01 -1.300e+01 -1.300e+01 -1.300e+01 -1.300e+01 -1.300e+01 -1.300e+01 -1.300e+01 -1.300e+01 -1.300e+01 -1.300e+01 -1.300e+01 -1.300e+01 -1.300e+01 -1.300e+01 -1.300e+01 -1.300e+01 -1.300e+01 -1.300e+01 -1.300e+01 -1.300e+01 -1.300e+01 -1.300e+01 -1.300e+01 -1.300e+01 -1.300e+01 -1.300e+01 -1.300e+01 -1.300e+01 -1.300e+01 -1.300e+01 -1.300e+01 -1.300e+01 -1.300e+01 -1.300e+01 -1.300e+01 -1.300e+01 -1.300e+01 -1.300e+01 -1.300e+01 -1.300e+01 -1.300e+01 -1.300e+01 -1.300e+01 -1.300e+01 -1.300e+01 -1.300e+01 -1.300e+01 -1.300e+01 -1.300e+01 -1.300e+01 -1.300e+01 -1.300e+01 -1.300e+01 -1.300e+01 -1.300e+01 -1.300e+01 -1.300e+01 -1.300e+01 -1.300e+01 -1.300e+01 -1.300e+01 -1.300e+01 -1.300e+01 -1.300e+01 -1.300e+01 -1.300e+01 -1.300e+01 -1.300e+01 -1.300e+01 -1.300e+01 -1.300e+01 -1.300e+01 -1.300e+01 -1.300e+01 -1.300e+01 -1.300e+01 -1.300e+01 -1.300e+01 -1.300e+01 -1.300e+01 -1.300e+01 -1.300e+01 -1.300e+01 -1.300e+01 -1.300e+01 -1.300e+01 -1.300e+01 -1.300e+01 -1.300e+01 -1.300e+01 -1.300e+01 -1.300e+01 -1.300e+01 -1.300e+01 -1.300e+01 -1.300e+01 -1.300e+01 -1.300e+01 -1.300e+01 -1.300e+01 -1.300e+01 -1.300e+01 -1.300e+01 -1.300e+01 -1.300e+01 -1.300e+01 -1.300e+01 -1.300e+01 -1.300e+01 -1.300e+01 -1.300e+01 -1.300e+01 -1.300e+01 -1.300e+01 -1.300e+01 -1.300e+01 -1.300e+01 -1.300e+01 -1.300e+01 -1.300e+01 -1.300e+01 -1.300e+01 -1.300e+01 -1.300e+01 -1.300e+01 -1.300e+01 -1.300e+01 -1.300e+01 -1.300e+01 -1.300e+01 -1.300e+01 -1.300e+01 -1.300e+01 -1.300e+01 -1.300e+01 -1.300e+01 -1.300e+01 -1.300e+01 -1.300e+01 -1.300e+01 -1.300e+01 -1.300e+01 -1.300e+01 -1.300e+01 -1.300e+01 -1.300e+01 -1.300e+01 -1.300e+01 -1.300e+01 -1.300e+01 -1.300e+01 -1.300e+01 -1.300e+01 -1.300e+01 -1.300e+01 -1.300e+01 -1.300e+01 -1.300e+01 -1.300e+01 -1.300e+01 -1.300e+01 -1.300e+01 -1.300e+01 -1.300e+01 -1.300e+01 -1.300e+01 -1.300e+01 -1.300e+01 -1.300e+01 -1.300e+01 -1.300e+01 -1.300e+01 -1.300e+01 -1.300e+01 -1.300e+01 -1.300e+01 -1.300e+01 -1.300e+01 -1.300e+01 -1.300e+01 -1.300e+01 -1.300e+01 -1.300e+01 -1.300e+01 -1.300e+01 -1.300e+01 -1.300e+01 -1.300e+01 -1.300e+01 -1.300e+01 -1.300e+01 -1.300e+01 -1.300e+01 -1.300e+01 -1.300e+01 -1.300e+01 -1.300e+01 -1.300e+01 -1.300e+01 -1.300e+01 -1.300e+01 -1.300e+01 -1.300e+01 -1.300e+01 -1.300e+01 -1.300e+01 -1.300e+01 -1.300e+01 -1.300e+01 -1.300e+01 -1.300e+01 -1.300e+01 -1.300e+01 -1.300e+01 -1.300e+01 -1.300e+01 -1.300e+01 -1.300e+01 -1.300e+01 -1.300e+01 -1.300e+01 -1.300e+01 -1.300e+01 -5.000e+00 -5.000e+00 -5.000e+00 -5.000e+00 -5.000e+00 -5.000e+00 -5.000e+00 -5.000e+00 -5.000e+00 -5.000e+00 -5.000e+00 -5.000e+00 -5.000e+00 -5.000e+00 -5.000e+00 -5.000e+00 -5.000e+00 -5.000e+00 -5.000e+00 -5.000e+00 -5.000e+00 -5.000e+00 -5.000e+00 -5.000e+00 -5.000e+00 -5.000e+00 -5.000e+00 -5.000e+00 -5.000e+00 -5.000e+00 -5.000e+00 -5.000e+00 -5.000e+00 -5.000e+00 -5.000e+00 -5.000e+00 -5.000e+00 -5.000e+00 -1.300e+01 -1.300e+01 -1.300e+01 -1.300e+01 -1.300e+01 -1.300e+01 -1.300e+01 -1.300e+01 -1.300e+01 -1.300e+01 -1.300e+01 -1.300e+01 -1.300e+01 -1.300e+01 -1.300e+01 -1.300e+01 -1.300e+01 -1.300e+01 -1.300e+01 -1.300e+01 -1.300e+01 -1.300e+01 -1.300e+01 -1.300e+01 -1.300e+01 -1.300e+01 -1.300e+01 -1.300e+01 -1.300e+01 -1.300e+01 -1.300e+01 -1.300e+01 -1.300e+01 -1.300e+01 -1.300e+01 -1.300e+01 -1.300e+01 -1.300e+01 -1.300e+01 -1.300e+01 -1.300e+01 -1.300e+01 -1.300e+01 -1.300e+01 -1.300e+01 -1.300e+01 -1.300e+01 -1.300e+01 -1.300e+01 -1.300e+01 -1.300e+01 -1.300e+01 -1.300e+01 -1.300e+01 -1.300e+01 -1.300e+01 -1.300e+01 -1.300e+01 -1.300e+01 -1.300e+01 -1.300e+01 -1.300e+01 -1.300e+01 -1.300e+01 -1.300e+01 -1.300e+01 -1.300e+01 -1.300e+01 -1.300e+01 -1.300e+01 -1.300e+01 -1.300e+01 -1.300e+01 -1.300e+01 -1.300e+01 -1.300e+01 -1.300e+01 -1.300e+01 -1.300e+01 -1.300e+01 -1.300e+01 -1.300e+01 -1.300e+01 -1.300e+01 -1.300e+01 -1.300e+01 -1.300e+01 -1.300e+01 -1.300e+01 -1.300e+01 -1.300e+01 -1.300e+01 -1.300e+01 -1.300e+01 -1.300e+01 -1.300e+01 -1.300e+01 -1.300e+01 -1.300e+01 -1.300e+01 -1.300e+01 -1.300e+01 -1.300e+01 -1.300e+01 -1.300e+01 -1.300e+01 -1.300e+01 -1.300e+01 -1.300e+01 -1.300e+01 -1.300e+01 -1.300e+01 -1.300e+01 -1.300e+01 -1.300e+01 -1.300e+01 -1.300e+01 -1.300e+01 -1.300e+01 -1.300e+01 -1.300e+01 -1.300e+01 -1.300e+01 -1.300e+01 -1.300e+01 -1.300e+01 -1.300e+01 -1.300e+01 -1.300e+01 -1.300e+01 -1.300e+01 -1.300e+01 -1.300e+01 -1.300e+01 -1.300e+01 -1.300e+01 -1.300e+01 -1.300e+01 -1.300e+01 -1.300e+01 -1.300e+01 -1.300e+01 -1.300e+01 -1.300e+01 -1.300e+01 -1.300e+01 -1.300e+01 -1.300e+01 -1.300e+01 -1.300e+01 -1.300e+01 -1.300e+01 -1.300e+01 -1.300e+01 -1.300e+01 -1.300e+01 -1.300e+01 -1.300e+01 -1.300e+01 -1.300e+01 -1.300e+01 -1.300e+01 -1.300e+01 -1.300e+01 -1.300e+01 -1.300e+01 -1.300e+01 -1.300e+01 -1.300e+01 -1.300e+01 -1.300e+01 -1.300e+01 -1.300e+01 -1.300e+01 -1.300e+01 -1.300e+01 -1.300e+01 -1.300e+01 -1.300e+01 -1.300e+01 -1.300e+01 -1.300e+01 -1.300e+01 -1.300e+01 -1.300e+01 -1.300e+01 -1.300e+01 -1.300e+01 -1.300e+01 -1.300e+01 -1.300e+01 -1.300e+01 -1.300e+01 -1.300e+01 -1.300e+01 -1.300e+01 -1.300e+01 -1.300e+01 -1.300e+01 -1.300e+01 -1.300e+01 -1.300e+01 -1.300e+01 -1.300e+01 -1.300e+01 -1.300e+01 -1.300e+01 -1.300e+01 -1.300e+01 -1.300e+01 -1.300e+01 -1.300e+01 -1.300e+01 -1.300e+01 -1.300e+01 -1.300e+01 -1.300e+01 -1.300e+01 -1.300e+01 -1.300e+01 -1.300e+01 -1.300e+01 -1.300e+01 -1.300e+01 -1.300e+01 -1.300e+01 -1.300e+01 -1.300e+01 -1.300e+01 -1.300e+01 -1.300e+01 -1.300e+01 -1.300e+01 -1.300e+01 -1.300e+01 -1.300e+01 -1.300e+01 -1.300e+01 -1.300e+01 -1.300e+01 -1.300e+01 -1.300e+01 -1.300e+01 -1.300e+01 -1.300e+01 -1.300e+01 -1.300e+01 -1.300e+01 -1.300e+01 -1.300e+01 -1.300e+01 -1.300e+01 -1.300e+01 -1.300e+01 -1.300e+01 -1.300e+01 -1.300e+01 -1.300e+01 -1.300e+01 -1.300e+01 -1.300e+01 -1.300e+01 -1.300e+01 -1.300e+01 -1.300e+01 -1.300e+01 -1.300e+01 -1.300e+01 -1.300e+01 -1.300e+01 -1.300e+01 -1.300e+01 -1.300e+01 -1.300e+01 -1.300e+01 -1.300e+01 -1.300e+01 -1.300e+01 -1.300e+01 -1.300e+01 -1.300e+01 -1.300e+01 -1.300e+01 -1.300e+01 -1.300e+01 -1.300e+01 -1.300e+01 -1.300e+01 -1.300e+01 -1.300e+01 -1.300e+01 -1.300e+01 -1.300e+01 -1.300e+01 -1.300e+01 -1.300e+01 -1.300e+01 -1.300e+01 -1.300e+01 -1.300e+01 -1.300e+01 -1.300e+01 -1.300e+01 -1.300e+01 -1.300e+01 -1.300e+01 -1.300e+01 -1.300e+01 -1.300e+01 -1.300e+01 -1.300e+01 -1.300e+01 -1.300e+01 -1.300e+01 -1.300e+01 -1.300e+01 -1.300e+01 -1.300e+01 -1.300e+01 -1.300e+01 -1.300e+01 -1.300e+01 -1.300e+01 -1.300e+01 -1.300e+01 -1.300e+01 -1.300e+01 -1.300e+01 -1.300e+01 -1.300e+01 -1.300e+01 -5.000e+00 -5.000e+00 -5.000e+00 -5.000e+00 -5.000e+00 -5.000e+00 -5.000e+00 -5.000e+00 -5.000e+00 -5.000e+00 -5.000e+00 -5.000e+00 -5.000e+00 -5.000e+00 -5.000e+00 -5.000e+00 -5.000e+00 -5.000e+00 -5.000e+00 -5.000e+00 -5.000e+00 -5.000e+00 -5.000e+00 -5.000e+00 -5.000e+00 -5.000e+00 -5.000e+00 -5.000e+00 -5.000e+00 -5.000e+00 -5.000e+00 -5.000e+00 -5.000e+00 -5.000e+00 -5.000e+00 -5.000e+00 -5.000e+00 -5.000e+00 -1.300e+01 -1.300e+01 -1.300e+01 -1.300e+01 -1.300e+01 -1.300e+01 -1.300e+01 -1.300e+01 -1.300e+01 -1.300e+01 -1.300e+01 -1.300e+01 -1.300e+01 -1.300e+01 -1.300e+01 -1.300e+01 -1.300e+01 -1.300e+01 -1.300e+01 -1.300e+01 -1.300e+01 -1.300e+01 -1.300e+01 -1.300e+01 -1.300e+01 -1.300e+01 -1.300e+01 -1.300e+01 -1.300e+01 -1.300e+01 -1.300e+01 -1.300e+01 -1.300e+01 -1.300e+01 -1.300e+01 -1.300e+01 -1.300e+01 -1.300e+01 -1.300e+01 -1.300e+01 -1.300e+01 -1.300e+01 -1.300e+01 -1.300e+01 -1.300e+01 -1.300e+01 -1.300e+01 -1.300e+01 -1.300e+01 -1.300e+01 -1.300e+01 -1.300e+01 -1.300e+01 -1.300e+01 -1.300e+01 -1.300e+01 -1.300e+01 -1.300e+01 -1.300e+01 -1.300e+01 -1.300e+01 -1.300e+01 -1.300e+01 -1.300e+01 -1.300e+01 -1.300e+01 -1.300e+01 -1.300e+01 -1.300e+01 -1.300e+01 -1.300e+01 -1.300e+01 -1.300e+01 -1.300e+01 -1.300e+01 -1.300e+01 -1.300e+01 -1.300e+01 -1.300e+01 -1.300e+01 -1.300e+01 -1.300e+01 -1.300e+01 -1.300e+01 -1.300e+01 -1.300e+01 -1.300e+01 -1.300e+01 -1.300e+01 -1.300e+01 -1.300e+01 -1.300e+01 -1.300e+01 -1.300e+01 -1.300e+01 -1.300e+01 -1.300e+01 -1.300e+01 -1.300e+01 -1.300e+01 -1.300e+01 -1.300e+01 -1.300e+01 -1.300e+01 -1.300e+01 -1.300e+01 -1.300e+01 -1.300e+01 -1.300e+01 -1.300e+01 -1.300e+01 -1.300e+01 -1.300e+01 -1.300e+01 -1.300e+01 -1.300e+01 -1.300e+01 -1.300e+01 -1.300e+01 -1.300e+01 -1.300e+01 -1.300e+01 -1.300e+01 -1.300e+01 -1.300e+01 -1.300e+01 -1.300e+01 -1.300e+01 -1.300e+01 -1.300e+01 -1.300e+01 -1.300e+01 -1.300e+01 -1.300e+01 -1.300e+01 -1.300e+01 -1.300e+01 -1.300e+01 -1.300e+01 -1.300e+01 -1.300e+01 -1.300e+01 -1.300e+01 -1.300e+01 -1.300e+01 -1.300e+01 -1.300e+01 -1.300e+01 -1.300e+01 -1.300e+01 -1.300e+01 -1.300e+01 -1.300e+01 -1.300e+01 -1.300e+01 -1.300e+01 -1.300e+01 -1.300e+01 -1.300e+01 -1.300e+01 -1.300e+01 -1.300e+01 -1.300e+01 -1.300e+01 -1.300e+01 -1.300e+01 -1.300e+01 -1.300e+01 -1.300e+01 -1.300e+01 -1.300e+01 -1.300e+01 -1.300e+01 -1.300e+01 -1.300e+01 -1.300e+01 -1.300e+01 -1.300e+01 -1.300e+01 -1.300e+01 -1.300e+01 -1.300e+01 -1.300e+01 -1.300e+01 -1.300e+01 -1.300e+01 -1.300e+01 -1.300e+01 -1.300e+01 -1.300e+01 -1.300e+01 -1.300e+01 -1.300e+01 -1.300e+01 -1.300e+01 -1.300e+01 -1.300e+01 -1.300e+01 -1.300e+01 -1.300e+01 -1.300e+01 -1.300e+01 -1.300e+01 -1.300e+01 -1.300e+01 -1.300e+01 -1.300e+01 -1.300e+01 -1.300e+01 -1.300e+01 -1.300e+01 -1.300e+01 -1.300e+01 -1.300e+01 -1.300e+01 -1.300e+01 -1.300e+01 -1.300e+01 -1.300e+01 -1.300e+01 -1.300e+01 -1.300e+01 -1.300e+01 -1.300e+01 -1.300e+01 -1.300e+01 -1.300e+01 -1.300e+01 -1.300e+01 -1.300e+01 -1.300e+01 -1.300e+01 -1.300e+01 -1.300e+01 -1.300e+01 -1.300e+01 -1.300e+01 -1.300e+01 -1.300e+01 -1.300e+01 -1.300e+01 -1.300e+01 -1.300e+01 -1.300e+01 -1.300e+01 -1.300e+01 -1.300e+01 -1.300e+01 -1.300e+01 -1.300e+01 -1.300e+01 -1.300e+01 -1.300e+01 -1.300e+01 -1.300e+01 -1.300e+01 -1.300e+01 -1.300e+01 -1.300e+01 -1.300e+01 -1.300e+01 -1.300e+01 -1.300e+01 -1.300e+01 -1.300e+01 -1.300e+01 -1.300e+01 -1.300e+01 -1.300e+01 -1.300e+01 -1.300e+01 -1.300e+01 -1.300e+01 -1.300e+01 -1.300e+01 -1.300e+01 -1.300e+01 -1.300e+01 -1.300e+01 -1.300e+01 -1.300e+01 -1.300e+01 -1.300e+01 -1.300e+01 -1.300e+01 -1.300e+01 -1.300e+01 -1.300e+01 -1.300e+01 -1.300e+01 -1.300e+01 -1.300e+01 -1.300e+01 -1.300e+01 -1.300e+01 -1.300e+01 -1.300e+01 -1.300e+01 -1.300e+01 -1.300e+01 -1.300e+01 -1.300e+01 -1.300e+01 -1.300e+01 -1.300e+01 -1.300e+01 -1.300e+01 -1.300e+01 -1.300e+01 -1.300e+01 -1.300e+01 -1.300e+01 -1.300e+01 -1.300e+01 -1.300e+01 -1.300e+01 -1.300e+01 -1.300e+01 -1.300e+01 -1.300e+01 -1.300e+01 -1.300e+01 -1.300e+01 -1.300e+01 -1.300e+01 -1.300e+01 -1.300e+01 -1.300e+01 -1.300e+01 -1.300e+01 -1.300e+01 -1.300e+01 -1.300e+01 -1.300e+01 -1.300e+01 -1.300e+01 -1.300e+01 -1.300e+01 -5.000e+00 -5.000e+00 -5.000e+00 -5.000e+00 -5.000e+00 -5.000e+00 -5.000e+00 -5.000e+00 -5.000e+00 -5.000e+00 -5.000e+00 -5.000e+00 -5.000e+00 -5.000e+00 -5.000e+00 -5.000e+00 -5.000e+00 -5.000e+00 -5.000e+00 -5.000e+00 -5.000e+00 -5.000e+00 -5.000e+00 -5.000e+00 -5.000e+00 -5.000e+00 -5.000e+00 -5.000e+00 -5.000e+00 -5.000e+00 -5.000e+00 -5.000e+00 -5.000e+00 -5.000e+00 -5.000e+00 -5.000e+00 -5.000e+00 -5.000e+00 -1.900e+01 -1.900e+01 -1.900e+01 -1.900e+01 -1.900e+01 -1.900e+01 -1.900e+01 -1.900e+01 -1.900e+01 -1.900e+01 -1.900e+01 -1.900e+01 -1.900e+01 -1.900e+01 -1.900e+01 -1.900e+01 -1.900e+01 -1.900e+01 -1.900e+01 -1.900e+01 -1.900e+01 -1.900e+01 -1.900e+01 -1.900e+01 -1.900e+01 -1.900e+01 -1.900e+01 -1.900e+01 -1.900e+01 -1.900e+01 -1.900e+01 -1.900e+01 -1.900e+01 -1.900e+01 -1.900e+01 -1.900e+01 -1.900e+01 -1.900e+01 -1.900e+01 -1.900e+01 -1.900e+01 -1.900e+01 -1.900e+01 -1.900e+01 -1.900e+01 -1.900e+01 -1.900e+01 -1.900e+01 -1.900e+01 -1.900e+01 -1.900e+01 -1.900e+01 -1.900e+01 -1.900e+01 -1.900e+01 -1.900e+01 -1.900e+01 -1.900e+01 -1.900e+01 -1.900e+01 -1.900e+01 -1.900e+01 -1.900e+01 -1.900e+01 -1.900e+01 -1.900e+01 -1.900e+01 -1.900e+01 -1.900e+01 -1.900e+01 -1.900e+01 -1.900e+01 -1.900e+01 -1.900e+01 -1.900e+01 -1.900e+01 -1.900e+01 -1.900e+01 -1.900e+01 -1.900e+01 -1.900e+01 -1.900e+01 -1.900e+01 -1.900e+01 -1.900e+01 -1.900e+01 -1.900e+01 -1.900e+01 -1.900e+01 -1.900e+01 -1.900e+01 -1.900e+01 -1.900e+01 -1.900e+01 -1.900e+01 -1.900e+01 -1.900e+01 -1.900e+01 -1.900e+01 -1.900e+01 -1.900e+01 -1.900e+01 -1.900e+01 -1.900e+01 -1.900e+01 -1.900e+01 -1.900e+01 -1.900e+01 -1.900e+01 -1.900e+01 -1.900e+01 -1.900e+01 -1.900e+01 -1.100e+01 -1.100e+01 -1.100e+01 -1.100e+01 -1.100e+01 -1.100e+01 -1.100e+01 -1.100e+01 -1.100e+01 -1.100e+01 -1.100e+01 -1.100e+01 -1.100e+01 -1.100e+01 -1.100e+01 -1.100e+01 -1.100e+01 -1.100e+01 -1.100e+01 -1.100e+01 -1.100e+01 -1.100e+01 -1.100e+01 -1.100e+01 -1.100e+01 -1.100e+01 -1.100e+01 -1.900e+01 -1.900e+01 -1.900e+01 -1.900e+01 -1.900e+01 -1.900e+01 -1.900e+01 -1.900e+01 -1.900e+01 -1.900e+01 -1.900e+01 -1.900e+01 -1.900e+01 -1.900e+01 -1.900e+01 -1.900e+01 -1.900e+01 -1.900e+01 -1.900e+01 -1.900e+01 -1.900e+01 -1.900e+01 -1.900e+01 -1.900e+01 -1.900e+01 -1.900e+01 -1.900e+01 -1.900e+01 -1.900e+01 -1.900e+01 -1.900e+01 -1.900e+01 -1.900e+01 -1.900e+01 -1.900e+01 -1.900e+01 -1.900e+01 -1.900e+01 -1.900e+01 -1.900e+01 -1.900e+01 -1.900e+01 -1.900e+01 -1.900e+01 -1.900e+01 -1.900e+01 -1.900e+01 -1.900e+01 -1.900e+01 -1.900e+01 -1.900e+01 -1.900e+01 -1.900e+01 -1.900e+01 -1.900e+01 -1.900e+01 -1.900e+01 -1.900e+01 -1.900e+01 -1.900e+01 -1.900e+01 -1.900e+01 -1.900e+01 -1.900e+01 -1.900e+01 -1.900e+01 -1.900e+01 -1.900e+01 -1.900e+01 -1.900e+01 -1.900e+01 -1.900e+01 -1.900e+01 -1.900e+01 -1.900e+01 -1.900e+01 -1.900e+01 -1.900e+01 -1.900e+01 -1.900e+01 -1.900e+01 -1.900e+01 -1.900e+01 -1.900e+01 -1.900e+01 -1.900e+01 -1.900e+01 -1.900e+01 -1.900e+01 -1.900e+01 -1.900e+01 -1.900e+01 -1.900e+01 -1.900e+01 -1.900e+01 -1.900e+01 -1.900e+01 -1.900e+01 -1.900e+01 -1.900e+01 -1.900e+01 -1.900e+01 -1.900e+01 -1.900e+01 -1.900e+01 -1.900e+01 -1.900e+01 -1.900e+01 -1.100e+01 -1.100e+01 -1.100e+01 -1.100e+01 -1.100e+01 -1.100e+01 -1.100e+01 -1.100e+01 -1.100e+01 -1.100e+01 -1.100e+01 -1.100e+01 -1.100e+01 -1.100e+01 -1.100e+01 -1.100e+01 -1.100e+01 -1.100e+01 -1.100e+01 -1.100e+01 -1.100e+01 -1.100e+01 -1.100e+01 -1.100e+01 -1.100e+01 -1.100e+01 -1.100e+01 -1.900e+01 -1.900e+01 -1.900e+01 -1.900e+01 -1.900e+01 -1.900e+01 -1.900e+01 -1.900e+01 -1.900e+01 -1.900e+01 -1.900e+01 -1.900e+01 -1.900e+01 -1.900e+01 -1.900e+01 -1.900e+01 -1.900e+01 -1.900e+01 -1.900e+01 -1.900e+01 -1.900e+01 -1.900e+01 -1.900e+01 -1.900e+01 -1.900e+01 -1.900e+01 -1.900e+01 -1.900e+01 -1.900e+01 -1.900e+01 -1.900e+01 -1.900e+01 -1.900e+01 -1.900e+01