<?xml version="1.0"?>
<VTKFile type="UnstructuredGrid" version="0.1" byte_order="LittleEndian">
   <UnstructuredGrid>
      <Piece NumberOfPoints="73820" NumberOfCells="5441">
         <Points>
            <DataArray type="Float32" Name="Position" NumberOfComponents="3" format="ascii">
-0.053	-5.036	0.146
-0.054	-5.028	0.150
-0.055	-5.019	0.149
-0.056	-5.012	0.142
-0.055	-5.011	0.133
-0.055	-5.015	0.125
-0.053	-5.023	0.121
-0.052	-5.032	0.122
-0.052	-5.039	0.128
-0.052	-5.040	0.137
-0.880	-5.128	0.103
-0.881	-5.120	0.107
-0.882	-5.111	0.106
-0.882	-5.104	0.100
-0.882	-5.102	0.091
-0.881	-5.106	0.082
-0.880	-5.114	0.078
-0.879	-5.123	0.079
-0.879	-5.130	0.085
-0.879	-5.132	0.094
-1.753	-5.217	0.067
-1.754	-5.208	0.071
-1.754	-5.199	0.070
-1.755	-5.193	0.064
-1.755	-5.191	0.055
-1.754	-5.195	0.046
-1.753	-5.203	0.042
-1.752	-5.212	0.043
-1.752	-5.219	0.049
-1.752	-5.220	0.058
-2.622	-5.280	0.044
-2.623	-5.272	0.049
-2.624	-5.263	0.049
-2.625	-5.256	0.043
-2.626	-5.254	0.034
-2.626	-5.257	0.025
-2.625	-5.265	0.020
-2.624	-5.274	0.021
-2.623	-5.281	0.027
-2.622	-5.284	0.036
-3.480	-5.446	0.139
-3.482	-5.438	0.144
-3.484	-5.429	0.144
-3.486	-5.422	0.139
-3.487	-5.419	0.130
-3.486	-5.422	0.121
-3.484	-5.430	0.116
-3.482	-5.439	0.116
-3.480	-5.446	0.121
-3.480	-5.449	0.130
-3.739	-5.518	0.114
-3.742	-5.511	0.119
-3.745	-5.502	0.119
-3.746	-5.495	0.113
-3.746	-5.492	0.104
-3.744	-5.495	0.095
-3.742	-5.502	0.090
-3.739	-5.511	0.091
-3.738	-5.519	0.096
-3.738	-5.521	0.105
-0.097	-5.074	0.253
-0.098	-5.068	0.260
-0.101	-5.065	0.268
-0.105	-5.069	0.276
-0.109	-5.076	0.279
-0.111	-5.085	0.278
-0.110	-5.092	0.272
-0.107	-5.094	0.263
-0.103	-5.091	0.256
-0.099	-5.083	0.252
0.644	-5.293	0.569
0.644	-5.286	0.576
0.641	-5.284	0.584
0.637	-5.288	0.592
0.633	-5.295	0.595
0.631	-5.304	0.594
0.631	-5.311	0.587
0.633	-5.312	0.578
0.637	-5.309	0.571
0.641	-5.301	0.567
1.390	-5.612	0.790
1.391	-5.605	0.796
1.388	-5.602	0.804
1.383	-5.605	0.812
1.378	-5.612	0.815
1.374	-5.620	0.814
1.374	-5.627	0.807
1.377	-5.630	0.799
1.381	-5.627	0.792
1.387	-5.620	0.788
1.999	-5.989	1.218
2.000	-5.981	1.222
1.996	-5.976	1.229
1.989	-5.975	1.235
1.982	-5.980	1.238
1.977	-5.987	1.238
1.976	-5.995	1.233
1.980	-6.001	1.227
1.987	-6.001	1.220
1.994	-5.997	1.217
2.368	-6.357	1.927
2.369	-6.348	1.931
2.365	-6.342	1.937
2.358	-6.341	1.943
2.350	-6.345	1.947
2.345	-6.352	1.946
2.344	-6.361	1.942
2.348	-6.367	1.936
2.355	-6.368	1.930
2.363	-6.364	1.927
2.455	-6.418	2.054
2.463	-6.413	2.054
2.472	-6.415	2.054
2.478	-6.421	2.054
2.480	-6.431	2.054
2.476	-6.439	2.054
2.467	-6.443	2.054
2.458	-6.442	2.054
2.452	-6.435	2.054
2.450	-6.426	2.054
-0.533	-5.867	1.285
-0.535	-5.860	1.289
-0.538	-5.851	1.289
-0.539	-5.844	1.283
-0.538	-5.841	1.274
-0.536	-5.845	1.265
-0.534	-5.852	1.260
-0.531	-5.861	1.261
-0.530	-5.868	1.267
-0.531	-5.870	1.276
-1.371	-6.082	1.172
-1.373	-6.075	1.178
-1.375	-6.066	1.177
-1.377	-6.059	1.172
-1.377	-6.056	1.163
-1.377	-6.059	1.154
-1.375	-6.066	1.149
-1.373	-6.076	1.149
-1.371	-6.083	1.155
-1.371	-6.085	1.164
-2.182	-6.244	1.266
-2.183	-6.237	1.271
-2.185	-6.228	1.272
-2.187	-6.221	1.266
-2.188	-6.218	1.257
-2.188	-6.221	1.249
-2.187	-6.228	1.243
-2.185	-6.237	1.243
-2.183	-6.245	1.248
-2.182	-6.247	1.257
-2.994	-6.425	1.274
-2.994	-6.418	1.279
-2.996	-6.409	1.279
-2.998	-6.401	1.274
-2.999	-6.399	1.265
-3.000	-6.402	1.256
-3.000	-6.409	1.251
-2.998	-6.418	1.251
-2.996	-6.426	1.257
-2.995	-6.428	1.265
-3.824	-6.499	1.494
-3.822	-6.492	1.499
-3.823	-6.482	1.499
-3.826	-6.475	1.494
-3.829	-6.472	1.486
-3.833	-6.475	1.478
-3.834	-6.483	1.473
-3.834	-6.492	1.473
-3.831	-6.499	1.477
-3.827	-6.502	1.485
-4.437	-6.540	1.877
-4.433	-6.532	1.877
-4.434	-6.523	1.877
-4.441	-6.516	1.877
-4.450	-6.515	1.877
-4.458	-6.519	1.877
-4.462	-6.527	1.877
-4.461	-6.536	1.877
-4.454	-6.543	1.877
-4.445	-6.544	1.877
-2.016	-18.470	4.838
-2.016	-18.460	4.837
-2.012	-18.454	4.831
-2.006	-18.452	4.824
-2.001	-18.456	4.818
-1.998	-18.464	4.814
-1.998	-18.473	4.816
-2.002	-18.480	4.821
-2.008	-18.482	4.828
-2.013	-18.478	4.835
-2.670	-18.515	4.325
-2.671	-18.506	4.325
-2.668	-18.498	4.320
-2.664	-18.495	4.312
-2.659	-18.497	4.305
-2.656	-18.505	4.300
-2.655	-18.514	4.300
-2.657	-18.522	4.305
-2.662	-18.525	4.312
-2.667	-18.522	4.320
-3.434	-18.570	3.973
-3.436	-18.561	3.974
-3.435	-18.553	3.971
-3.432	-18.548	3.963
-3.429	-18.549	3.955
-3.425	-18.555	3.948
-3.424	-18.564	3.947
-3.425	-18.573	3.951
-3.428	-18.577	3.958
-3.431	-18.576	3.967
-4.001	-18.633	3.743
-4.003	-18.624	3.745
-4.003	-18.615	3.741
-4.000	-18.610	3.734
-3.997	-18.611	3.725
-3.993	-18.617	3.719
-3.992	-18.626	3.717
-3.992	-18.634	3.720
-3.995	-18.639	3.728
-3.998	-18.639	3.736
-2.014	-18.605	4.816
-2.006	-18.603	4.820
-2.000	-18.607	4.825
-1.997	-18.614	4.830
-2.000	-18.622	4.833
-2.006	-18.629	4.832
-2.014	-18.631	4.828
-2.021	-18.627	4.822
-2.023	-18.620	4.817
-2.021	-18.611	4.815
-1.595	-18.933	4.127
-1.587	-18.931	4.132
-1.582	-18.934	4.139
-1.580	-18.941	4.144
-1.583	-18.950	4.147
-1.590	-18.956	4.145
-1.597	-18.958	4.140
-1.603	-18.955	4.134
-1.604	-18.947	4.128
-1.601	-18.939	4.125
-1.038	-19.316	3.628
-1.031	-19.314	3.634
-1.026	-19.317	3.641
-1.026	-19.324	3.647
-1.031	-19.331	3.650
-1.038	-19.337	3.649
-1.045	-19.339	3.643
-1.049	-19.336	3.636
-1.050	-19.329	3.629
-1.045	-19.321	3.626
-0.670	-19.811	3.236
-0.670	-19.802	3.240
-0.670	-19.793	3.238
-0.670	-19.787	3.232
-0.670	-19.785	3.223
-0.670	-19.789	3.214
-0.670	-19.798	3.210
-0.670	-19.807	3.212
-0.670	-19.813	3.218
-0.670	-19.815	3.227
-2.022	-18.770	4.833
-2.024	-18.761	4.831
-2.021	-18.754	4.825
-2.016	-18.752	4.818
-2.010	-18.756	4.812
-2.005	-18.764	4.809
-2.003	-18.772	4.812
-2.006	-18.779	4.818
-2.011	-18.781	4.825
-2.017	-18.778	4.831
-2.683	-19.014	4.288
-2.684	-19.005	4.287
-2.682	-18.998	4.282
-2.678	-18.995	4.274
-2.672	-18.997	4.268
-2.668	-19.005	4.264
-2.666	-19.014	4.265
-2.668	-19.021	4.270
-2.673	-19.024	4.277
-2.678	-19.021	4.284
-3.437	-19.113	3.838
-3.438	-19.104	3.839
-3.437	-19.096	3.834
-3.433	-19.092	3.827
-3.428	-19.094	3.819
-3.425	-19.100	3.814
-3.423	-19.110	3.813
-3.425	-19.118	3.818
-3.428	-19.121	3.825
-3.433	-19.120	3.833
-3.799	-19.153	3.653
-3.801	-19.144	3.654
-3.799	-19.136	3.650
-3.796	-19.132	3.642
-3.792	-19.133	3.634
-3.788	-19.140	3.629
-3.787	-19.149	3.628
-3.788	-19.157	3.632
-3.791	-19.161	3.640
-3.796	-19.160	3.648
-2.006	-18.919	4.808
-2.005	-18.910	4.811
-2.010	-18.904	4.817
-2.017	-18.903	4.823
-2.024	-18.907	4.827
-2.029	-18.915	4.827
-2.029	-18.923	4.824
-2.025	-18.930	4.818
-2.018	-18.931	4.813
-2.011	-18.927	4.809
-1.525	-19.173	5.450
-1.524	-19.165	5.453
-1.528	-19.158	5.459
-1.535	-19.156	5.464
-1.543	-19.160	5.467
-1.549	-19.167	5.467
-1.550	-19.175	5.464
-1.546	-19.182	5.458
-1.539	-19.184	5.453
-1.531	-19.181	5.450
-1.194	-19.558	6.142
-1.192	-19.550	6.147
-1.196	-19.544	6.153
-1.203	-19.542	6.158
-1.212	-19.544	6.160
-1.218	-19.551	6.159
-1.220	-19.559	6.155
-1.217	-19.565	6.149
-1.209	-19.567	6.144
-1.201	-19.565	6.141
-1.099	-19.708	6.327
-1.097	-19.700	6.332
-1.100	-19.694	6.338
-1.107	-19.693	6.344
-1.116	-19.695	6.346
-1.123	-19.702	6.344
-1.125	-19.709	6.339
-1.121	-19.715	6.333
-1.114	-19.717	6.327
-1.106	-19.714	6.325
-2.034	-19.060	4.820
-2.029	-19.054	4.815
-2.021	-19.052	4.810
-2.014	-19.056	4.806
-2.009	-19.064	4.805
-2.009	-19.073	4.808
-2.014	-19.079	4.812
-2.021	-19.081	4.817
-2.029	-19.077	4.821
-2.034	-19.069	4.822
-2.491	-19.244	4.083
-2.487	-19.237	4.077
-2.480	-19.236	4.072
-2.472	-19.240	4.068
-2.467	-19.247	4.068
-2.466	-19.256	4.071
-2.470	-19.262	4.076
-2.477	-19.264	4.082
-2.485	-19.260	4.086
-2.490	-19.252	4.086
-2.973	-19.623	3.495
-2.971	-19.618	3.488
-2.965	-19.617	3.481
-2.958	-19.622	3.476
-2.952	-19.629	3.476
-2.950	-19.637	3.481
-2.952	-19.642	3.488
-2.958	-19.643	3.495
-2.965	-19.639	3.500
-2.971	-19.631	3.500
-3.204	-19.829	3.361
-3.210	-19.826	3.367
-3.216	-19.819	3.368
-3.219	-19.811	3.364
-3.219	-19.806	3.356
-3.215	-19.805	3.348
-3.209	-19.809	3.342
-3.203	-19.816	3.341
-3.200	-19.823	3.345
-3.200	-19.829	3.353
-2.013	-19.223	4.804
-2.011	-19.214	4.806
-2.015	-19.206	4.810
-2.022	-19.202	4.813
-2.031	-19.204	4.816
-2.038	-19.210	4.816
-2.040	-19.219	4.814
-2.036	-19.227	4.811
-2.029	-19.231	4.807
-2.020	-19.229	4.805
-1.740	-19.453	5.587
-1.738	-19.444	5.589
-1.742	-19.436	5.593
-1.749	-19.433	5.597
-1.758	-19.435	5.600
-1.764	-19.441	5.600
-1.766	-19.450	5.598
-1.763	-19.458	5.594
-1.755	-19.462	5.591
-1.746	-19.460	5.588
-1.441	-19.691	6.360
-1.439	-19.682	6.361
-1.443	-19.675	6.365
-1.451	-19.671	6.369
-1.459	-19.673	6.372
-1.465	-19.680	6.373
-1.467	-19.689	6.372
-1.463	-19.697	6.369
-1.456	-19.700	6.365
-1.447	-19.698	6.361
-1.299	-19.727	6.665
-1.298	-19.718	6.665
-1.302	-19.710	6.668
-1.310	-19.706	6.672
-1.318	-19.708	6.676
-1.324	-19.715	6.678
-1.325	-19.724	6.677
-1.321	-19.732	6.674
-1.313	-19.736	6.670
-1.305	-19.734	6.667
-2.022	-19.378	4.815
-2.021	-19.372	4.822
-2.023	-19.363	4.825
-2.028	-19.356	4.822
-2.034	-19.353	4.816
-2.039	-19.354	4.808
-2.040	-19.361	4.802
-2.038	-19.369	4.799
-2.032	-19.377	4.801
-2.026	-19.380	4.808
-2.686	-19.705	5.268
-2.685	-19.699	5.274
-2.687	-19.690	5.276
-2.692	-19.682	5.274
-2.698	-19.679	5.267
-2.702	-19.681	5.260
-2.703	-19.688	5.253
-2.701	-19.696	5.251
-2.696	-19.704	5.253
-2.691	-19.707	5.260
-3.377	-19.969	5.710
-3.376	-19.962	5.717
-3.378	-19.953	5.719
-3.383	-19.946	5.716
-3.388	-19.942	5.709
-3.392	-19.945	5.701
-3.394	-19.951	5.695
-3.392	-19.960	5.693
-3.387	-19.968	5.696
-3.381	-19.971	5.703
-2.046	-19.506	4.814
-2.038	-19.502	4.810
-2.030	-19.503	4.808
-2.023	-19.510	4.808
-2.021	-19.519	4.810
-2.024	-19.527	4.813
-2.032	-19.531	4.816
-2.041	-19.529	4.819
-2.048	-19.523	4.819
-2.050	-19.514	4.817
-2.293	-19.728	4.021
-2.287	-19.723	4.016
-2.279	-19.724	4.012
-2.271	-19.730	4.011
-2.268	-19.738	4.012
-2.270	-19.746	4.017
-2.277	-19.751	4.021
-2.285	-19.750	4.025
-2.292	-19.744	4.027
-2.295	-19.736	4.025
-2.758	-20.052	3.391
-2.751	-20.050	3.385
-2.743	-20.053	3.381
[...]
         <CellData>
           <DataArray type="Float32" Name="combinedRootClassID" NumberOfComponents="1" format="ascii">
 -1.300e+01 -1.300e+01 -1.300e+01 -1.300e+01 -1.300e+01 -1.300e+01 -1.300e+01 -1.300e+01 -1.300e+01 -1.300e+01 -1.300e+01 -1.300e+01 -1.300e+01 -1.300e+01 -1.300e+01 -1.300e+01 -1.300e+01 -1.300e+01 -1.300e+01 -1.300e+01 -1.300e+01 -1.300e+01 -1.300e+01 -1.300e+01 -1.300e+01 -1.300e+01 -1.300e+01 -1.300e+01 -1.300e+01 -1.300e+01 -1.300e+01 -1.300e+01 -1.300e+01 -1.300e+01 -1.300e+01 -1.300e+01 -1.300e+01 -1.300e+01 -1.300e+01 -1.300e+01 -1.300e+01 -1.300e+01 -1.300e+01 -1.300e+01 -1.300e+01 -1.300e+01 -1.300e+01 -1.300e+01 -1.300e+01 -1.300e+01 -1.300e+01 -1.300e+01 -1.300e+01 -1.300e+01 -1.300e+01 -1.300e+01 -1.300e+01 -1.300e+01 -1.300e+01 -1.300e+01 -1.300e+01 -1.300e+01 -1.300e+01 -1.300e+01 -1.300e+01 -1.300e+01 -1.300e+01 -1.300e+01 -1.300e+01 -1.300e+01 -1.300e+01 -1.300e+01 -1.300e+01 -1.300e+01 -1.300e+01 -1.300e+01 -1.300e+01 -1.300e+01 -1.300e+01 -1.300e+01 -1.300e+01 -1.300e+01 -1.300e+01 -1.300e+01 -1.300e+01 -1.300e+01 -1.300e+01 -1.300e+01 -1.300e+01 -1.300e+01 -1.300e+01 -1.300e+01 -1.300e+01 -1.300e+01 -1.300e+01 -1.300e+01 -1.300e+01 -1.300e+01 -1.300e+01 -1.300e+01 -1.300e+01 -1.300e+01 -1.300e+01 -1.300e+01 -1.300e+01 -1.300e+01 -1.300e+01 -1.300e+01 -1.300e+01 -1.300e+01 -1.300e+01 -1.300e+01 -1.300e+01 -1.300e+01 -1.300e+01 -1.300e+01 -1.300e+01 -1.300e+01 -1.300e+01 -1.300e+01 -1.300e+01 -1.300e+01 -1.300e+01 -1.300e+01 -1.300e+01 -1.300e+01 -1.300e+01 -1.300e+01 -1.300e+01 -1.300e+01 -1.300e+01 -1.300e+01 -1.300e+01 -1.300e+01 -1.300e+01 -1.300e+01 -1.300e+01 -1.300e+01 -1.300e+01 -1.300e+01 -1.300e+01 -1.300e+01 -1.300e+01 -1.300e+01 -1.300e+01 -1.300e+01 -1.300e+01 -1.300e+01 -1.300e+01 -1.300e+01 -1.300e+01 -1.300e+01 -1.300e+01 -1.300e+01 -1.300e+01 -1.300e+01 -1.300e+01 -1.300e+01 -1.300e+01 -1.300e+01 -1.300e+01 -1.300e+01 -1.300e+01 -1.300e+01 -1.300e+01 -1.300e+01 -1.300e+01 -1.300e+01 -1.300e+01 -1.300e+01 -1.300e+01 -1.300e+01 -1.300e+01 -1.300e+01 -1.300e+01 -1.300e+01 -1.300e+01 -1.300e+01 -1.300e+01 -1.300e+01 -1.300e+01 -1.300e+01 -1.300e+01 -1.300e+01 -1.300e+01 -1.300e+01 -1.300e+01 -1.300e+01 -1.300e+01 -1.300e+01 -1.300e+01 -1.300e+01 -1.300e+01 -1.300e+01 -1.300e+01 -1.300e+01 -1.300e+01 -1.300e+01 -1.300e+01 -1.300e+01 -1.300e+01 -1.300e+01 -1.300e+01 -1.300e+01 -1.300e+01 -1.300e+01 -1.300e+01 -1.300e+01 -1.300e+01 -1.300e+01 -1.300e+01 -1.300e+01 -1.300e+01 -1.300e+01 -1.300e+01 -1.300e+01 -1.300e+01 -1.300e+01 -1.300e+01 -1.300e+01 -1.300e+01 -1.300e+01 -1.300e+01 -1.300e+01 -1.300e+01 -1.300e+01 -1.300e+01 -1.300e+01 -1.300e+01 -1.300e+01 -1.300e+01 -1.300e+01 -1.300e+01 -1.300e+01 -1.300e+01 -1.300e+01 -1.300e+01 -1.300e+01 -1.300e+01 -1.300e+01 -1.300e+01 -1.300e+01 -1.300e+01 -1.300e+01 -1.300e+01 -1.300e+01 -1.300e+01 -1.300e+01 -1.300e+01 -1.300e+01 -1.300e+01 -1.300e+01 -1.300e+01 -1.300e+01 -1.300e+01 -1.300e+01 -1.300e+01 -1.300e+01 -1.300e+01 -1.300e+01 -1.300e+01 -1.300e+01 -1.300e+01 -1.300e+01 -1.300e+01 -1.300e+01 -1.300e+01 -1.300e+01 -1.300e+01 -1.300e+01 -1.300e+01 -1.300e+01 -1.300e+01 -1.300e+01 -1.300e+01 -1.300e+01 -1.300e+01 -1.300e+01 -1.300e+01 -1.300e+01 -1.300e+01 -1.300e+01 -1.300e+01 -1.300e+01 -1.300e+01 -1.300e+01 -1.300e+01 -1.300e+01 -1.300e+01 -1.300e+01 -1.300e+01 -1.300e+01 -1.300e+01 -1.300e+01 -1.300e+01 -1.300e+01 -1.300e+01 -1.300e+01 -1.300e+01 -1.300e+01 -1.300e+01 -1.300e+01 -1.300e+01 -1.300e+01 -1.300e+01 -1.300e+01 -1.300e+01 -1.300e+01 -1.300e+01 -1.300e+01 -1.300e+01 -1.300e+01 -1.300e+01 -1.300e+01 -1.300e+01 -1.300e+01 -1.300e+01 -1.300e+01 -1.300e+01 -1.300e+01 -1.300e+01 -1.300e+01 -1.300e+01 -1.300e+01 -1.300e+01 -1.300e+01 -1.300e+01 -1.300e+01 -1.300e+01 -1.300e+01 -1.300e+01 -1.300e+01 -1.300e+01 -1.300e+01 -1.300e+01 -1.300e+01 -1.300e+01 -1.300e+01 -1.300e+01 -1.300e+01 -1.300e+01 -1.300e+01 -1.300e+01 -1.300e+01 -1.300e+01 -1.300e+01 -1.300e+01 -1.300e+01 -1.300e+01 -1.300e+01 -1.300e+01 -1.300e+01 -1.300e+01 -1.300e+01 -1.300e+01 -1.300e+01 -1.300e+01 -1.300e+01 -1.300e+01 -1.300e+01 -1.300e+01 -1.300e+01 -1.300e+01 -1.300e+01 -1.300e+01 -1.300e+01 -1.300e+01 -1.300e+01 -1.300e+01 -1.300e+01 -1.300e+01 -1.300e+01 -1.300e+01 -1.300e+01 -1.300e+01 -1.300e+01 -1.300e+01 -1.300e+01 -1.300e+01 -1.300e+01 -1.300e+01 -1.300e+01 -1.300e+01 -1.300e+01 -1.300e+01 -1.300e+01 -1.300e+01 -1.300e+01 -1.300e+01 -1.300e+01 -1.300e+01 -1.300e+01 -1.300e+01 -1.300e+01 -1.300e+01 -1.300e+01 -1.300e+01 -1.300e+01 -1.300e+01 -1.300e+01 -1.300e+01 -1.300e+01 -1.300e+01 -1.300e+01 -1.300e+01 -1.300e+01 -1.300e+01 -1.300e+01 -1.300e+01 -1.300e+01 -1.300e+01 -1.300e+01 -1.300e+01 -1.300e+01 -1.300e+01 -1.300e+01 -1.300e+01 -1.300e+01 -1.300e+01 -1.300e+01 -1.300e+01 -1.300e+01 -1.300e+01 -1.300e+01 -1.300e+01 -1.300e+01 -1.300e+01 -1.300e+01 -1.300e+01 -1.300e+01 -1.300e+01 -1.300e+01 -1.300e+01 -1.300e+01 -1.300e+01 -1.300e+01 -1.300e+01 -1.300e+01 -1.300e+01 -1.300e+01 -1.300e+01 -1.300e+01 -1.300e+01 -1.300e+01 -1.300e+01 -1.300e+01 -1.300e+01 -1.300e+01 -1.300e+01 -1.300e+01 -1.300e+01 -1.300e+01 -1.300e+01 -1.300e+01 -1.300e+01 -1.300e+01 -1.300e+01 -1.300e+01 -1.300e+01 -1.300e+01 -1.300e+01 -1.300e+01 -1.300e+01 -1.300e+01 -1.300e+01 -1.300e+01 -1.300e+01 -1.300e+01 -1.300e+01 -1.300e+01 -1.300e+01 -1.300e+01 -1.300e+01 -1.300e+01 -1.300e+01 -1.300e+01 -1.300e+01 -1.300e+01 -1.300e+01 -1.300e+01 -1.300e+01 -1.300e+01 -1.300e+01 -1.300e+01 -1.300e+01 -1.300e+01 -1.300e+01 -1.300e+01 -1.300e+01 -1.300e+01 -1.300e+01 -1.300e+01 -1.300e+01 -1.300e+01 -1.300e+01 -1.300e+01 -1.300e+01 -1.300e+01 -1.300e+01 -1.300e+01 -1.300e+01 -1.300e+01 -1.300e+01 -1.300e+01 -1.300e+01 -1.300e+01 -1.300e+01 -1.300e+01 -1.300e+01 -1.300e+01 -1.300e+01 -1.300e+01 -1.300e+01 -1.300e+01 -1.300e+01 -1.300e+01 -1.300e+01 -1.300e+01 -1.300e+01 -1.300e+01 -1.300e+01 -1.300e+01 -1.300e+01 -1.300e+01 -1.300e+01 -1.300e+01 -1.300e+01 -1.300e+01 -1.300e+01 -1.300e+01 -1.300e+01 -1.300e+01 -1.300e+01 -1.300e+01 -1.300e+01 -1.300e+01 -1.300e+01 -1.300e+01 -1.300e+01 -1.300e+01 -1.300e+01 -1.300e+01 -1.300e+01 -1.300e+01 -1.300e+01 -1.300e+01 -1.300e+01 -1.300e+01 -1.300e+01 -1.300e+01 -1.300e+01 -1.300e+01 -1.300e+01 -1.300e+01 -1.300e+01 -1.300e+01 -1.300e+01 -1.300e+01 -1.300e+01 -1.300e+01 -1.300e+01 -1.300e+01 -1.300e+01 -1.300e+01 -1.300e+01 -5.000e+00 -5.000e+00 -5.000e+00 -5.000e+00 -5.000e+00 -5.000e+00 -5.000e+00 -5.000e+00 -5.000e+00 -5.000e+00 -5.000e+00 -5.000e+00 -5.000e+00 -5.000e+00 -5.000e+00 -5.000e+00 -5.000e+00 -5.000e+00 -5.000e+00 -5.000e+00 -5.000e+00 -5.000e+00 -5.000e+00 -5.000e+00 -5.000e+00 -5.000e+00 -5.000e+00 -5.000e+00 -5.000e+00 -5.000e+00 -5.000e+00 -5.000e+00 -5.000e+00 -5.000e+00 -5.000e+00 -5.000e+00 -5.000e+00 -5.000e+00 -5.000e+00 -5.000e+00 -5.000e+00 -5.000e+00 -5.000e+00 -5.000e+00 -5.000e+00 -5.000e+00 -5.000e+00 -5.000e+00 -1.300e+01 -1.300e+01 -1.300e+01 -1.300e+01 -1.300e+01 -1.300e+01 -1.300e+01 -1.300e+01 -1.300e+01 -1.300e+01 -1.300e+01 -1.300e+01 -1.300e+01 -1.300e+01 -1.300e+01 -1.300e+01 -1.300e+01 -1.300e+01 -1.300e+01 -1.300e+01 -1.300e+01 -1.300e+01 -1.300e+01 -1.300e+01 -1.300e+01 -1.300e+01 -1.300e+01 -1.300e+01 -1.300e+01 -1.300e+01 -1.300e+01 -1.300e+01 -1.300e+01 -1.300e+01 -1.300e+01 -1.300e+01 -1.300e+01 -1.300e+01 -1.300e+01 -1.300e+01 -1.300e+01 -1.300e+01 -1.300e+01 -1.300e+01 -1.300e+01 -1.300e+01 -1.300e+01 -1.300e+01 -1.300e+01 -1.300e+01 -1.300e+01 -1.300e+01 -1.300e+01 -1.300e+01 -1.300e+01 -1.300e+01 -1.300e+01 -1.300e+01 -1.300e+01 -1.300e+01 -1.300e+01 -1.300e+01 -1.300e+01 -1.300e+01 -1.300e+01 -1.300e+01 -1.300e+01 -1.300e+01 -1.300e+01 -1.300e+01 -1.300e+01 -1.300e+01 -1.300e+01 -1.300e+01 -1.300e+01 -1.300e+01 -1.300e+01 -1.300e+01 -1.300e+01 -1.300e+01 -1.300e+01 -1.300e+01 -1.300e+01 -1.300e+01 -1.300e+01 -1.300e+01 -1.300e+01 -1.300e+01 -1.300e+01 -1.300e+01 -1.300e+01 -1.300e+01 -1.300e+01 -1.300e+01 -1.300e+01 -1.300e+01 -1.300e+01 -1.300e+01 -1.300e+01 -1.300e+01 -1.300e+01 -1.300e+01 -1.300e+01 -1.300e+01 -1.300e+01 -1.300e+01 -1.300e+01 -1.300e+01 -1.300e+01 -1.300e+01 -1.300e+01 -1.300e+01 -1.300e+01 -1.300e+01 -1.300e+01 -1.300e+01 -1.300e+01 -1.300e+01 -1.300e+01 -1.300e+01 -1.300e+01 -1.300e+01 -1.300e+01 -1.300e+01 -1.300e+01 -1.300e+01 -1.300e+01 -1.300e+01 -1.300e+01 -1.300e+01 -1.300e+01 -1.300e+01 -1.300e+01 -1.300e+01 -1.300e+01 -1.300e+01 -1.300e+01 -1.300e+01 -1.300e+01 -1.300e+01 -1.300e+01 -1.300e+01 -1.300e+01 -1.300e+01 -1.300e+01 -1.300e+01 -1.300e+01 -1.300e+01 -1.300e+01 -1.300e+01 -1.300e+01 -1.300e+01 -1.300e+01 -1.300e+01 -1.300e+01 -1.300e+01 -1.300e+01 -1.300e+01 -1.300e+01 -1.300e+01 -1.300e+01 -1.300e+01 -1.300e+01 -1.300e+01 -1.300e+01 -1.300e+01 -1.300e+01 -1.300e+01 -1.300e+01 -1.300e+01 -1.300e+01 -1.300e+01 -1.300e+01 -1.300e+01 -1.300e+01 -1.300e+01 -1.300e+01 -1.300e+01 -1.300e+01 -1.300e+01 -1.300e+01 -1.300e+01 -1.300e+01 -1.300e+01 -1.300e+01 -1.300e+01 -1.300e+01 -1.300e+01 -1.300e+01 -1.300e+01 -1.300e+01 -1.300e+01 -1.300e+01 -1.300e+01 -1.300e+01 -1.300e+01 -1.300e+01 -1.300e+01 -1.300e+01 -1.300e+01 -1.300e+01 -1.300e+01 -1.300e+01 -1.300e+01 -1.300e+01 -1.300e+01 -1.300e+01 -1.300e+01 -1.300e+01 -1.300e+01 -1.300e+01 -1.300e+01 -1.300e+01 -1.300e+01 -1.300e+01 -1.300e+01 -1.300e+01 -1.300e+01 -1.300e+01 -1.300e+01 -1.300e+01 -1.300e+01 -1.300e+01 -1.300e+01 -1.300e+01 -1.300e+01 -1.300e+01 -1.300e+01 -1.300e+01 -1.300e+01 -1.300e+01 -1.300e+01 -1.300e+01 -1.300e+01 -1.300e+01 -1.300e+01 -1.300e+01 -1.300e+01 -1.300e+01 -1.300e+01 -1.300e+01 -1.300e+01 -1.300e+01 -1.300e+01 -1.300e+01 -1.300e+01 -1.300e+01 -1.300e+01 -1.300e+01 -1.300e+01 -1.300e+01 -1.300e+01 -1.300e+01 -1.300e+01 -1.300e+01 -1.300e+01 -1.300e+01 -1.300e+01 -1.300e+01 -1.300e+01 -1.300e+01 -1.300e+01 -1.300e+01 -1.300e+01 -1.300e+01 -1.300e+01 -1.300e+01 -1.300e+01 -1.300e+01 -1.300e+01 -1.300e+01 -1.300e+01 -1.300e+01 -1.300e+01 -1.300e+01 -1.300e+01 -1.300e+01 -1.300e+01 -1.300e+01 -1.300e+01 -1.300e+01 -1.300e+01 -1.300e+01 -1.300e+01 -1.300e+01 -1.300e+01 -1.300e+01 -1.300e+01 -1.300e+01 -1.300e+01 -1.300e+01 -1.300e+01 -1.300e+01 -1.300e+01 -1.300e+01 -1.300e+01 -1.300e+01 -1.300e+01 -1.300e+01 -1.300e+01 -1.300e+01 -1.300e+01 -1.300e+01 -1.300e+01 -1.300e+01 -1.300e+01 -1.300e+01 -1.300e+01 -1.300e+01 -1.300e+01 -1.300e+01 -1.300e+01 -1.300e+01 -1.300e+01 -1.300e+01 -1.300e+01 -1.300e+01 -1.300e+01 -1.300e+01 -1.300e+01 -1.300e+01 -1.300e+01 -1.300e+01 -1.300e+01 -1.300e+01 -1.300e+01 -1.300e+01 -1.300e+01 -1.300e+01 -1.300e+01 -1.300e+01 -1.300e+01 -1.300e+01 -1.300e+01 -1.300e+01 -1.300e+01 -1.300e+01 -1.300e+01 -1.300e+01 -1.300e+01 -1.300e+01 -1.300e+01 -1.300e+01 -1.300e+01 -1.300e+01 -1.300e+01 -1.300e+01 -1.300e+01 -1.300e+01 -1.300e+01 -1.300e+01 -1.300e+01 -1.300e+01 -1.300e+01 -1.300e+01 -1.300e+01 -1.300e+01 -1.300e+01 -1.300e+01 -1.300e+01 -1.300e+01 -1.300e+01 -1.300e+01 -1.300e+01 -1.300e+01 -1.300e+01 -1.300e+01 -1.300e+01 -1.300e+01 -1.300e+01 -1.300e+01 -1.300e+01 -1.300e+01 -1.300e+01 -1.300e+01 -1.300e+01 -1.300e+01 -1.300e+01 -1.300e+01 -1.300e+01 -1.300e+01 -1.300e+01 -1.300e+01 -1.300e+01 -1.300e+01 -1.300e+01 -1.300e+01 -1.300e+01 -1.300e+01 -1.300e+01 -1.300e+01 -1.300e+01 -1.300e+01 -1.300e+01 -1.300e+01 -1.300e+01 -1.300e+01 -1.300e+01 -1.300e+01 -1.300e+01 -1.300e+01 -1.300e+01 -1.300e+01 -1.300e+01 -1.300e+01 -1.300e+01 -1.300e+01 -1.300e+01 -1.300e+01 -1.300e+01 -1.300e+01 -1.300e+01 -1.300e+01 -1.300e+01 -1.300e+01 -1.300e+01 -1.300e+01 -1.300e+01 -1.300e+01 -1.300e+01 -1.300e+01 -1.300e+01 -1.300e+01 -1.300e+01 -1.300e+01 -1.300e+01 -1.300e+01 -1.300e+01 -1.300e+01 -1.300e+01 -1.300e+01 -1.300e+01 -1.300e+01 -1.300e+01 -1.300e+01 -1.300e+01 -1.300e+01 -1.300e+01 -1.300e+01 -1.300e+01 -1.300e+01 -1.300e+01 -1.300e+01 -1.300e+01 -1.300e+01 -1.300e+01 -1.300e+01 -1.300e+01 -1.300e+01 -1.300e+01 -1.300e+01 -1.300e+01 -1.300e+01 -1.300e+01 -1.300e+01 -1.300e+01 -1.300e+01 -1.300e+01 -1.300e+01 -1.300e+01 -1.300e+01 -1.300e+01 -1.300e+01 -1.300e+01 -1.300e+01 -1.300e+01 -1.300e+01 -1.300e+01 -1.300e+01 -1.300e+01 -1.300e+01 -1.300e+01 -1.300e+01 -1.300e+01 -1.300e+01 -1.300e+01 -1.300e+01 -1.300e+01 -1.300e+01 -1.300e+01 -1.300e+01 -1.300e+01 -1.300e+01 -1.300e+01 -1.300e+01 -1.300e+01 -1.300e+01 -1.300e+01 -1.300e+01 -1.300e+01 -1.300e+01 -1.300e+01 -1.300e+01 -1.300e+01 -1.300e+01 -1.300e+01 -1.300e+01 -1.300e+01 -1.300e+01 -1.300e+01 -1.300e+01 -1.300e+01 -1.300e+01 -1.300e+01 -1.300e+01 -1.300e+01 -1.300e+01 -1.300e+01 -1.300e+01 -1.300e+01 -1.300e+01 -1.300e+01 -1.300e+01 -1.300e+01 -1.300e+01 -1.300e+01 -1.300e+01 -1.300e+01 -1.300e+01 -1.300e+01 -1.300e+01 -1.300e+01 -1.300e+01 -1.300e+01 -1.300e+01 -1.300e+01 -1.300e+01 -1.300e+01 -1.300e+01 -1.300e+01 -1.300e+01 -1.300e+01 -1.300e+01 -1.300e+01 -1.300e+01 -1.300e+01 -1.300e+01 -1.300e+01 -1.300e+01 -1.300e+01 -1.300e+01 -1.300e+01 -1.300e+01 -1.300e+01 -1.300e+01 -1.300e+01 -1.300e+01 -1.300e+01 -1.300e+01 -1.300e+01 -1.300e+01 -1.300e+01 -1.300e+01 -1.300e+01 -1.300e+01 -1.300e+01 -1.300e+01 -1.300e+01 -1.300e+01 -1.300e+01 -1.300e+01 -1.300e+01 -1.300e+01 -1.300e+01 -1.300e+01 -1.300e+01 -5.000e+00 -5.000e+00 -5.000e+00 -5.000e+00 -5.000e+00 -5.000e+00 -5.000e+00 -5.000e+00 -5.000e+00 -5.000e+00 -5.000e+00 -5.000e+00 -5.000e+00 -5.000e+00 -5.000e+00 -5.000e+00 -5.000e+00 -5.000e+00 -5.000e+00 -5.000e+00 -5.000e+00 -5.000e+00 -5.000e+00 -5.000e+00 -5.000e+00 -5.000e+00 -5.000e+00 -5.000e+00 -5.000e+00 -5.000e+00 -5.000e+00 -5.000e+00 -5.000e+00 -5.000e+00 -5.000e+00 -5.000e+00 -5.000e+00 -5.000e+00 -5.000e+00 -5.000e+00 -5.000e+00 -5.000e+00 -5.000e+00 -5.000e+00 -5.000e+00 -5.000e+00 -5.000e+00 -5.000e+00 -1.300e+01 -1.300e+01 -1.300e+01 -1.300e+01 -1.300e+01 -1.300e+01 -1.300e+01 -1.300e+01 -1.300e+01 -1.300e+01 -1.300e+01 -1.300e+01 -1.300e+01 -1.300e+01 -1.300e+01 -1.300e+01 -1.300e+01 -1.300e+01 -1.300e+01 -1.300e+01 -1.300e+01 -1.300e+01 -1.300e+01 -1.300e+01 -1.300e+01 -1.300e+01 -1.300e+01 -1.300e+01 -1.300e+01 -1.300e+01 -1.300e+01 -1.300e+01 -1.300e+01 -1.300e+01 -1.300e+01 -1.300e+01 -1.300e+01 -1.300e+01 -1.300e+01 -1.300e+01 -1.300e+01 -1.300e+01 -1.300e+01 -1.300e+01 -1.300e+01 -1.300e+01 -1.300e+01 -1.300e+01 -1.300e+01 -1.300e+01 -1.300e+01 -1.300e+01 -1.300e+01 -1.300e+01 -1.300e+01 -1.300e+01 -1.300e+01 -1.300e+01 -1.300e+01 -1.300e+01 -1.300e+01 -1.300e+01 -1.300e+01 -1.300e+01 -1.300e+01 -1.300e+01 -1.300e+01 -1.300e+01 -1.300e+01 -1.300e+01 -1.300e+01 -1.300e+01 -1.300e+01 -1.300e+01 -1.300e+01 -1.300e+01 -1.300e+01 -1.300e+01 -1.300e+01 -1.300e+01 -1.300e+01 -1.300e+01 -1.300e+01 -1.300e+01 -1.300e+01 -1.300e+01 -1.300e+01 -1.300e+01 -1.300e+01 -1.300e+01 -1.300e+01 -1.300e+01 -1.300e+01 -1.300e+01 -1.300e+01 -1.300e+01 -1.300e+01 -1.300e+01 -1.300e+01 -1.300e+01 -1.300e+01 -1.300e+01 -1.300e+01 -1.300e+01 -1.300e+01 -1.300e+01 -1.300e+01 -1.300e+01 -1.300e+01 -1.300e+01 -1.300e+01 -1.300e+01 -1.300e+01 -1.300e+01 -1.300e+01 -1.300e+01 -1.300e+01 -1.300e+01 -1.300e+01 -1.300e+01 -1.300e+01 -1.300e+01 -1.300e+01 -1.300e+01 -1.300e+01 -1.300e+01 -1.300e+01 -1.300e+01 -1.300e+01 -1.300e+01 -1.300e+01 -1.300e+01 -1.300e+01 -1.300e+01 -1.300e+01 -1.300e+01 -1.300e+01 -1.300e+01 -1.300e+01 -1.300e+01 -1.300e+01 -1.300e+01 -1.300e+01 -1.300e+01 -1.300e+01 -1.300e+01 -1.300e+01 -1.300e+01 -1.300e+01 -1.300e+01 -1.300e+01 -1.300e+01 -1.300e+01 -1.300e+01 -1.300e+01 -1.300e+01 -1.300e+01 -1.300e+01 -1.300e+01 -1.300e+01 -1.300e+01 -1.300e+01 -1.300e+01 -1.300e+01 -1.300e+01 -1.300e+01 -1.300e+01 -1.300e+01 -1.300e+01 -1.300e+01 -1.300e+01 -1.300e+01 -1.300e+01 -1.300e+01 -1.300e+01 -1.300e+01 -1.300e+01 -1.300e+01 -1.300e+01 -1.300e+01 -1.300e+01 -1.300e+01 -1.300e+01 -1.300e+01 -1.300e+01 -1.300e+01 -1.300e+01 -1.300e+01 -1.300e+01 -1.300e+01 -1.300e+01 -1.300e+01 -1.300e+01 -1.300e+01 -1.300e+01 -1.300e+01 -1.300e+01 -1.300e+01 -1.300e+01 -1.300e+01 -1.300e+01 -1.300e+01 -1.300e+01 -1.300e+01 -1.300e+01 -1.300e+01 -1.300e+01 -1.300e+01 -1.300e+01 -1.300e+01 -1.300e+01 -1.300e+01 -1.300e+01 -1.300e+01 -1.300e+01 -1.300e+01 -1.300e+01 -1.300e+01 -1.300e+01 -1.300e+01 -1.300e+01 -1.300e+01 -1.300e+01 -1.300e+01 -1.300e+01 -1.300e+01 -1.300e+01 -1.300e+01 -1.300e+01 -1.300e+01 -1.300e+01 -1.300e+01 -1.300e+01 -1.300e+01 -1.300e+01 -1.300e+01 -1.300e+01 -1.300e+01 -1.300e+01 -1.300e+01 -1.300e+01 -1.300e+01 -1.300e+01 -1.300e+01 -1.300e+01 -1.300e+01 -1.300e+01 -1.300e+01 -1.300e+01 -1.300e+01 -1.300e+01 -1.300e+01 -1.300e+01 -1.300e+01 -1.300e+01 -1.300e+01 -1.300e+01 -1.300e+01 -1.300e+01 -1.300e+01 -1.300e+01 -1.300e+01 -1.300e+01 -1.300e+01 -1.300e+01 -1.300e+01 -1.300e+01 -1.300e+01 -1.300e+01 -1.300e+01 -1.300e+01 -1.300e+01 -1.300e+01 -1.300e+01 -1.300e+01 -1.300e+01 -1.300e+01 -1.300e+01 -1.300e+01 -1.300e+01 -1.300e+01 -1.300e+01 -1.300e+01 -1.300e+01 -1.300e+01 -1.300e+01 -1.300e+01 -1.300e+01 -1.300e+01 -1.300e+01 -1.300e+01 -1.300e+01 -1.300e+01 -1.300e+01 -1.300e+01 -1.300e+01 -1.300e+01 -1.300e+01 -1.300e+01 -1.300e+01 -1.300e+01 -1.300e+01 -1.300e+01 -1.300e+01 -1.300e+01 -1.300e+01 -1.300e+01 -1.300e+01 -1.300e+01 -1.300e+01 -1.300e+01 -1.300e+01 -1.300e+01 -1.300e+01 -1.300e+01 -1.300e+01 -1.300e+01 -1.300e+01 -1.300e+01 -1.300e+01 -1.300e+01 -1.300e+01 -1.300e+01 -1.300e+01 -1.300e+01 -1.300e+01 -1.300e+01 -1.300e+01 -1.300e+01 -1.300e+01 -1.300e+01 -1.300e+01 -1.300e+01 -1.300e+01 -1.300e+01 -1.300e+01 -1.300e+01 -1.300e+01 -1.300e+01 -1.300e+01 -1.300e+01 -1.300e+01 -1.300e+01 -1.300e+01 -1.300e+01 -1.300e+01 -1.300e+01 -1.300e+01 -1.300e+01 -1.300e+01 -1.300e+01 -1.300e+01 -1.300e+01 -1.300e+01 -1.300e+01 -1.300e+01 -1.300e+01 -1.300e+01 -1.300e+01 -1.300e+01 -1.300e+01 -1.300e+01 -1.300e+01 -1.300e+01 -1.300e+01 -1.300e+01 -1.300e+01 -1.300e+01 -1.300e+01 -1.300e+01 -1.300e+01 -1.300e+01 -1.300e+01 -1.300e+01 -1.300e+01 -1.300e+01 -1.300e+01 -1.300e+01 -1.300e+01 -1.300e+01 -1.300e+01 -1.300e+01 -1.300e+01 -1.300e+01 -1.300e+01 -1.300e+01 -1.300e+01 -1.300e+01 -1.300e+01 -1.300e+01 -1.300e+01 -1.300e+01 -1.300e+01 -1.300e+01 -1.300e+01 -1.300e+01 -1.300e+01 -1.300e+01 -1.300e+01 -1.300e+01 -1.300e+01 -1.300e+01 -1.300e+01 -1.300e+01 -1.300e+01 -1.300e+01 -1.300e+01 -1.300e+01 -1.300e+01 -1.300e+01 -1.300e+01 -1.300e+01 -1.300e+01 -1.300e+01 -1.300e+01 -1.300e+01 -1.300e+01 -1.300e+01 -1.300e+01 -1.300e+01 -1.300e+01 -1.300e+01 -1.300e+01 -1.300e+01 -1.300e+01 -1.300e+01 -1.300e+01 -1.300e+01 -1.300e+01 -1.300e+01 -1.300e+01 -1.300e+01 -1.300e+01 -1.300e+01 -1.300e+01 -1.300e+01 -1.300e+01 -1.300e+01 -1.300e+01 -1.300e+01 -1.300e+01 -1.300e+01 -1.300e+01 -1.300e+01 -1.300e+01 -1.300e+01 -1.300e+01 -1.300e+01 -1.300e+01 -1.300e+01 -1.300e+01 -1.300e+01 -1.300e+01 -1.300e+01 -1.300e+01 -1.300e+01 -1.300e+01 -1.300e+01 -1.300e+01 -1.300e+01 -1.300e+01 -1.300e+01 -1.300e+01 -1.300e+01 -1.300e+01 -1.300e+01 -1.300e+01 -1.300e+01 -1.300e+01 -1.300e+01 -1.300e+01 -1.300e+01 -1.300e+01 -1.300e+01 -1.300e+01 -1.300e+01 -1.300e+01 -1.300e+01 -1.300e+01 -1.300e+01 -1.300e+01 -1.300e+01 -1.300e+01 -1.300e+01 -1.300e+01 -1.300e+01 -1.300e+01 -1.300e+01 -1.300e+01 -1.300e+01 -1.300e+01 -1.300e+01 -1.300e+01 -1.300e+01 -1.300e+01 -1.300e+01 -1.300e+01 -1.300e+01 -1.300e+01 -1.300e+01 -1.300e+01 -1.300e+01 -1.300e+01 -1.300e+01 -1.300e+01 -1.300e+01 -1.300e+01 -1.300e+01 -1.300e+01 -1.300e+01 -1.300e+01 -1.300e+01 -1.300e+01 -1.300e+01 -1.300e+01 -1.300e+01 -1.300e+01 -1.300e+01 -1.300e+01 -1.300e+01 -1.300e+01 -1.300e+01 -1.300e+01 -1.300e+01 -1.300e+01 -1.300e+01 -1.300e+01 -1.300e+01 -1.300e+01 -1.300e+01 -1.300e+01 -1.300e+01 -1.300e+01 -1.300e+01 -1.300e+01 -1.300e+01 -1.300e+01 -1.300e+01 -1.300e+01 -1.300e+01 -1.300e+01 -1.300e+01 -1.300e+01 -1.300e+01 -1.300e+01 -1.300e+01 -1.300e+01 -1.300e+01 -1.300e+01 -1.300e+01 -1.300e+01 -1.300e+01 -1.300e+01 -1.300e+01 -1.300e+01 -5.000e+00 -5.000e+00 -5.000e+00 -5.000e+00 -5.000e+00 -5.000e+00 -5.000e+00 -5.000e+00 -5.000e+00 -5.000e+00 -5.000e+00 -5.000e+00 -5.000e+00 -5.000e+00 -5.000e+00 -5.000e+00 -5.000e+00 -5.000e+00 -5.000e+00 -5.000e+00 -5.000e+00 -5.000e+00 -5.000e+00 -5.000e+00 -5.000e+00