<?xml version="1.0"?>
<VTKFile type="UnstructuredGrid" version="0.1" byte_order="LittleEndian">
   <UnstructuredGrid>
      <Piece NumberOfPoints="1440" NumberOfCells="96">
         <Points>
            <DataArray type="Float32" Name="Position" NumberOfComponents="3" format="ascii">
0.025	-5.013	-0.001
0.032	-4.997	0.010
0.027	-4.978	0.017
0.011	-4.964	0.018
-0.008	-4.959	0.012
-0.025	-4.967	0.002
-0.032	-4.983	-0.009
-0.027	-5.002	-0.017
-0.012	-5.017	-0.018
0.008	-5.021	-0.012
-0.247	-5.342	0.662
-0.241	-5.327	0.675
-0.246	-5.309	0.685
-0.262	-5.295	0.687
-0.282	-5.291	0.681
-0.298	-5.298	0.670
-0.305	-5.313	0.657
-0.299	-5.331	0.647
-0.283	-5.345	0.645
-0.263	-5.349	0.651
-0.517	-5.896	1.288
-0.511	-5.883	1.304
-0.518	-5.867	1.316
-0.535	-5.856	1.321
-0.555	-5.852	1.317
-0.571	-5.858	1.304
-0.576	-5.871	1.288
-0.569	-5.886	1.276
-0.553	-5.898	1.271
-0.533	-5.901	1.275
-0.696	-6.397	1.708
-0.694	-6.377	1.707
-0.704	-6.358	1.711
-0.721	-6.350	1.720
-0.739	-6.354	1.729
-0.752	-6.370	1.735
-0.754	-6.391	1.736
-0.744	-6.409	1.732
-0.727	-6.417	1.723
-0.709	-6.413	1.714
0.019	-4.982	-0.027
0.019	-4.966	-0.014
0.012	-4.959	0.005
0.001	-4.964	0.022
-0.011	-4.979	0.030
-0.019	-4.998	0.027
-0.019	-5.014	0.014
-0.012	-5.021	-0.005
-0.001	-5.016	-0.022
0.011	-5.001	-0.030
0.658	-5.291	0.323
0.661	-5.275	0.337
0.655	-5.269	0.356
0.642	-5.273	0.373
0.628	-5.286	0.381
0.617	-5.304	0.376
0.614	-5.319	0.362
0.620	-5.326	0.343
0.633	-5.322	0.327
0.647	-5.308	0.319
1.215	-5.886	0.668
1.221	-5.873	0.684
1.217	-5.867	0.703
1.203	-5.869	0.719
1.186	-5.880	0.725
1.171	-5.894	0.719
1.165	-5.906	0.704
1.170	-5.913	0.684
1.183	-5.910	0.668
1.201	-5.900	0.662
1.558	-6.431	0.908
1.565	-6.419	0.924
1.561	-6.413	0.944
1.547	-6.415	0.960
1.529	-6.424	0.966
1.513	-6.436	0.959
1.506	-6.448	0.943
1.511	-6.454	0.923
1.525	-6.452	0.908
1.543	-6.443	0.902
-0.009	-4.963	-0.018
0.010	-4.959	-0.011
0.026	-4.968	0.000
0.032	-4.985	0.011
0.025	-5.004	0.018
0.009	-5.017	0.018
-0.010	-5.021	0.011
-0.026	-5.012	-0.000
-0.032	-4.995	-0.011
-0.025	-4.976	-0.018
0.283	-5.295	-0.677
0.303	-5.294	-0.670
0.317	-5.303	-0.658
0.320	-5.320	-0.645
0.311	-5.336	-0.636
0.293	-5.348	-0.635
0.273	-5.349	-0.642
0.259	-5.340	-0.655
0.256	-5.323	-0.668
0.265	-5.306	-0.676
0.506	-5.897	-1.292
0.525	-5.900	-1.283
0.536	-5.909	-1.268
0.534	-5.923	-1.252
0.521	-5.936	-1.242
0.501	-5.942	-1.241
0.482	-5.940	-1.250
0.471	-5.930	-1.265
0.473	-5.916	-1.281
0.487	-5.904	-1.291
0.637	-6.449	-1.685
0.655	-6.452	-1.674
0.664	-6.461	-1.658
0.660	-6.474	-1.642
0.645	-6.485	-1.631
0.625	-6.489	-1.631
0.607	-6.486	-1.642
0.598	-6.477	-1.658
0.602	-6.464	-1.675
0.617	-6.453	-1.685
0.007	-5.017	0.020
-0.005	-5.004	0.031
-0.015	-4.986	0.030
-0.020	-4.969	0.018
-0.017	-4.960	-0.000
-0.008	-4.963	-0.019
0.004	-4.976	-0.030
0.015	-4.994	-0.030
0.020	-5.011	-0.018
0.017	-5.020	0.001
-0.636	-5.384	-0.240
-0.651	-5.371	-0.233
-0.663	-5.354	-0.237
-0.668	-5.341	-0.252
-0.664	-5.335	-0.272
-0.653	-5.340	-0.289
-0.639	-5.353	-0.297
-0.627	-5.369	-0.293
-0.621	-5.383	-0.278
-0.625	-5.389	-0.258
-1.173	-6.033	-0.473
-1.190	-6.023	-0.465
-1.206	-6.011	-0.470
-1.215	-6.000	-0.485
-1.214	-5.995	-0.506
-1.202	-5.998	-0.523
-1.185	-6.007	-0.531
-1.169	-6.020	-0.526
-1.160	-6.030	-0.510
-1.161	-6.035	-0.490
-1.483	-6.617	-0.648
-1.482	-6.622	-0.628
-1.491	-6.621	-0.609
-1.508	-6.614	-0.599
-1.526	-6.603	-0.602
-1.538	-6.594	-0.616
-1.540	-6.588	-0.636
-1.530	-6.589	-0.655
-1.513	-6.596	-0.665
-1.495	-6.607	-0.662
-0.148	-5.002	0.149
-0.032	-5.002	0.208
0.096	-5.001	0.187
0.188	-5.000	0.094
0.207	-4.999	-0.034
0.148	-4.998	-0.149
0.032	-4.998	-0.208
-0.096	-4.999	-0.187
-0.188	-5.000	-0.094
-0.207	-5.001	0.034
-0.150	-4.251	0.152
-0.035	-4.250	0.211
0.092	-4.250	0.190
0.182	-4.250	0.099
0.202	-4.250	-0.028
0.144	-4.250	-0.142
0.029	-4.250	-0.200
-0.098	-4.250	-0.180
-0.189	-4.250	-0.089
-0.208	-4.250	0.038
-0.149	-3.560	0.149
-0.035	-3.560	0.207
0.091	-3.560	0.187
0.182	-3.560	0.097
0.202	-3.560	-0.029
0.144	-3.560	-0.143
0.030	-3.560	-0.201
-0.096	-3.560	-0.182
-0.187	-3.560	-0.091
-0.207	-3.560	0.035
-0.147	-2.400	0.147
-0.034	-2.400	0.205
0.092	-2.400	0.185
0.182	-2.400	0.095
0.202	-2.400	-0.030
0.144	-2.400	-0.143
0.031	-2.400	-0.201
-0.095	-2.400	-0.181
-0.184	-2.400	-0.091
-0.204	-2.400	0.034
-0.148	-1.800	0.146
-0.035	-1.800	0.203
0.090	-1.800	0.183
0.180	-1.800	0.094
0.199	-1.800	-0.032
0.142	-1.800	-0.144
0.029	-1.800	-0.202
-0.096	-1.800	-0.182
-0.186	-1.800	-0.092
-0.205	-1.801	0.033
-0.148	-1.201	0.148
-0.036	-1.200	0.205
0.089	-1.200	0.185
0.178	-1.200	0.095
0.198	-1.200	-0.029
0.140	-1.200	-0.142
0.028	-1.200	-0.199
-0.097	-1.200	-0.179
-0.186	-1.200	-0.090
-0.206	-1.200	0.035
-0.149	-0.301	0.147
-0.037	-0.300	0.204
0.087	-0.300	0.184
0.176	-0.300	0.095
0.195	-0.299	-0.029
0.138	-0.300	-0.141
0.026	-0.300	-0.198
-0.098	-0.300	-0.178
-0.187	-0.300	-0.089
-0.207	-0.301	0.035
-0.153	0.560	0.148
-0.041	0.560	0.205
0.083	0.560	0.185
0.172	0.560	0.097
0.192	0.560	-0.027
0.135	0.560	-0.139
0.023	0.560	-0.196
-0.101	0.560	-0.176
-0.190	0.560	-0.088
-0.210	0.560	0.036
-0.151	1.441	0.146
-0.040	1.441	0.203
0.084	1.441	0.184
0.173	1.440	0.096
0.193	1.440	-0.028
0.136	1.439	-0.140
0.025	1.439	-0.197
-0.099	1.439	-0.178
-0.188	1.440	-0.089
-0.208	1.440	0.034
-0.150	2.317	0.139
-0.039	2.317	0.196
0.084	2.317	0.176
0.172	2.317	0.089
0.192	2.316	-0.034
0.136	2.316	-0.145
0.025	2.316	-0.202
-0.098	2.316	-0.183
-0.186	2.316	-0.095
-0.206	2.316	0.028
-0.149	2.569	0.139
-0.039	2.570	0.194
0.083	2.570	0.175
0.171	2.570	0.087
0.190	2.570	-0.035
0.134	2.570	-0.145
0.023	2.570	-0.201
-0.099	2.570	-0.181
-0.186	2.569	-0.094
-0.205	2.569	0.028
-0.012	-5.088	-0.006
-0.007	-5.085	0.001
-0.002	-5.088	0.008
0.000	-5.095	0.013
-0.000	-5.104	0.014
-0.004	-5.112	0.010
-0.009	-5.115	0.002
-0.013	-5.112	-0.005
-0.016	-5.104	-0.010
-0.015	-5.095	-0.011
0.713	-5.158	-0.469
0.720	-5.156	-0.463
0.726	-5.159	-0.456
0.728	-5.166	-0.451
0.725	-5.175	-0.449
0.720	-5.182	-0.451
0.713	-5.185	-0.457
0.708	-5.182	-0.464
0.706	-5.174	-0.469
0.708	-5.165	-0.471
0.929	-5.396	-0.814
0.937	-5.395	-0.810
0.943	-5.399	-0.804
0.945	-5.406	-0.798
0.941	-5.414	-0.795
0.934	-5.419	-0.796
0.926	-5.421	-0.800
0.920	-5.417	-0.806
0.918	-5.410	-0.812
0.922	-5.402	-0.815
-0.010	-5.193	-0.009
-0.008	-5.187	-0.002
-0.009	-5.186	0.007
-0.013	-5.190	0.015
-0.018	-5.198	0.018
-0.021	-5.206	0.015
-0.023	-5.211	0.008
-0.022	-5.212	-0.001
-0.018	-5.208	-0.008
-0.014	-5.201	-0.012
0.672	-5.571	0.119
0.676	-5.566	0.126
0.675	-5.565	0.135
0.670	-5.568	0.143
0.664	-5.574	0.146
0.658	-5.580	0.143
0.654	-5.585	0.136
0.655	-5.586	0.127
0.660	-5.583	0.119
0.666	-5.577	0.116
0.871	-5.965	0.166
0.875	-5.961	0.174
0.875	-5.961	0.183
0.869	-5.963	0.190
0.861	-5.966	0.193
0.854	-5.971	0.190
0.849	-5.974	0.182
0.850	-5.974	0.173
0.855	-5.972	0.166
0.863	-5.969	0.163
-0.140	-6.081	0.013
-0.132	-6.078	0.008
-0.123	-6.080	0.005
-0.117	-6.087	0.006
-0.115	-6.096	0.009
-0.119	-6.103	0.014
-0.126	-6.106	0.018
-0.135	-6.103	0.021
-0.141	-6.097	0.021
-0.143	-6.088	0.017
-0.447	-6.408	-0.702
-0.440	-6.406	-0.708
-0.431	-6.410	-0.710
-0.426	-6.417	-0.709
-0.424	-6.425	-0.704
-0.428	-6.430	-0.698
-0.435	-6.432	-0.693
-0.444	-6.428	-0.690
-0.450	-6.421	-0.691
-0.451	-6.413	-0.696
-0.518	-6.501	-0.809
-0.518	-6.497	-0.801
-0.518	-6.498	-0.792
-0.518	-6.505	-0.785
-0.518	-6.514	-0.784
-0.518	-6.522	-0.788
-0.518	-6.527	-0.796
-0.518	-6.525	-0.805
-0.518	-6.519	-0.812
-0.518	-6.509	-0.813
-0.137	-6.203	0.022
-0.136	-6.196	0.027
-0.138	-6.187	0.029
-0.141	-6.180	0.024
-0.145	-6.176	0.016
-0.147	-6.179	0.008
-0.148	-6.186	0.002
-0.146	-6.195	0.001
-0.143	-6.203	0.005
-0.139	-6.206	0.013
-0.900	-6.374	0.317
-0.899	-6.367	0.324
-0.902	-6.359	0.327
-0.907	-6.351	0.324
-0.912	-6.348	0.317
-0.916	-6.349	0.309
-0.917	-6.356	0.302
-0.914	-6.364	0.300
-0.909	-6.372	0.302
-0.904	-6.375	0.309
-0.950	-6.414	0.353
-0.949	-6.409	0.361
-0.952	-6.401	0.365
-0.958	-6.394	0.364
-0.965	-6.391	0.359
-0.970	-6.392	0.351
-0.971	-6.398	0.344
-0.967	-6.405	0.339
-0.961	-6.412	0.340
-0.954	-6.416	0.345
-0.156	-6.279	0.011
-0.160	-6.276	0.018
-0.162	-6.278	0.027
-0.162	-6.285	0.033
-0.159	-6.294	0.035
-0.154	-6.301	0.031
-0.150	-6.304	0.024
-0.148	-6.302	0.015
-0.148	-6.295	0.009
-0.151	-6.286	0.007
0.525	-5.981	0.289
0.521	-5.978	0.296
0.518	-5.980	0.305
0.519	-5.987	0.311
0.522	-5.995	0.313
0.526	-6.002	0.309
0.531	-6.005	0.302
0.533	-6.003	0.293
0.533	-5.996	0.287
0.530	-5.988	0.285
-0.164	-6.401	0.036
-0.168	-6.394	0.041
-0.171	-6.386	0.041
-0.173	-6.378	0.036
-0.173	-6.375	0.028
-0.172	-6.377	0.019
-0.168	-6.384	0.013
-0.165	-6.392	0.013
-0.163	-6.400	0.018
-0.163	-6.403	0.027
-0.937	-6.687	-0.045
-0.940	-6.681	-0.039
-0.943	-6.672	-0.039
-0.945	-6.665	-0.044
-0.945	-6.661	-0.052
-0.944	-6.664	-0.061
-0.941	-6.670	-0.067
-0.937	-6.679	-0.067
-0.935	-6.686	-0.062
-0.935	-6.689	-0.053
-0.174	-6.500	0.042
-0.174	-6.493	0.048
-0.175	-6.484	0.048
-0.178	-6.476	0.043
-0.180	-6.473	0.035
-0.182	-6.476	0.026
-0.183	-6.484	0.021
-0.181	-6.493	0.020
-0.179	-6.500	0.025
-0.176	-6.503	0.034
-0.856	-6.611	0.221
-0.852	-6.603	0.221
-0.853	-6.594	0.221
-0.860	-6.587	0.221
-0.869	-6.586	0.221
-0.877	-6.590	0.221
-0.882	-6.598	0.221
-0.880	-6.608	0.221
-0.874	-6.614	0.221
-0.864	-6.616	0.221
-0.177	-6.598	0.041
-0.174	-6.591	0.046
-0.176	-6.582	0.049
-0.183	-6.576	0.049
-0.191	-6.574	0.046
-0.198	-6.577	0.042
-0.202	-6.584	0.037
-0.200	-6.593	0.034
-0.193	-6.599	0.034
-0.184	-6.601	0.037
-0.469	-6.892	0.685
-0.465	-6.884	0.690
-0.467	-6.876	0.693
-0.474	-6.869	0.693
-0.483	-6.867	0.690
-0.490	-6.870	0.685
-0.493	-6.878	0.680
-0.491	-6.886	0.677
-0.484	-6.893	0.677
-0.476	-6.895	0.680
-0.187	-6.698	0.054
-0.182	-6.691	0.051
-0.182	-6.683	0.048
-0.188	-6.675	0.046
-0.197	-6.672	0.046
-0.205	-6.675	0.048
-0.211	-6.682	0.051
-0.210	-6.691	0.054
-0.205	-6.698	0.056
-0.196	-6.701	0.056
-0.104	-6.483	0.628
-0.099	-6.483	0.636
-0.101	-6.483	0.646
-0.107	-6.483	0.652
-0.117	-6.483	0.654
-0.125	-6.483	0.649
-0.129	-6.483	0.641
[...]
         <CellData>
           <DataArray type="Float32" Name="combinedRootClassID" NumberOfComponents="1" format="ascii">
 -5.000e+00 -5.000e+00 -5.000e+00 -5.000e+00 -5.000e+00 -5.000e+00 -5.000e+00 -5.000e+00 -5.000e+00 -5.000e+00 -5.000e+00 -5.000e+00 -2.000e+00 -2.000e+00 -2.000e+00 -2.000e+00 -2.000e+00 -2.000e+00 -2.000e+00 -2.000e+00 -2.000e+00 -2.000e+00 -7.000e+00 -7.000e+00 -7.000e+00 -7.000e+00 -7.000e+00 -7.000e+00 -7.000e+00 -7.000e+00 -7.000e+00 -7.000e+00 -7.000e+00 -7.000e+00 -7.000e+00 -7.000e+00 -7.000e+00 -7.000e+00 -7.000e+00 -7.000e+00 -7.000e+00 -7.000e+00 -7.000e+00 -7.000e+00 -7.000e+00 -7.000e+00 -7.000e+00 -7.000e+00 -7.000e+00 -7.000e+00 -7.000e+00 -7.000e+00 -7.000e+00 -7.000e+00 -7.000e+00 -7.000e+00 -7.000e+00 -7.000e+00 -7.000e+00 -7.000e+00 -7.000e+00 -7.000e+00 -7.000e+00 -7.000e+00 -7.000e+00 -7.000e+00 -7.000e+00 -7.000e+00 -7.000e+00 -7.000e+00 -7.000e+00 -7.000e+00 -7.000e+00 -7.000e+00 -7.000e+00 -9.000e+00 -4.000e+00 -4.000e+00 -4.000e+00 -4.000e+00 -4.000e+00 -4.000e+00 -4.000e+00 -4.000e+00 -4.000e+00 -4.000e+00 -4.000e+00 -4.000e+00 -4.000e+00 -4.000e+00 -4.000e+00 -4.000e+00 -4.000e+00 -4.000e+00 -4.000e+00 -4.000e+00
           </DataArray>
           <DataArray type="Float32" Name="nitrate/Cmin" NumberOfComponents="1" format="ascii">
 1.000e-03 1.000e-03 1.000e-03 1.000e-03 1.000e-03 1.000e-03 1.000e-03 1.000e-03 1.000e-03 1.000e-03 1.000e-03 1.000e-03 1.000e-03 1.000e-03 1.000e-03 1.000e-03 1.000e-03 1.000e-03 1.000e-03 1.000e-03 1.000e-03 1.000e-03 1.000e-03 1.000e-03 1.000e-03 1.000e-03 1.000e-03 1.000e-03 1.000e-03 1.000e-03 1.000e-03 1.000e-03 1.000e-03 1.000e-03 1.000e-03 1.000e-03 1.000e-03 1.000e-03 1.000e-03 1.000e-03 1.000e-03 1.000e-03 1.000e-03 1.000e-03 1.000e-03 1.000e-03 1.000e-03 1.000e-03 1.000e-03 1.000e-03 1.000e-03 1.000e-03 1.000e-03 1.000e-03 1.000e-03 1.000e-03 1.000e-03 1.000e-03 1.000e-03 1.000e-03 1.000e-03 1.000e-03 1.000e-03 1.000e-03 1.000e-03 1.000e-03 1.000e-03 1.000e-03 1.000e-03 1.000e-03 1.000e-03 1.000e-03 1.000e-03 1.000e-03 1.000e-03 1.000e-03 1.000e-03 1.000e-03 1.000e-03 1.000e-03 1.000e-03 1.000e-03 1.000e-03 1.000e-03 1.000e-03 1.000e-03 1.000e-03 1.000e-03 1.000e-03 1.000e-03 1.000e-03 1.000e-03 1.000e-03 1.000e-03 1.000e-03 1.000e-03
           </DataArray>
           <DataArray type="Float32" Name="nitrate/Imax" NumberOfComponents="1" format="ascii">
 1.900e+00 1.900e+00 1.900e+00 1.900e+00 1.900e+00 1.900e+00 1.900e+00 1.900e+00 1.900e+00 1.900e+00 1.900e+00 1.900e+00 1.900e+00 1.900e+00 1.900e+00 1.900e+00 1.900e+00 1.900e+00 1.900e+00 1.900e+00 1.900e+00 1.900e+00 1.900e+00 1.900e+00 1.900e+00 1.900e+00 1.900e+00 1.900e+00 1.900e+00 1.900e+00 1.900e+00 1.900e+00 1.900e+00 1.900e+00 1.900e+00 1.900e+00 1.900e+00 1.900e+00 1.900e+00 1.900e+00 1.900e+00 1.900e+00 1.900e+00 1.900e+00 1.900e+00 1.900e+00 1.900e+00 1.900e+00 1.900e+00 1.900e+00 1.900e+00 1.900e+00 1.900e+00 1.900e+00 1.900e+00 1.900e+00 1.900e+00 1.900e+00 1.900e+00 1.900e+00 1.900e+00 1.900e+00 1.900e+00 1.900e+00 1.900e+00 1.900e+00 1.900e+00 1.900e+00 1.900e+00 1.900e+00 1.900e+00 1.900e+00 1.900e+00 1.900e+00 1.900e+00 1.900e+00 1.900e+00 1.900e+00 1.900e+00 1.900e+00 1.900e+00 1.900e+00 1.900e+00 1.900e+00 1.900e+00 1.900e+00 1.900e+00 1.900e+00 1.900e+00 1.900e+00 1.900e+00 1.900e+00 1.900e+00 1.900e+00 1.900e+00 1.900e+00
           </DataArray>
           <DataArray type="Float32" Name="nitrate/Km" NumberOfComponents="1" format="ascii">
 1.610e-02 1.610e-02 1.610e-02 1.610e-02 1.610e-02 1.610e-02 1.610e-02 1.610e-02 1.610e-02 1.610e-02 1.610e-02 1.610e-02 1.610e-02 1.610e-02 1.610e-02 1.610e-02 1.610e-02 1.610e-02 1.610e-02 1.610e-02 1.610e-02 1.610e-02 1.610e-02 1.610e-02 1.610e-02 1.610e-02 1.610e-02 1.610e-02 1.610e-02 1.610e-02 1.610e-02 1.610e-02 1.610e-02 1.610e-02 1.610e-02 1.610e-02 1.610e-02 1.610e-02 1.610e-02 1.610e-02 1.610e-02 1.610e-02 1.610e-02 1.610e-02 1.610e-02 1.610e-02 1.610e-02 1.610e-02 1.610e-02 1.610e-02 1.610e-02 1.610e-02 1.610e-02 1.610e-02 1.610e-02 1.610e-02 1.610e-02 1.610e-02 1.610e-02 1.610e-02 1.610e-02 1.610e-02 1.610e-02 1.610e-02 1.610e-02 1.610e-02 1.610e-02 1.610e-02 1.610e-02 1.610e-02 1.610e-02 1.610e-02 1.610e-02 1.610e-02 1.610e-02 1.610e-02 1.610e-02 1.610e-02 1.610e-02 1.610e-02 1.610e-02 1.610e-02 1.610e-02 1.610e-02 1.610e-02 1.610e-02 1.610e-02 1.610e-02 1.610e-02 1.610e-02 1.610e-02 1.610e-02 1.610e-02 1.610e-02 1.610e-02 1.610e-02
           </DataArray>
           <DataArray type="Float32" Name="nitrate/minimalNutrientConcentration" NumberOfComponents="1" format="ascii">
 6.000e+02 6.000e+02 6.000e+02 6.000e+02 6.000e+02 6.000e+02 6.000e+02 6.000e+02 6.000e+02 6.000e+02 6.000e+02 6.000e+02 6.000e+02 6.000e+02 6.000e+02 6.000e+02 6.000e+02 6.000e+02 6.000e+02 6.000e+02 6.000e+02 6.000e+02 6.000e+02 6.000e+02 6.000e+02 6.000e+02 6.000e+02 6.000e+02 6.000e+02 6.000e+02 6.000e+02 6.000e+02 6.000e+02 6.000e+02 6.000e+02 6.000e+02 6.000e+02 6.000e+02 6.000e+02 6.000e+02 6.000e+02 6.000e+02 6.000e+02 6.000e+02 6.000e+02 6.000e+02 6.000e+02 6.000e+02 6.000e+02 6.000e+02 6.000e+02 6.000e+02 6.000e+02 6.000e+02 6.000e+02 6.000e+02 6.000e+02 6.000e+02 6.000e+02 6.000e+02 6.000e+02 6.000e+02 6.000e+02 6.000e+02 6.000e+02 6.000e+02 6.000e+02 6.000e+02 6.000e+02 6.000e+02 6.000e+02 6.000e+02 6.000e+02 6.000e+02 6.000e+02 6.000e+02 6.000e+02 6.000e+02 6.000e+02 6.000e+02 6.000e+02 6.000e+02 6.000e+02 6.000e+02 6.000e+02 6.000e+02 6.000e+02 6.000e+02 6.000e+02 6.000e+02 6.000e+02 6.000e+02 6.000e+02 6.000e+02 6.000e+02 6.000e+02
           </DataArray>
           <DataArray type="Float32" Name="nitrate/nutrientConcentrationAtTheRootSurface" NumberOfComponents="1" format="ascii">
 4.287e-01 4.849e-01 6.006e-01 4.287e-01 4.847e-01 5.681e-01 4.287e-01 4.444e-01 6.112e-01 4.287e-01 4.723e-01 5.471e-01 4.288e-01 4.125e-01 3.919e-01 3.271e-01 2.898e-01 2.612e-01 2.122e-01 0.000e+00 0.000e+00 0.000e+00 4.305e-01 4.957e-01 4.351e-01 5.009e-01 4.790e-01 5.677e-01 4.927e-01 5.269e-01 4.995e-01 5.077e-01 5.165e-01 5.249e-01 5.318e-01 5.369e-01 5.404e-01 5.464e-01 4.437e-01 5.082e-01 5.526e-01 5.617e-01 5.638e-01 5.662e-01 5.683e-01 5.694e-01 5.693e-01 5.682e-01 5.655e-01 5.633e-01 4.489e-01 5.112e-01 5.626e-01 5.633e-01 5.745e-01 5.763e-01 5.772e-01 5.763e-01 5.737e-01 5.775e-01 5.748e-01 5.734e-01 4.542e-01 4.851e-01 5.736e-01 4.589e-01 4.952e-01 4.625e-01 5.061e-01 4.650e-01 4.988e-01 4.663e-01 5.152e-01 4.739e-01 5.263e-01 5.633e-01 4.288e-01 4.627e-01 5.090e-01 5.529e-01 5.678e-01 5.771e-01 5.784e-01 5.942e-01 6.489e-01 6.591e-01 6.123e-01 6.314e-01 6.368e-01 6.882e-01 6.876e-01 6.474e-01 7.442e-01 8.166e-01 8.025e-01 9.105e-01
           </DataArray>
           <DataArray type="Float32" Name="nitrate/optimalNutrientConcentration" NumberOfComponents="1" format="ascii">
 1.200e+03 1.200e+03 1.200e+03 1.200e+03 1.200e+03 1.200e+03 1.200e+03 1.200e+03 1.200e+03 1.200e+03 1.200e+03 1.200e+03 1.200e+03 1.200e+03 1.200e+03 1.200e+03 1.200e+03 1.200e+03 1.200e+03 1.200e+03 1.200e+03 1.200e+03 1.200e+03 1.200e+03 1.200e+03 1.200e+03 1.200e+03 1.200e+03 1.200e+03 1.200e+03 1.200e+03 1.200e+03 1.200e+03 1.200e+03 1.200e+03 1.200e+03 1.200e+03 1.200e+03 1.200e+03 1.200e+03 1.200e+03 1.200e+03 1.200e+03 1.200e+03 1.200e+03 1.200e+03 1.200e+03 1.200e+03 1.200e+03 1.200e+03 1.200e+03 1.200e+03 1.200e+03 1.200e+03 1.200e+03 1.200e+03 1.200e+03 1.200e+03 1.200e+03 1.200e+03 1.200e+03 1.200e+03 1.200e+03 1.200e+03 1.200e+03 1.200e+03 1.200e+03 1.200e+03 1.200e+03 1.200e+03 1.200e+03 1.200e+03 1.200e+03 1.200e+03 1.200e+03 1.200e+03 1.200e+03 1.200e+03 1.200e+03 1.200e+03 1.200e+03 1.200e+03 1.200e+03 1.200e+03 1.200e+03 1.200e+03 1.200e+03 1.200e+03 1.200e+03 1.200e+03 1.200e+03 1.200e+03 1.200e+03 1.200e+03 1.200e+03 1.200e+03
           </DataArray>
           <DataArray type="Float32" Name="nitrate/rootSegmentMinimalNutrientContent" NumberOfComponents="1" format="ascii">
 1.632e-01 1.811e-01 1.406e-01 1.632e-01 1.811e-01 1.406e-01 1.632e-01 1.811e-01 1.406e-01 1.632e-01 1.811e-01 1.406e-01 5.806e+00 5.260e+00 8.735e+00 4.488e+00 4.462e+00 6.659e+00 6.322e+00 6.436e+00 6.333e+00 1.809e+00 3.529e-02 1.897e-02 3.316e-02 1.853e-02 3.426e-02 6.278e-03 3.524e-02 3.068e-03 3.384e-02 3.715e-02 2.951e-02 3.154e-02 2.700e-02 2.932e-02 2.331e-02 2.936e-02 3.397e-02 1.104e-02 2.280e-02 2.696e-02 2.448e-02 2.525e-02 2.305e-02 1.785e-02 2.016e-02 1.851e-02 1.686e-02 1.435e-02 3.575e-02 1.203e-02 1.537e-02 1.280e-02 1.150e-02 1.058e-02 8.158e-03 7.824e-03 5.760e-03 4.178e-03 3.019e-03 1.610e-03 3.562e-02 8.573e-03 5.782e-04 3.364e-02 1.219e-02 3.629e-02 1.368e-02 3.544e-02 9.504e-03 3.504e-02 5.957e-03 3.433e-02 6.056e-03 1.770e-02 3.227e-01 3.135e-01 3.050e-01 2.972e-01 2.901e-01 2.842e-01 2.794e-01 2.756e-01 2.723e-01 2.693e-01 2.666e-01 2.641e-01 2.619e-01 2.600e-01 2.583e-01 2.569e-01 2.557e-01 2.549e-01 2.542e-01 2.538e-01
           </DataArray>
           <DataArray type="Float32" Name="nitrate/rootSegmentNutrientUptake" NumberOfComponents="1" format="ascii">
 0.000e+00 1.258e-01 4.715e-02 0.000e+00 1.271e-01 4.576e-02 0.000e+00 1.187e-01 4.763e-02 0.000e+00 1.234e-01 4.516e-02 0.000e+00 9.336e-01 8.076e-01 5.995e-01 4.919e-01 3.836e-01 2.346e-01 0.000e+00 0.000e+00 0.000e+00 0.000e+00 2.891e-02 0.000e+00 2.826e-02 0.000e+00 4.108e-03 0.000e+00 1.335e-03 0.000e+00 0.000e+00 0.000e+00 0.000e+00 0.000e+00 0.000e+00 0.000e+00 0.000e+00 0.000e+00 1.202e-02 0.000e+00 0.000e+00 0.000e+00 0.000e+00 0.000e+00 0.000e+00 0.000e+00 0.000e+00 0.000e+00 0.000e+00 0.000e+00 1.310e-02 0.000e+00 0.000e+00 0.000e+00 0.000e+00 0.000e+00 0.000e+00 0.000e+00 0.000e+00 0.000e+00 0.000e+00 0.000e+00 7.457e-03 0.000e+00 0.000e+00 1.327e-02 0.000e+00 1.489e-02 0.000e+00 8.274e-03 0.000e+00 3.890e-03 0.000e+00 3.957e-03 0.000e+00 0.000e+00 1.105e+00 1.090e+00 1.064e+00 1.039e+00 1.016e+00 9.748e-01 9.352e-01 9.132e-01 8.487e-01 7.390e-01 6.769e-01 6.006e-01 5.550e-01 4.773e-01 3.739e-01 3.277e-01 2.545e-01 1.563e-01 6.952e-02
           </DataArray>
           <DataArray type="Float32" Name="nitrate/rootSegmentOptimalNutrientContent" NumberOfComponents="1" format="ascii">
 3.265e-01 3.621e-01 2.812e-01 3.265e-01 3.621e-01 2.812e-01 3.265e-01 3.621e-01 2.812e-01 3.265e-01 3.621e-01 2.812e-01 1.161e+01 1.052e+01 1.747e+01 8.976e+00 8.924e+00 1.332e+01 1.264e+01 1.287e+01 1.267e+01 3.619e+00 7.057e-02 3.794e-02 6.632e-02 3.707e-02 6.851e-02 1.256e-02 7.049e-02 6.135e-03 6.767e-02 7.430e-02 5.903e-02 6.308e-02 5.400e-02 5.864e-02 4.662e-02 5.872e-02 6.795e-02 2.207e-02 4.560e-02 5.393e-02 4.897e-02 5.051e-02 4.610e-02 3.570e-02 4.033e-02 3.702e-02 3.371e-02 2.870e-02 7.151e-02 2.406e-02 3.074e-02 2.560e-02 2.299e-02 2.116e-02 1.632e-02 1.565e-02 1.152e-02 8.356e-03 6.037e-03 3.221e-03 7.124e-02 1.715e-02 1.156e-03 6.728e-02 2.438e-02 7.257e-02 2.736e-02 7.088e-02 1.901e-02 7.008e-02 1.191e-02 6.867e-02 1.211e-02 3.540e-02 6.454e-01 6.270e-01 6.100e-01 5.944e-01 5.802e-01 5.683e-01 5.587e-01 5.512e-01 5.446e-01 5.386e-01 5.331e-01 5.282e-01 5.238e-01 5.199e-01 5.166e-01 5.138e-01 5.115e-01 5.097e-01 5.084e-01 5.077e-01
           </DataArray>
           <DataArray type="Float32" Name="parentRootClassID" NumberOfComponents="1" format="ascii">
 -2.000e+00 -2.000e+00 -2.000e+00 -2.000e+00 -2.000e+00 -2.000e+00 -2.000e+00 -2.000e+00 -2.000e+00 -2.000e+00 -2.000e+00 -2.000e+00 -3.000e+00 -3.000e+00 -3.000e+00 -3.000e+00 -3.000e+00 -3.000e+00 -3.000e+00 -3.000e+00 -3.000e+00 -3.000e+00 -4.000e+00 -4.000e+00 -4.000e+00 -4.000e+00 -4.000e+00 -4.000e+00 -4.000e+00 -4.000e+00 -4.000e+00 -4.000e+00 -4.000e+00 -4.000e+00 -4.000e+00 -4.000e+00 -4.000e+00 -4.000e+00 -4.000e+00 -4.000e+00 -4.000e+00 -4.000e+00 -4.000e+00 -4.000e+00 -4.000e+00 -4.000e+00 -4.000e+00 -4.000e+00 -4.000e+00 -4.000e+00 -4.000e+00 -4.000e+00 -4.000e+00 -4.000e+00 -4.000e+00 -4.000e+00 -4.000e+00 -4.000e+00 -4.000e+00 -4.000e+00 -4.000e+00 -4.000e+00 -4.000e+00 -4.000e+00 -4.000e+00 -4.000e+00 -4.000e+00 -4.000e+00 -4.000e+00 -4.000e+00 -4.000e+00 -4.000e+00 -4.000e+00 -4.000e+00 -4.000e+00 -4.000e+00 -3.000e+00 -3.000e+00 -3.000e+00 -3.000e+00 -3.000e+00 -3.000e+00 -3.000e+00 -3.000e+00 -3.000e+00 -3.000e+00 -3.000e+00 -3.000e+00 -3.000e+00 -3.000e+00 -3.000e+00 -3.000e+00 -3.000e+00 -3.000e+00 -3.000e+00 -3.000e+00
           </DataArray>
           <DataArray type="Float32" Name="plantID" NumberOfComponents="1" format="ascii">
 7.000e+00 7.000e+00 7.000e+00 7.000e+00 7.000e+00 7.000e+00 7.000e+00 7.000e+00 7.000e+00 7.000e+00 7.000e+00 7.000e+00 7.000e+00 7.000e+00 7.000e+00 7.000e+00 7.000e+00 7.000e+00 7.000e+00 7.000e+00 7.000e+00 7.000e+00 7.000e+00 7.000e+00 7.000e+00 7.000e+00 7.000e+00 7.000e+00 7.000e+00 7.000e+00 7.000e+00 7.000e+00 7.000e+00 7.000e+00 7.000e+00 7.000e+00 7.000e+00 7.000e+00 7.000e+00 7.000e+00 7.000e+00 7.000e+00 7.000e+00 7.000e+00 7.000e+00 7.000e+00 7.000e+00 7.000e+00 7.000e+00 7.000e+00 7.000e+00 7.000e+00 7.000e+00 7.000e+00 7.000e+00 7.000e+00 7.000e+00 7.000e+00 7.000e+00 7.000e+00 7.000e+00 7.000e+00 7.000e+00 7.000e+00 7.000e+00 7.000e+00 7.000e+00 7.000e+00 7.000e+00 7.000e+00 7.000e+00 7.000e+00 7.000e+00 7.000e+00 7.000e+00 7.000e+00 7.000e+00 7.000e+00 7.000e+00 7.000e+00 7.000e+00 7.000e+00 7.000e+00 7.000e+00 7.000e+00 7.000e+00 7.000e+00 7.000e+00 7.000e+00 7.000e+00 7.000e+00 7.000e+00 7.000e+00 7.000e+00 7.000e+00 7.000e+00
           </DataArray>
           <DataArray type="Float32" Name="plantTypeID" NumberOfComponents="1" format="ascii">
 0.000e+00 0.000e+00 0.000e+00 0.000e+00 0.000e+00 0.000e+00 0.000e+00 0.000e+00 0.000e+00 0.000e+00 0.000e+00 0.000e+00 0.000e+00 0.000e+00 0.000e+00 0.000e+00 0.000e+00 0.000e+00 0.000e+00 0.000e+00 0.000e+00 0.000e+00 0.000e+00 0.000e+00 0.000e+00 0.000e+00 0.000e+00 0.000e+00 0.000e+00 0.000e+00 0.000e+00 0.000e+00 0.000e+00 0.000e+00 0.000e+00 0.000e+00 0.000e+00 0.000e+00 0.000e+00 0.000e+00 0.000e+00 0.000e+00 0.000e+00 0.000e+00 0.000e+00 0.000e+00 0.000e+00 0.000e+00 0.000e+00 0.000e+00 0.000e+00 0.000e+00 0.000e+00 0.000e+00 0.000e+00 0.000e+00 0.000e+00 0.000e+00 0.000e+00 0.000e+00 0.000e+00 0.000e+00 0.000e+00 0.000e+00 0.000e+00 0.000e+00 0.000e+00 0.000e+00 0.000e+00 0.000e+00 0.000e+00 0.000e+00 0.000e+00 0.000e+00 0.000e+00 0.000e+00 0.000e+00 0.000e+00 0.000e+00 0.000e+00 0.000e+00 0.000e+00 0.000e+00 0.000e+00 0.000e+00 0.000e+00 0.000e+00 0.000e+00 0.000e+00 0.000e+00 0.000e+00 0.000e+00 0.000e+00 0.000e+00 0.000e+00 0.000e+00
           </DataArray>
           <DataArray type="Float32" Name="rootCircumference" NumberOfComponents="1" format="ascii">
 2.136e-01 2.136e-01 2.136e-01 2.136e-01 2.136e-01 2.136e-01 2.136e-01 2.136e-01 2.136e-01 2.136e-01 2.136e-01 2.136e-01 1.320e+00 1.307e+00 1.300e+00 1.291e+00 1.287e+00 1.284e+00 1.280e+00 1.276e+00 1.273e+00 1.265e+00 9.431e-02 9.425e-02 9.430e-02 9.425e-02 9.428e-02 9.425e-02 9.428e-02 9.425e-02 9.428e-02 9.427e-02 9.427e-02 9.427e-02 9.427e-02 9.427e-02 9.427e-02 9.426e-02 9.430e-02 9.425e-02 9.426e-02 9.426e-02 9.426e-02 9.426e-02 9.426e-02 9.426e-02 9.426e-02 9.425e-02 9.425e-02 9.425e-02 9.430e-02 9.425e-02 9.425e-02 9.425e-02 9.425e-02 9.425e-02 9.425e-02 9.425e-02 9.425e-02 9.425e-02 9.425e-02 9.425e-02 9.429e-02 9.425e-02 9.425e-02 9.429e-02 9.425e-02 9.429e-02 9.425e-02 9.429e-02 9.425e-02 9.428e-02 9.425e-02 9.428e-02 9.425e-02 9.426e-02 3.189e-01 3.143e-01 3.100e-01 3.060e-01 3.023e-01 2.992e-01 2.967e-01 2.947e-01 2.929e-01 2.913e-01 2.898e-01 2.885e-01 2.873e-01 2.862e-01 2.853e-01 2.845e-01 2.839e-01 2.834e-01 2.830e-01 2.828e-01
           </DataArray>
           <DataArray type="Float32" Name="rootClassID" NumberOfComponents="1" format="ascii">
 9.900e+01 9.900e+01 9.900e+01 9.900e+01 9.900e+01 9.900e+01 9.900e+01 9.900e+01 9.900e+01 9.900e+01 9.900e+01 9.900e+01 -2.000e+00 -2.000e+00 -2.000e+00 -2.000e+00 -2.000e+00 -2.000e+00 -2.000e+00 -2.000e+00 -2.000e+00 -2.000e+00 9.700e+01 9.700e+01 9.700e+01 9.700e+01 9.700e+01 9.700e+01 9.700e+01 9.700e+01 9.700e+01 9.700e+01 9.700e+01 9.700e+01 9.700e+01 9.700e+01 9.700e+01 9.700e+01 9.700e+01 9.700e+01 9.700e+01 9.700e+01 9.700e+01 9.700e+01 9.700e+01 9.700e+01 9.700e+01 9.700e+01 9.700e+01 9.700e+01 9.700e+01 9.700e+01 9.700e+01 9.700e+01 9.700e+01 9.700e+01 9.700e+01 9.700e+01 9.700e+01 9.700e+01 9.700e+01 9.700e+01 9.700e+01 9.700e+01 9.700e+01 9.700e+01 9.700e+01 9.700e+01 9.700e+01 9.700e+01 9.700e+01 9.700e+01 9.700e+01 9.700e+01 9.700e+01 9.700e+01 -4.000e+00 -4.000e+00 -4.000e+00 -4.000e+00 -4.000e+00 -4.000e+00 -4.000e+00 -4.000e+00 -4.000e+00 -4.000e+00 -4.000e+00 -4.000e+00 -4.000e+00 -4.000e+00 -4.000e+00 -4.000e+00 -4.000e+00 -4.000e+00 -4.000e+00 -4.000e+00
           </DataArray>
           <DataArray type="Float32" Name="rootDiameter" NumberOfComponents="1" format="ascii">
 6.800e-02 6.800e-02 6.800e-02 6.800e-02 6.800e-02 6.800e-02 6.800e-02 6.800e-02 6.800e-02 6.800e-02 6.800e-02 6.800e-02 4.201e-01 4.160e-01 4.137e-01 4.109e-01 4.097e-01 4.087e-01 4.074e-01 4.063e-01 4.051e-01 4.027e-01 3.002e-02 3.000e-02 3.002e-02 3.000e-02 3.001e-02 3.000e-02 3.001e-02 3.000e-02 3.001e-02 3.001e-02 3.001e-02 3.001e-02 3.001e-02 3.001e-02 3.001e-02 3.001e-02 3.002e-02 3.000e-02 3.000e-02 3.000e-02 3.000e-02 3.000e-02 3.000e-02 3.000e-02 3.000e-02 3.000e-02 3.000e-02 3.000e-02 3.002e-02 3.000e-02 3.000e-02 3.000e-02 3.000e-02 3.000e-02 3.000e-02 3.000e-02 3.000e-02 3.000e-02 3.000e-02 3.000e-02 3.001e-02 3.000e-02 3.000e-02 3.001e-02 3.000e-02 3.001e-02 3.000e-02 3.001e-02 3.000e-02 3.001e-02 3.000e-02 3.001e-02 3.000e-02 3.000e-02 1.015e-01 1.000e-01 9.868e-02 9.741e-02 9.624e-02 9.525e-02 9.444e-02 9.380e-02 9.324e-02 9.272e-02 9.225e-02 9.182e-02 9.144e-02 9.110e-02 9.081e-02 9.056e-02 9.036e-02 9.020e-02 9.009e-02 9.002e-02
           </DataArray>
           <DataArray type="Float32" Name="rootHairDensity" NumberOfComponents="1" format="ascii">
 2.000e+03 2.000e+03 2.000e+03 2.000e+03 2.000e+03 2.000e+03 2.000e+03 2.000e+03 2.000e+03 2.000e+03 2.000e+03 2.000e+03 0.000e+00 0.000e+00 0.000e+00 0.000e+00 0.000e+00 0.000e+00 0.000e+00 0.000e+00 0.000e+00 0.000e+00 2.000e+03 2.000e+03 2.000e+03 2.000e+03 2.000e+03 2.000e+03 2.000e+03 2.000e+03 2.000e+03 2.000e+03 2.000e+03 2.000e+03 2.000e+03 2.000e+03 2.000e+03 2.000e+03 2.000e+03 2.000e+03 2.000e+03 2.000e+03 2.000e+03 2.000e+03 2.000e+03 2.000e+03 2.000e+03 2.000e+03 2.000e+03 2.000e+03 2.000e+03 2.000e+03 2.000e+03 2.000e+03 2.000e+03 2.000e+03 2.000e+03 2.000e+03 2.000e+03 2.000e+03 2.000e+03 2.000e+03 2.000e+03 2.000e+03 2.000e+03 2.000e+03 2.000e+03 2.000e+03 2.000e+03 2.000e+03 2.000e+03 2.000e+03 2.000e+03 2.000e+03 2.000e+03 3.000e+03 2.000e+03 2.000e+03 2.000e+03 2.000e+03 2.000e+03 2.000e+03 2.000e+03 2.000e+03 2.000e+03 2.000e+03 2.000e+03 2.000e+03 2.000e+03 2.000e+03 2.000e+03 2.000e+03 2.000e+03 2.000e+03 2.000e+03 2.000e+03
           </DataArray>
           <DataArray type="Float32" Name="rootHairDiameter" NumberOfComponents="1" format="ascii">
 5.000e-04 5.000e-04 5.000e-04 5.000e-04 5.000e-04 5.000e-04 5.000e-04 5.000e-04 5.000e-04 5.000e-04 5.000e-04 5.000e-04 5.000e-04 5.000e-04 5.000e-04 5.000e-04 5.000e-04 5.000e-04 5.000e-04 5.000e-04 5.000e-04 5.000e-04 5.000e-04 5.000e-04 5.000e-04 5.000e-04 5.000e-04 5.000e-04 5.000e-04 5.000e-04 5.000e-04 5.000e-04 5.000e-04 5.000e-04 5.000e-04 5.000e-04 5.000e-04 5.000e-04 5.000e-04 5.000e-04 5.000e-04 5.000e-04 5.000e-04 5.000e-04 5.000e-04 5.000e-04 5.000e-04 5.000e-04 5.000e-04 5.000e-04 5.000e-04 5.000e-04 5.000e-04 5.000e-04 5.000e-04 5.000e-04 5.000e-04 5.000e-04 5.000e-04 5.000e-04 5.000e-04 5.000e-04 5.000e-04 5.000e-04 5.000e-04 5.000e-04 5.000e-04 5.000e-04 5.000e-04 5.000e-04 5.000e-04 5.000e-04 5.000e-04 5.000e-04 5.000e-04 5.000e-04 5.000e-04 5.000e-04 5.000e-04 5.000e-04 5.000e-04 5.000e-04 5.000e-04 5.000e-04 5.000e-04 5.000e-04 5.000e-04 5.000e-04 5.000e-04 5.000e-04 5.000e-04 5.000e-04 5.000e-04 5.000e-04 5.000e-04 5.000e-04
           </DataArray>
           <DataArray type="Float32" Name="rootHairLength" NumberOfComponents="1" format="ascii">