<?xml version="1.0"?>
<VTKFile type="UnstructuredGrid" version="0.1" byte_order="LittleEndian">
   <UnstructuredGrid>
      <Piece NumberOfPoints="260" NumberOfCells="24">
         <Points>
            <DataArray type="Float32" Name="Position" NumberOfComponents="3" format="ascii">
-0.143	-5.002	0.145
-0.031	-5.001	0.201
0.093	-5.001	0.181
0.182	-5.000	0.091
0.201	-4.999	-0.033
0.143	-4.998	-0.145
0.031	-4.999	-0.201
-0.093	-4.999	-0.181
-0.182	-5.000	-0.091
-0.201	-5.001	0.033
-0.146	-4.251	0.149
-0.034	-4.250	0.205
0.089	-4.250	0.186
0.178	-4.250	0.097
0.197	-4.250	-0.027
0.140	-4.250	-0.138
0.028	-4.250	-0.195
-0.095	-4.250	-0.175
-0.184	-4.250	-0.087
-0.203	-4.250	0.037
-0.146	-3.560	0.146
-0.035	-3.560	0.203
0.089	-3.560	0.183
0.177	-3.560	0.095
0.197	-3.560	-0.028
0.141	-3.560	-0.140
0.029	-3.560	-0.197
-0.094	-3.560	-0.177
-0.183	-3.560	-0.089
-0.202	-3.560	0.034
-0.144	-2.400	0.145
-0.033	-2.400	0.201
0.090	-2.400	0.182
0.178	-2.400	0.094
0.198	-2.400	-0.029
0.141	-2.400	-0.140
0.030	-2.400	-0.197
-0.093	-2.400	-0.178
-0.181	-2.400	-0.089
-0.201	-2.400	0.034
-0.145	-1.800	0.143
-0.034	-1.800	0.200
0.089	-1.800	0.180
0.177	-1.800	0.092
0.196	-1.800	-0.031
0.139	-1.800	-0.142
0.028	-1.800	-0.198
-0.095	-1.800	-0.179
-0.183	-1.800	-0.090
-0.202	-1.801	0.033
-0.146	-1.201	0.145
-0.035	-1.200	0.202
0.088	-1.200	0.182
0.176	-1.200	0.094
0.195	-1.200	-0.029
0.138	-1.200	-0.140
0.027	-1.200	-0.196
-0.096	-1.200	-0.176
-0.183	-1.200	-0.088
-0.203	-1.200	0.035
-0.147	-0.301	0.145
-0.037	-0.300	0.201
0.086	-0.300	0.182
0.174	-0.300	0.094
0.193	-0.299	-0.029
0.136	-0.300	-0.139
0.025	-0.300	-0.196
-0.097	-0.300	-0.176
-0.185	-0.300	-0.088
-0.204	-0.301	0.035
-0.151	0.560	0.147
-0.040	0.560	0.203
0.082	0.560	0.183
0.170	0.560	0.096
0.189	0.560	-0.027
0.133	0.560	-0.137
0.022	0.560	-0.194
-0.100	0.560	-0.174
-0.188	0.560	-0.086
-0.207	0.560	0.036
-0.150	1.441	0.144
-0.039	1.441	0.201
0.083	1.441	0.182
0.171	1.440	0.095
0.191	1.440	-0.028
0.135	1.439	-0.138
0.024	1.439	-0.195
-0.098	1.439	-0.176
-0.186	1.440	-0.088
-0.206	1.440	0.034
-0.149	2.317	0.138
-0.039	2.317	0.194
0.083	2.317	0.175
0.171	2.317	0.088
0.191	2.316	-0.034
0.135	2.316	-0.144
0.025	2.315	-0.201
-0.097	2.315	-0.182
-0.185	2.316	-0.094
-0.205	2.316	0.028
-0.007	2.611	-0.145
-0.007	2.667	-0.035
-0.007	2.648	0.087
-0.007	2.561	0.175
-0.007	2.439	0.194
-0.007	2.328	0.138
-0.007	2.272	0.028
-0.007	2.292	-0.094
-0.007	2.379	-0.182
-0.007	2.501	-0.201
0.035	-5.004	-0.031
0.047	-5.005	-0.004
0.040	-5.004	0.024
0.018	-5.002	0.043
-0.011	-4.998	0.046
-0.035	-4.996	0.031
-0.047	-4.995	0.004
-0.040	-4.996	-0.024
-0.018	-4.998	-0.043
0.011	-5.002	-0.046
-0.046	-5.707	-0.021
-0.035	-5.708	0.005
-0.041	-5.706	0.033
-0.063	-5.703	0.052
-0.092	-5.700	0.054
-0.116	-5.697	0.039
-0.127	-5.696	0.013
-0.121	-5.698	-0.015
-0.099	-5.701	-0.034
-0.070	-5.704	-0.036
-0.135	-6.409	-0.002
-0.124	-6.408	0.025
-0.131	-6.405	0.053
-0.152	-6.402	0.071
-0.181	-6.399	0.073
-0.205	-6.398	0.058
-0.216	-6.398	0.031
-0.209	-6.401	0.003
-0.187	-6.404	-0.015
-0.159	-6.407	-0.017
-0.185	-7.110	0.075
-0.175	-7.107	0.102
-0.182	-7.103	0.129
-0.204	-7.099	0.147
-0.232	-7.097	0.148
-0.256	-7.097	0.133
-0.267	-7.100	0.107
-0.260	-7.105	0.079
-0.238	-7.109	0.062
-0.209	-7.111	0.060
-0.229	-7.805	0.203
-0.219	-7.801	0.229
-0.226	-7.795	0.256
-0.248	-7.791	0.273
-0.276	-7.789	0.275
-0.300	-7.791	0.260
-0.311	-7.795	0.233
-0.303	-7.800	0.206
-0.282	-7.805	0.189
-0.253	-7.806	0.187
-0.263	-8.500	0.328
-0.252	-8.496	0.354
-0.260	-8.490	0.381
-0.282	-8.486	0.398
-0.310	-8.484	0.399
-0.333	-8.485	0.384
-0.344	-8.490	0.358
-0.336	-8.496	0.331
-0.314	-8.500	0.314
-0.286	-8.502	0.313
-0.309	-9.191	0.476
-0.299	-9.185	0.502
-0.306	-9.178	0.528
-0.328	-9.173	0.545
-0.356	-9.172	0.546
-0.380	-9.174	0.530
-0.390	-9.180	0.505
-0.382	-9.187	0.478
-0.360	-9.192	0.462
-0.332	-9.194	0.461
-0.325	-9.871	0.666
-0.315	-9.863	0.691
-0.322	-9.856	0.717
-0.344	-9.851	0.734
-0.372	-9.851	0.736
-0.395	-9.856	0.721
-0.405	-9.863	0.696
-0.398	-9.871	0.670
-0.376	-9.875	0.653
-0.348	-9.875	0.651
-0.288	-10.544	0.875
-0.278	-10.535	0.900
-0.285	-10.527	0.926
-0.307	-10.522	0.943
-0.335	-10.524	0.945
-0.358	-10.530	0.931
-0.368	-10.539	0.907
-0.361	-10.547	0.881
-0.339	-10.552	0.864
-0.311	-10.551	0.862
-0.236	-11.204	1.123
-0.226	-11.194	1.148
-0.233	-11.186	1.173
-0.255	-11.182	1.191
-0.282	-11.184	1.193
-0.306	-11.190	1.180
-0.316	-11.200	1.156
-0.309	-11.208	1.130
-0.288	-11.212	1.112
-0.260	-11.210	1.110
-0.162	-11.872	1.338
-0.152	-11.864	1.362
-0.158	-11.856	1.388
-0.180	-11.853	1.406
-0.207	-11.854	1.408
-0.231	-11.860	1.395
-0.241	-11.868	1.370
-0.235	-11.876	1.344
-0.213	-11.880	1.327
-0.186	-11.878	1.324
-0.129	-12.550	1.540
-0.119	-12.542	1.565
-0.126	-12.535	1.591
-0.147	-12.530	1.608
-0.175	-12.530	1.610
-0.198	-12.535	1.595
-0.208	-12.543	1.571
-0.201	-12.551	1.545
-0.180	-12.556	1.528
-0.152	-12.555	1.526
-0.123	-13.226	1.754
-0.113	-13.217	1.779
-0.121	-13.209	1.805
-0.143	-13.203	1.821
-0.170	-13.203	1.822
-0.194	-13.208	1.808
-0.203	-13.217	1.783
-0.196	-13.225	1.758
-0.174	-13.231	1.741
-0.146	-13.231	1.740
-0.111	-13.891	1.996
-0.102	-13.881	2.021
-0.109	-13.872	2.046
-0.131	-13.866	2.062
-0.159	-13.866	2.063
-0.182	-13.872	2.048
-0.192	-13.881	2.024
-0.184	-13.891	1.999
-0.162	-13.896	1.983
-0.134	-13.896	1.982
-0.108	-14.111	2.081
-0.099	-14.101	2.106
-0.107	-14.092	2.131
-0.128	-14.086	2.147
-0.156	-14.086	2.148
-0.179	-14.092	2.133
-0.189	-14.101	2.109
-0.181	-14.111	2.084
-0.159	-14.117	2.068
-0.131	-14.117	2.067
		    </DataArray>
         </Points>
         <Cells>
            <DataArray type="Int32" Name="connectivity" NumberOfComponents="1" format="ascii">
 0 10 1 11 2 12 3 13 4 14 5 15 6 16 7 17 8 18 9 19 0 10
 10 20 11 21 12 22 13 23 14 24 15 25 16 26 17 27 18 28 19 29 10 20
 20 30 21 31 22 32 23 33 24 34 25 35 26 36 27 37 28 38 29 39 20 30
 30 40 31 41 32 42 33 43 34 44 35 45 36 46 37 47 38 48 39 49 30 40
 40 50 41 51 42 52 43 53 44 54 45 55 46 56 47 57 48 58 49 59 40 50
 50 60 51 61 52 62 53 63 54 64 55 65 56 66 57 67 58 68 59 69 50 60
 60 70 61 71 62 72 63 73 64 74 65 75 66 76 67 77 68 78 69 79 60 70
 70 80 71 81 72 82 73 83 74 84 75 85 76 86 77 87 78 88 79 89 70 80
 80 90 81 91 82 92 83 93 84 94 85 95 86 96 87 97 88 98 89 99 80 90
 90 100 91 101 92 102 93 103 94 104 95 105 96 106 97 107 98 108 99 109 90 100
 110 120 111 121 112 122 113 123 114 124 115 125 116 126 117 127 118 128 119 129 110 120
 120 130 121 131 122 132 123 133 124 134 125 135 126 136 127 137 128 138 129 139 120 130
 130 140 131 141 132 142 133 143 134 144 135 145 136 146 137 147 138 148 139 149 130 140
 140 150 141 151 142 152 143 153 144 154 145 155 146 156 147 157 148 158 149 159 140 150
 150 160 151 161 152 162 153 163 154 164 155 165 156 166 157 167 158 168 159 169 150 160
 160 170 161 171 162 172 163 173 164 174 165 175 166 176 167 177 168 178 169 179 160 170
 170 180 171 181 172 182 173 183 174 184 175 185 176 186 177 187 178 188 179 189 170 180
 180 190 181 191 182 192 183 193 184 194 185 195 186 196 187 197 188 198 189 199 180 190
 190 200 191 201 192 202 193 203 194 204 195 205 196 206 197 207 198 208 199 209 190 200
 200 210 201 211 202 212 203 213 204 214 205 215 206 216 207 217 208 218 209 219 200 210
 210 220 211 221 212 222 213 223 214 224 215 225 216 226 217 227 218 228 219 229 210 220
 220 230 221 231 222 232 223 233 224 234 225 235 226 236 227 237 228 238 229 239 220 230
 230 240 231 241 232 242 233 243 234 244 235 245 236 246 237 247 238 248 239 249 230 240
 240 250 241 251 242 252 243 253 244 254 245 255 246 256 247 257 248 258 249 259 240 250

            </DataArray>
            <DataArray type="Int32" Name="offsets" NumberOfComponents="1" format="ascii">
 22 44 66 88 110 132 154 176 198 220 242 264 286 308 330 352 374 396 418 440 462 484 506 528
            </DataArray>
            <DataArray type="UInt8"  Name="types" NumberOfComponents="1" format="ascii">
6 6 6 6 6 6 6 6 6 6 6 6 6 6 6 6 6 6 6 6 6 6 6 6
            </DataArray>
         </Cells>
         <CellData>
           <DataArray type="Float32" Name="combinedRootClassID" NumberOfComponents="1" format="ascii">
 -2.000e+00 -2.000e+00 -2.000e+00 -2.000e+00 -2.000e+00 -2.000e+00 -2.000e+00 -2.000e+00 -2.000e+00 -2.000e+00 -4.000e+00 -4.000e+00 -4.000e+00 -4.000e+00 -4.000e+00 -4.000e+00 -4.000e+00 -4.000e+00 -4.000e+00 -4.000e+00 -4.000e+00 -4.000e+00 -4.000e+00 -4.000e+00
           </DataArray>
           <DataArray type="Float32" Name="nitrate/Cmin" NumberOfComponents="1" format="ascii">
 1.000e-03 1.000e-03 1.000e-03 1.000e-03 1.000e-03 1.000e-03 1.000e-03 1.000e-03 1.000e-03 1.000e-03 1.000e-03 1.000e-03 1.000e-03 1.000e-03 1.000e-03 1.000e-03 1.000e-03 1.000e-03 1.000e-03 1.000e-03 1.000e-03 1.000e-03 1.000e-03 1.000e-03
           </DataArray>
           <DataArray type="Float32" Name="nitrate/Imax" NumberOfComponents="1" format="ascii">
 1.900e+00 1.900e+00 1.900e+00 1.900e+00 1.900e+00 1.900e+00 1.900e+00 1.900e+00 1.900e+00 1.900e+00 1.900e+00 1.900e+00 1.900e+00 1.900e+00 1.900e+00 1.900e+00 1.900e+00 1.900e+00 1.900e+00 1.900e+00 1.900e+00 1.900e+00 1.900e+00 1.900e+00
           </DataArray>
           <DataArray type="Float32" Name="nitrate/Km" NumberOfComponents="1" format="ascii">
 1.610e-02 1.610e-02 1.610e-02 1.610e-02 1.610e-02 1.610e-02 1.610e-02 1.610e-02 1.610e-02 1.610e-02 1.610e-02 1.610e-02 1.610e-02 1.610e-02 1.610e-02 1.610e-02 1.610e-02 1.610e-02 1.610e-02 1.610e-02 1.610e-02 1.610e-02 1.610e-02 1.610e-02
           </DataArray>
           <DataArray type="Float32" Name="nitrate/minimalNutrientConcentration" NumberOfComponents="1" format="ascii">
 6.000e+02 6.000e+02 6.000e+02 6.000e+02 6.000e+02 6.000e+02 6.000e+02 6.000e+02 6.000e+02 6.000e+02 6.000e+02 6.000e+02 6.000e+02 6.000e+02 6.000e+02 6.000e+02 6.000e+02 6.000e+02 6.000e+02 6.000e+02 6.000e+02 6.000e+02 6.000e+02 6.000e+02
           </DataArray>
           <DataArray type="Float32" Name="nitrate/nutrientConcentrationAtTheRootSurface" NumberOfComponents="1" format="ascii">
 3.916e-01 3.345e-01 2.883e-01 2.087e-01 1.738e-01 1.356e-01 8.970e-02 0.000e+00 0.000e+00 0.000e+00 3.916e-01 4.350e-01 4.743e-01 5.086e-01 5.416e-01 5.758e-01 6.036e-01 6.371e-01 6.832e-01 7.112e-01 7.159e-01 7.586e-01 7.968e-01 8.753e-01
           </DataArray>
           <DataArray type="Float32" Name="nitrate/optimalNutrientConcentration" NumberOfComponents="1" format="ascii">
 1.200e+03 1.200e+03 1.200e+03 1.200e+03 1.200e+03 1.200e+03 1.200e+03 1.200e+03 1.200e+03 1.200e+03 1.200e+03 1.200e+03 1.200e+03 1.200e+03 1.200e+03 1.200e+03 1.200e+03 1.200e+03 1.200e+03 1.200e+03 1.200e+03 1.200e+03 1.200e+03 1.200e+03
           </DataArray>
           <DataArray type="Float32" Name="nitrate/rootSegmentMinimalNutrientContent" NumberOfComponents="1" format="ascii">
 5.503e+00 5.022e+00 8.407e+00 4.326e+00 4.316e+00 6.459e+00 6.154e+00 6.281e+00 6.238e+00 1.089e+00 2.768e-01 2.734e-01 2.703e-01 2.674e-01 2.649e-01 2.626e-01 2.606e-01 2.588e-01 2.573e-01 2.561e-01 2.551e-01 2.544e-01 2.539e-01 8.457e-02
           </DataArray>
           <DataArray type="Float32" Name="nitrate/rootSegmentNutrientUptake" NumberOfComponents="1" format="ascii">
 0.000e+00 6.534e-01 5.582e-01 4.064e-01 3.261e-01 2.377e-01 1.068e-01 0.000e+00 0.000e+00 0.000e+00 0.000e+00 7.611e-01 7.280e-01 6.909e-01 6.547e-01 6.144e-01 5.602e-01 5.002e-01 4.381e-01 3.607e-01 2.725e-01 1.896e-01 9.932e-02 1.243e-02
           </DataArray>
           <DataArray type="Float32" Name="nitrate/rootSegmentOptimalNutrientContent" NumberOfComponents="1" format="ascii">
 1.101e+01 1.004e+01 1.681e+01 8.651e+00 8.631e+00 1.292e+01 1.231e+01 1.256e+01 1.248e+01 2.178e+00 5.535e-01 5.467e-01 5.405e-01 5.349e-01 5.298e-01 5.252e-01 5.212e-01 5.176e-01 5.147e-01 5.122e-01 5.102e-01 5.088e-01 5.079e-01 1.691e-01
           </DataArray>
           <DataArray type="Float32" Name="parentRootClassID" NumberOfComponents="1" format="ascii">
 -3.000e+00 -3.000e+00 -3.000e+00 -3.000e+00 -3.000e+00 -3.000e+00 -3.000e+00 -3.000e+00 -3.000e+00 -3.000e+00 -3.000e+00 -3.000e+00 -3.000e+00 -3.000e+00 -3.000e+00 -3.000e+00 -3.000e+00 -3.000e+00 -3.000e+00 -3.000e+00 -3.000e+00 -3.000e+00 -3.000e+00 -3.000e+00
           </DataArray>
           <DataArray type="Float32" Name="plantID" NumberOfComponents="1" format="ascii">
 5.000e+00 5.000e+00 5.000e+00 5.000e+00 5.000e+00 5.000e+00 5.000e+00 5.000e+00 5.000e+00 5.000e+00 5.000e+00 5.000e+00 5.000e+00 5.000e+00 5.000e+00 5.000e+00 5.000e+00 5.000e+00 5.000e+00 5.000e+00 5.000e+00 5.000e+00 5.000e+00 5.000e+00
           </DataArray>
           <DataArray type="Float32" Name="plantTypeID" NumberOfComponents="1" format="ascii">
 0.000e+00 0.000e+00 0.000e+00 0.000e+00 0.000e+00 0.000e+00 0.000e+00 0.000e+00 0.000e+00 0.000e+00 0.000e+00 0.000e+00 0.000e+00 0.000e+00 0.000e+00 0.000e+00 0.000e+00 0.000e+00 0.000e+00 0.000e+00 0.000e+00 0.000e+00 0.000e+00 0.000e+00
           </DataArray>
           <DataArray type="Float32" Name="rootCircumference" NumberOfComponents="1" format="ascii">
 1.279e+00 1.273e+00 1.271e+00 1.267e+00 1.266e+00 1.265e+00 1.263e+00 1.261e+00 1.259e+00 1.257e+00 2.953e-01 2.935e-01 2.918e-01 2.903e-01 2.889e-01 2.877e-01 2.865e-01 2.856e-01 2.848e-01 2.841e-01 2.835e-01 2.831e-01 2.829e-01 2.828e-01
           </DataArray>
           <DataArray type="Float32" Name="rootClassID" NumberOfComponents="1" format="ascii">
 -2.000e+00 -2.000e+00 -2.000e+00 -2.000e+00 -2.000e+00 -2.000e+00 -2.000e+00 -2.000e+00 -2.000e+00 -2.000e+00 -4.000e+00 -4.000e+00 -4.000e+00 -4.000e+00 -4.000e+00 -4.000e+00 -4.000e+00 -4.000e+00 -4.000e+00 -4.000e+00 -4.000e+00 -4.000e+00 -4.000e+00 -4.000e+00
           </DataArray>
           <DataArray type="Float32" Name="rootDiameter" NumberOfComponents="1" format="ascii">
 4.070e-01 4.054e-01 4.045e-01 4.034e-01 4.030e-01 4.025e-01 4.019e-01 4.014e-01 4.009e-01 4.001e-01 9.400e-02 9.342e-02 9.289e-02 9.240e-02 9.196e-02 9.156e-02 9.121e-02 9.090e-02 9.064e-02 9.042e-02 9.025e-02 9.012e-02 9.004e-02 9.000e-02
           </DataArray>
           <DataArray type="Float32" Name="rootHairDensity" NumberOfComponents="1" format="ascii">
 0.000e+00 0.000e+00 0.000e+00 0.000e+00 0.000e+00 0.000e+00 0.000e+00 0.000e+00 0.000e+00 0.000e+00 2.000e+03 2.000e+03 2.000e+03 2.000e+03 2.000e+03 2.000e+03 2.000e+03 2.000e+03 2.000e+03 2.000e+03 2.000e+03 2.000e+03 2.000e+03 2.000e+03
           </DataArray>
           <DataArray type="Float32" Name="rootHairDiameter" NumberOfComponents="1" format="ascii">
 5.000e-04 5.000e-04 5.000e-04 5.000e-04 5.000e-04 5.000e-04 5.000e-04 5.000e-04 5.000e-04 5.000e-04 5.000e-04 5.000e-04 5.000e-04 5.000e-04 5.000e-04 5.000e-04 5.000e-04 5.000e-04 5.000e-04 5.000e-04 5.000e-04 5.000e-04 5.000e-04 5.000e-04
           </DataArray>
           <DataArray type="Float32" Name="rootHairLength" NumberOfComponents="1" format="ascii">
 3.000e-02 3.000e-02 3.000e-02 3.000e-02 3.000e-02 3.000e-02 3.000e-02 2.400e-02 1.200e-02 0.000e+00 3.000e-02 3.000e-02 3.000e-02 3.000e-02 3.000e-02 3.000e-02 3.000e-02 2.700e-02 1.800e-02 9.000e-03 0.000e+00 0.000e+00 0.000e+00 0.000e+00
           </DataArray>
           <DataArray type="Float32" Name="rootHairSurfaceArea" NumberOfComponents="1" format="ascii">
 0.000e+00 0.000e+00 0.000e+00 0.000e+00 0.000e+00 0.000e+00 0.000e+00 0.000e+00 0.000e+00 0.000e+00 9.425e-02 9.425e-02 9.425e-02 9.425e-02 9.425e-02 9.425e-02 9.425e-02 8.482e-02 5.655e-02 2.827e-02 0.000e+00 0.000e+00 0.000e+00 0.000e+00
           </DataArray>
           <DataArray type="Float32" Name="rootLength2Base" NumberOfComponents="1" format="ascii">
 0.000e+00 7.500e-01 1.440e+00 2.600e+00 3.200e+00 3.800e+00 4.700e+00 5.560e+00 6.440e+00 7.316e+00 0.000e+00 7.071e-01 1.414e+00 2.121e+00 2.828e+00 3.535e+00 4.243e+00 4.950e+00 5.657e+00 6.364e+00 7.071e+00 7.778e+00 8.485e+00 9.192e+00
           </DataArray>
           <DataArray type="Float32" Name="rootPotentialSecondaryGrowth" NumberOfComponents="1" format="ascii">
 4.070e-01 4.054e-01 4.045e-01 4.034e-01 4.030e-01 4.025e-01 4.019e-01 4.014e-01 4.009e-01 4.001e-01 9.400e-02 9.342e-02 9.289e-02 9.240e-02 9.196e-02 9.156e-02 9.121e-02 9.090e-02 9.064e-02 9.042e-02 9.025e-02 9.012e-02 9.004e-02 9.000e-02
           </DataArray>
           <DataArray type="Float32" Name="rootSegmentAge" NumberOfComponents="1" format="ascii">
 4.000e+00 3.500e+00 3.200e+00 2.800e+00 2.600e+00 2.400e+00 2.100e+00 1.800e+00 1.400e+00 5.000e-01 4.000e+00 3.700e+00 3.400e+00 3.100e+00 2.800e+00 2.500e+00 2.200e+00 1.900e+00 1.600e+00 1.300e+00 1.000e+00 7.000e-01 4.000e-01 1.000e-01
           </DataArray>
           <DataArray type="Float32" Name="rootSegmentCarbonCostOfExudates" NumberOfComponents="1" format="ascii">
 0.000e+00 0.000e+00 0.000e+00 0.000e+00 0.000e+00 0.000e+00 0.000e+00 0.000e+00 0.000e+00 0.000e+00 4.469e-05 4.143e-05 3.814e-05 3.455e-05 3.106e-05 2.752e-05 2.422e-05 2.087e-05 1.770e-05 1.425e-05 1.081e-05 7.083e-06 3.355e-06 2.239e-07
           </DataArray>
           <DataArray type="Float32" Name="rootSegmentDryWeight" NumberOfComponents="1" format="ascii">
 9.172e-03 8.370e-03 1.401e-02 7.210e-03 7.193e-03 1.077e-02 1.026e-02 1.047e-02 1.040e-02 1.815e-03 4.613e-04 4.556e-04 4.504e-04 4.457e-04 4.415e-04 4.377e-04 4.343e-04 4.314e-04 4.289e-04 4.268e-04 4.252e-04 4.240e-04 4.232e-04 1.410e-04
           </DataArray>
           <DataArray type="Float32" Name="rootSegmentLength" NumberOfComponents="1" format="ascii">
 7.500e-01 6.900e-01 1.160e+00 6.000e-01 6.000e-01 9.000e-01 8.600e-01 8.800e-01 8.764e-01 1.536e-01 7.071e-01 7.071e-01 7.071e-01 7.071e-01 7.071e-01 7.071e-01 7.071e-01 7.071e-01 7.071e-01 7.071e-01 7.071e-01 7.071e-01 7.071e-01 2.357e-01
           </DataArray>
           <DataArray type="Float32" Name="rootSegmentLengthDuration" NumberOfComponents="1" format="ascii">
 2.795e+00 2.311e+00 3.475e+00 1.620e+00 1.500e+00 2.030e+00 1.685e+00 1.419e+00 9.335e-01 4.388e-02 2.726e+00 2.514e+00 2.302e+00 2.090e+00 1.878e+00 1.666e+00 1.453e+00 1.241e+00 1.029e+00 8.171e-01 6.050e-01 3.928e-01 1.807e-01 2.357e-02
           </DataArray>
           <DataArray type="Float32" Name="rootSegmentRespiration" NumberOfComponents="1" format="ascii">
 3.669e-04 3.348e-04 5.604e-04 2.884e-04 2.877e-04 4.306e-04 4.103e-04 4.711e-04 5.718e-04 1.407e-04 1.845e-05 1.822e-05 1.802e-05 1.783e-05 1.766e-05 1.751e-05 1.737e-05 1.833e-05 2.144e-05 2.454e-05 2.764e-05 3.074e-05 3.386e-05 1.233e-05
           </DataArray>
           <DataArray type="Float32" Name="rootSegmentSecondaryPotentialCarbonSinkForGrowth" NumberOfComponents="1" format="ascii">
 1.239e-04 9.071e-05 1.223e-04 5.111e-05 4.379e-05 5.323e-05 3.820e-05 2.641e-05 1.039e-05 1.618e-07 1.603e-05 1.359e-05 1.136e-05 9.334e-06 7.515e-06 5.899e-06 4.482e-06 3.262e-06 2.239e-06 1.410e-06 7.729e-07 3.280e-07 7.402e-08 1.175e-09
           </DataArray>
           <DataArray type="Float32" Name="rootSegmentSurfaceArea" NumberOfComponents="1" format="ascii">
 9.590e-01 8.787e-01 1.474e+00 7.604e-01 7.596e-01 1.138e+00 1.086e+00 1.110e+00 1.104e+00 1.930e-01 2.088e-01 2.075e-01 2.063e-01 2.053e-01 2.043e-01 2.034e-01 2.026e-01 2.019e-01 2.013e-01 2.009e-01 2.005e-01 2.002e-01 2.000e-01 6.664e-02
           </DataArray>
           <DataArray type="Float32" Name="rootSegmentVolume" NumberOfComponents="1" format="ascii">
 9.758e-02 8.905e-02 1.491e-01 7.670e-02 7.652e-02 1.145e-01 1.091e-01 1.114e-01 1.106e-01 1.931e-02 4.907e-03 4.847e-03 4.792e-03 4.742e-03 4.696e-03 4.656e-03 4.620e-03 4.589e-03 4.563e-03 4.541e-03 4.523e-03 4.511e-03 4.502e-03 1.500e-03
           </DataArray>
           <DataArray type="Float32" Name="rootSegmentWaterUptake" NumberOfComponents="1" format="ascii">
 2.837e-02 2.610e-02 4.388e-02 2.269e-02 2.269e-02 3.404e-02 3.251e-02 0.000e+00 0.000e+00 0.000e+00 2.675e-02 2.675e-02 2.675e-02 2.675e-02 2.675e-02 2.675e-02 2.675e-02 2.661e-02 2.592e-02 2.400e-02 2.064e-02 1.533e-02 7.959e-03 5.638e-04
           </DataArray>
           <DataArray type="Float32" Name="spatialRootDensity" NumberOfComponents="1" format="ascii">
 3.376e-01 1.688e-01 0.000e+00 0.000e+00 0.000e+00 0.000e+00 0.000e+00 0.000e+00 0.000e+00 0.000e+00 3.438e-01 1.790e-01 0.000e+00 0.000e+00 0.000e+00 0.000e+00 0.000e+00 0.000e+00 0.000e+00 0.000e+00 0.000e+00 0.000e+00 0.000e+00 0.000e+00
           </DataArray>
           <DataArray type="Float32" Name="volumetricWaterContentAtTheRootSurface" NumberOfComponents="1" format="ascii">
 1.939e-01 1.939e-01 1.939e-01 1.939e-01 1.939e-01 1.939e-01 1.939e-01 0.000e+00 0.000e+00 0.000e+00 1.939e-01 1.939e-01 1.939e-01 1.939e-01 1.939e-01 1.939e-01 1.939e-01 1.939e-01 1.939e-01 1.939e-01 1.938e-01 1.938e-01 1.938e-01 1.938e-01
           </DataArray>
         </CellData>
      </Piece>
   </UnstructuredGrid>
</VTKFile>
