<?xml version="1.0"?>
<VTKFile type="UnstructuredGrid" version="0.1" byte_order="LittleEndian">
   <UnstructuredGrid>
      <Piece NumberOfPoints="13580" NumberOfCells="953">
         <Points>
            <DataArray type="Float32" Name="Position" NumberOfComponents="3" format="ascii">
-0.053	-5.036	0.146
-0.054	-5.028	0.150
-0.055	-5.019	0.149
-0.056	-5.012	0.142
-0.055	-5.011	0.133
-0.055	-5.015	0.125
-0.053	-5.023	0.121
-0.052	-5.032	0.122
-0.052	-5.039	0.128
-0.052	-5.040	0.137
-0.880	-5.128	0.103
-0.881	-5.120	0.107
-0.882	-5.111	0.106
-0.882	-5.104	0.100
-0.882	-5.102	0.091
-0.881	-5.106	0.082
-0.880	-5.114	0.078
-0.879	-5.123	0.079
-0.879	-5.130	0.085
-0.879	-5.132	0.095
-1.620	-5.190	0.068
-1.621	-5.182	0.073
-1.622	-5.173	0.071
-1.622	-5.166	0.065
-1.622	-5.165	0.056
-1.621	-5.169	0.047
-1.620	-5.177	0.043
-1.619	-5.186	0.044
-1.619	-5.192	0.051
-1.619	-5.194	0.060
-0.097	-5.074	0.253
-0.098	-5.068	0.260
-0.101	-5.065	0.268
-0.105	-5.069	0.276
-0.109	-5.076	0.279
-0.111	-5.085	0.278
-0.110	-5.092	0.272
-0.107	-5.094	0.263
-0.103	-5.091	0.256
-0.099	-5.083	0.252
0.644	-5.293	0.569
0.644	-5.286	0.576
0.641	-5.284	0.584
0.637	-5.288	0.592
0.633	-5.295	0.595
0.631	-5.304	0.594
0.631	-5.311	0.587
0.633	-5.313	0.578
0.637	-5.309	0.571
0.641	-5.301	0.567
1.223	-5.542	0.761
1.227	-5.534	0.761
1.226	-5.525	0.761
1.219	-5.518	0.761
1.210	-5.517	0.761
1.202	-5.521	0.761
1.198	-5.529	0.761
1.199	-5.538	0.761
1.206	-5.545	0.761
1.215	-5.546	0.761
-0.533	-5.867	1.285
-0.535	-5.860	1.289
-0.538	-5.851	1.289
-0.539	-5.844	1.283
-0.538	-5.841	1.274
-0.536	-5.845	1.265
-0.534	-5.852	1.260
-0.531	-5.861	1.261
-0.530	-5.868	1.267
-0.531	-5.870	1.276
-1.372	-6.082	1.173
-1.374	-6.075	1.178
-1.376	-6.066	1.177
-1.377	-6.059	1.172
-1.377	-6.056	1.163
-1.376	-6.059	1.154
-1.375	-6.067	1.149
-1.372	-6.076	1.149
-1.371	-6.083	1.155
-1.371	-6.085	1.164
-1.963	-6.209	1.211
-1.965	-6.201	1.217
-1.966	-6.192	1.217
-1.968	-6.185	1.211
-1.970	-6.182	1.203
-1.970	-6.185	1.194
-1.968	-6.193	1.188
-1.966	-6.202	1.188
-1.964	-6.209	1.194
-1.963	-6.212	1.202
-0.570	-5.973	1.376
-0.566	-5.965	1.379
-0.566	-5.956	1.380
-0.572	-5.949	1.377
-0.579	-5.946	1.373
-0.587	-5.949	1.369
-0.591	-5.957	1.366
-0.591	-5.966	1.366
-0.586	-5.973	1.368
-0.578	-5.976	1.372
-0.984	-6.041	2.151
-0.980	-6.034	2.154
-0.980	-6.025	2.155
-0.986	-6.017	2.154
-0.994	-6.015	2.150
-1.001	-6.018	2.145
-1.005	-6.025	2.141
-1.004	-6.035	2.140
-0.999	-6.042	2.142
-0.991	-6.044	2.146
-1.062	-6.077	2.289
-1.058	-6.070	2.293
-1.059	-6.061	2.294
-1.065	-6.054	2.293
-1.073	-6.051	2.289
-1.080	-6.054	2.284
-1.084	-6.062	2.280
-1.083	-6.071	2.279
-1.077	-6.078	2.280
-1.069	-6.081	2.284
-0.610	-6.080	1.468
-0.606	-6.072	1.470
-0.608	-6.063	1.471
-0.614	-6.056	1.471
-0.623	-6.054	1.469
-0.631	-6.058	1.467
-0.635	-6.066	1.465
-0.634	-6.075	1.465
-0.628	-6.082	1.465
-0.618	-6.084	1.466
-0.761	-6.192	2.317
-0.757	-6.184	2.319
-0.759	-6.175	2.320
-0.765	-6.168	2.321
-0.774	-6.167	2.320
-0.783	-6.171	2.318
-0.786	-6.179	2.316
-0.785	-6.188	2.315
-0.778	-6.195	2.314
-0.769	-6.196	2.315
-0.773	-6.227	2.478
-0.769	-6.219	2.481
-0.771	-6.210	2.482
-0.778	-6.204	2.483
-0.788	-6.203	2.483
-0.795	-6.207	2.481
-0.799	-6.216	2.479
-0.797	-6.225	2.477
-0.790	-6.231	2.476
-0.781	-6.232	2.477
-0.651	-6.192	1.564
-0.647	-6.184	1.568
-0.648	-6.175	1.568
-0.653	-6.168	1.566
-0.661	-6.165	1.562
-0.668	-6.168	1.557
-0.672	-6.176	1.554
-0.672	-6.185	1.553
-0.667	-6.192	1.555
-0.659	-6.195	1.559
-1.088	-6.278	2.307
-1.084	-6.270	2.311
-1.085	-6.261	2.312
-1.091	-6.254	2.310
-1.099	-6.251	2.306
-1.106	-6.254	2.301
-1.110	-6.262	2.297
-1.108	-6.271	2.295
-1.103	-6.278	2.297
-1.095	-6.281	2.301
-1.365	-6.434	2.727
-1.361	-6.427	2.732
-1.363	-6.418	2.734
-1.369	-6.411	2.733
-1.377	-6.409	2.729
-1.384	-6.411	2.723
-1.387	-6.419	2.719
-1.385	-6.427	2.716
-1.379	-6.435	2.718
-1.372	-6.437	2.722
-0.693	-6.285	1.639
-0.686	-6.285	1.645
-0.682	-6.288	1.653
-0.684	-6.294	1.660
-0.691	-6.299	1.664
-0.699	-6.303	1.663
-0.706	-6.303	1.657
-0.710	-6.300	1.649
-0.708	-6.294	1.642
-0.701	-6.289	1.638
-0.351	-6.961	1.243
-0.345	-6.960	1.249
-0.342	-6.962	1.258
-0.345	-6.967	1.265
-0.351	-6.973	1.269
-0.359	-6.977	1.267
-0.366	-6.978	1.260
-0.368	-6.976	1.252
-0.366	-6.971	1.244
-0.359	-6.965	1.241
-0.159	-7.210	1.165
-0.159	-7.206	1.174
-0.159	-7.207	1.183
-0.159	-7.214	1.189
-0.159	-7.223	1.191
-0.159	-7.231	1.187
-0.159	-7.235	1.178
-0.159	-7.234	1.169
-0.159	-7.227	1.163
-0.159	-7.218	1.161
-0.721	-6.420	1.742
-0.717	-6.412	1.744
-0.718	-6.403	1.744
-0.724	-6.396	1.744
-0.733	-6.394	1.742
-0.741	-6.398	1.740
-0.745	-6.406	1.739
-0.744	-6.415	1.738
-0.738	-6.422	1.739
-0.729	-6.424	1.741
-0.875	-6.476	2.567
-0.871	-6.468	2.568
-0.872	-6.459	2.568
-0.879	-6.452	2.568
-0.888	-6.451	2.568
-0.896	-6.455	2.567
-0.900	-6.463	2.567
-0.899	-6.472	2.566
-0.892	-6.479	2.566
-0.883	-6.480	2.566
-0.839	-6.492	2.898
-0.835	-6.484	2.898
-0.837	-6.475	2.899
-0.844	-6.469	2.900
-0.854	-6.468	2.901
-0.861	-6.473	2.901
-0.865	-6.482	2.901
-0.863	-6.491	2.901
-0.856	-6.497	2.900
-0.847	-6.497	2.899
-0.764	-6.533	1.844
-0.766	-6.525	1.847
-0.766	-6.516	1.845
-0.766	-6.510	1.838
-0.764	-6.509	1.829
-0.762	-6.513	1.821
-0.760	-6.522	1.818
-0.760	-6.531	1.820
-0.760	-6.537	1.827
-0.762	-6.538	1.836
-1.621	-6.630	1.673
-1.623	-6.621	1.676
-1.623	-6.612	1.674
-1.622	-6.606	1.667
-1.620	-6.606	1.658
-1.618	-6.611	1.650
-1.617	-6.619	1.647
-1.617	-6.628	1.649
-1.618	-6.634	1.656
-1.620	-6.635	1.665
-1.735	-6.633	1.649
-1.736	-6.624	1.653
-1.735	-6.615	1.650
-1.734	-6.609	1.643
-1.732	-6.609	1.634
-1.731	-6.614	1.626
-1.730	-6.623	1.623
-1.730	-6.631	1.626
-1.731	-6.637	1.633
-1.733	-6.638	1.642
-0.789	-6.631	1.911
-0.791	-6.625	1.918
-0.793	-6.625	1.926
-0.796	-6.629	1.934
-0.798	-6.638	1.937
-0.798	-6.647	1.935
-0.797	-6.653	1.928
-0.794	-6.654	1.919
-0.791	-6.649	1.912
-0.789	-6.640	1.908
0.048	-6.722	2.162
0.047	-6.716	2.169
0.045	-6.716	2.178
0.043	-6.721	2.186
0.041	-6.730	2.188
0.040	-6.739	2.186
0.041	-6.744	2.178
0.043	-6.745	2.169
0.045	-6.739	2.162
0.047	-6.731	2.159
0.233	-6.749	2.186
0.233	-6.743	2.193
0.232	-6.744	2.203
0.230	-6.749	2.210
0.228	-6.758	2.212
0.227	-6.767	2.209
0.228	-6.772	2.202
0.229	-6.772	2.192
0.231	-6.766	2.185
0.232	-6.757	2.183
-0.825	-6.765	2.024
-0.827	-6.757	2.027
-0.827	-6.748	2.024
-0.826	-6.742	2.017
-0.823	-6.742	2.008
-0.821	-6.747	2.001
-0.819	-6.755	1.998
-0.819	-6.764	2.000
-0.820	-6.770	2.008
-0.823	-6.770	2.017
-1.636	-6.852	1.792
-1.637	-6.844	1.795
-1.638	-6.835	1.793
-1.636	-6.829	1.786
-1.634	-6.829	1.777
-1.632	-6.834	1.769
-1.630	-6.842	1.766
-1.630	-6.851	1.769
-1.631	-6.857	1.776
-1.633	-6.857	1.785
-1.896	-6.880	1.728
-1.897	-6.871	1.731
-1.898	-6.862	1.729
-1.896	-6.856	1.722
-1.894	-6.856	1.713
-1.892	-6.860	1.705
-1.890	-6.869	1.702
-1.890	-6.878	1.704
-1.891	-6.884	1.712
-1.893	-6.884	1.721
-0.843	-6.886	2.104
-0.838	-6.878	2.106
-0.839	-6.869	2.107
-0.844	-6.861	2.105
-0.852	-6.859	2.101
-0.860	-6.862	2.097
-0.865	-6.870	2.095
-0.864	-6.879	2.095
-0.859	-6.886	2.096
-0.851	-6.889	2.100
-1.184	-6.934	2.870
-1.180	-6.927	2.873
-1.181	-6.917	2.874
-1.187	-6.910	2.873
-1.195	-6.908	2.869
-1.203	-6.911	2.865
-1.207	-6.919	2.862
-1.206	-6.928	2.861
-1.200	-6.935	2.862
-1.192	-6.937	2.866
-1.286	-6.971	3.044
-1.278	-6.971	3.048
-1.269	-6.971	3.046
-1.262	-6.971	3.040
-1.261	-6.971	3.031
-1.265	-6.971	3.022
-1.273	-6.971	3.018
-1.282	-6.971	3.020
-1.289	-6.971	3.026
-1.290	-6.971	3.035
-0.146	-5.140	0.379
-0.147	-5.133	0.385
-0.151	-5.130	0.392
-0.156	-5.132	0.400
-0.160	-5.139	0.404
-0.162	-5.148	0.404
-0.161	-5.156	0.398
-0.157	-5.159	0.391
-0.152	-5.157	0.383
-0.148	-5.149	0.379
0.568	-5.302	0.801
0.567	-5.295	0.807
0.564	-5.292	0.816
0.560	-5.296	0.823
0.556	-5.303	0.827
0.554	-5.312	0.826
0.555	-5.319	0.819
0.558	-5.322	0.811
0.562	-5.318	0.804
0.566	-5.311	0.800
0.847	-5.389	0.892
0.847	-5.383	0.899
0.844	-5.381	0.907
0.841	-5.385	0.915
0.837	-5.393	0.918
0.835	-5.402	0.916
0.835	-5.408	0.910
0.837	-5.410	0.901
0.841	-5.406	0.893
0.845	-5.398	0.890
-0.872	-6.988	2.177
-0.873	-6.981	2.181
-0.877	-6.977	2.189
-0.882	-6.979	2.196
-0.887	-6.986	2.201
-0.889	-6.995	2.200
-0.887	-7.003	2.196
-0.883	-7.007	2.188
-0.878	-7.004	2.181
-0.873	-6.998	2.176
-0.228	-7.136	2.607
-0.224	-7.127	2.607
-0.225	-7.118	2.607
-0.232	-7.112	2.607
-0.241	-7.110	2.607
-0.249	-7.114	2.607
-0.254	-7.123	2.607
-0.252	-7.132	2.607
-0.246	-7.138	2.607
-0.236	-7.140	2.607
-0.905	-7.124	2.278
-0.907	-7.118	2.285
-0.911	-7.110	2.288
-0.915	-7.103	2.284
-0.918	-7.099	2.277
-0.919	-7.100	2.267
-0.917	-7.105	2.260
-0.913	-7.113	2.258
-0.909	-7.121	2.261
-0.906	-7.125	2.269
-1.679	-7.519	2.376
-1.680	-7.513	2.384
-1.684	-7.505	2.387
-1.689	-7.498	2.384
-1.693	-7.494	2.376
-1.695	-7.495	2.367
-1.694	-7.500	2.360
-1.690	-7.508	2.357
-1.686	-7.516	2.360
-1.681	-7.520	2.367
-1.787	-7.577	2.425
-1.787	-7.571	2.432
-1.790	-7.563	2.435
-1.795	-7.555	2.433
-1.800	-7.552	2.426
-1.804	-7.553	2.417
-1.804	-7.559	2.410
-1.801	-7.567	2.407
-1.795	-7.574	2.410
-1.790	-7.578	2.416
-0.946	-7.221	2.347
-0.937	-7.221	2.349
-0.931	-7.226	2.355
-0.930	-7.233	2.361
-0.935	-7.239	2.365
-0.943	-7.243	2.366
-0.952	-7.243	2.364
-0.958	-7.238	2.359
-0.959	-7.231	2.353
-0.954	-7.224	2.348
-0.820	-7.669	1.814
-0.811	-7.669	1.816
-0.805	-7.674	1.821
-0.804	-7.681	1.827
-0.808	-7.687	1.832
-0.817	-7.691	1.833
-0.826	-7.691	1.831
-0.832	-7.686	1.825
-0.833	-7.679	1.819
-0.828	-7.672	1.815
-0.973	-7.370	2.439
-0.973	-7.363	2.445
-0.975	-7.354	2.445
-0.978	-7.346	2.440
-0.980	-7.343	2.432
-0.981	-7.346	2.423
-0.981	-7.353	2.417
-0.979	-7.362	2.417
-0.976	-7.370	2.422
-0.974	-7.373	2.430
-1.808	-7.545	2.599
-1.808	-7.538	2.605
-1.810	-7.529	2.606
-1.813	-7.521	2.601
-1.816	-7.518	2.593
-1.818	-7.520	2.584
-1.818	-7.528	2.579
-1.816	-7.537	2.578
-1.813	-7.544	2.582
-1.810	-7.547	2.590
-1.866	-7.558	2.623
-1.865	-7.551	2.629
-1.866	-7.542	2.630
-1.870	-7.535	2.626
-1.874	-7.531	2.618
-1.877	-7.534	2.610
-1.878	-7.541	2.604
-1.876	-7.550	2.603
[...]
         <CellData>
           <DataArray type="Float32" Name="combinedRootClassID" NumberOfComponents="1" format="ascii">
 -1.300e+01 -1.300e+01 -1.300e+01 -1.300e+01 -1.300e+01 -1.300e+01 -1.300e+01 -1.300e+01 -1.300e+01 -1.300e+01 -1.300e+01 -1.300e+01 -1.300e+01 -1.300e+01 -1.300e+01 -1.300e+01 -1.300e+01 -1.300e+01 -1.300e+01 -1.300e+01 -1.300e+01 -1.300e+01 -1.300e+01 -1.300e+01 -1.300e+01 -1.300e+01 -1.300e+01 -1.300e+01 -1.300e+01 -1.300e+01 -1.300e+01 -1.300e+01 -1.300e+01 -1.300e+01 -1.300e+01 -1.300e+01 -1.300e+01 -1.300e+01 -1.300e+01 -1.300e+01 -1.300e+01 -1.300e+01 -1.300e+01 -1.300e+01 -1.300e+01 -1.300e+01 -1.300e+01 -1.300e+01 -1.300e+01 -1.300e+01 -1.300e+01 -1.300e+01 -1.300e+01 -1.300e+01 -1.300e+01 -1.300e+01 -1.300e+01 -1.300e+01 -1.300e+01 -1.300e+01 -1.300e+01 -1.300e+01 -1.300e+01 -1.300e+01 -1.300e+01 -1.300e+01 -1.300e+01 -1.300e+01 -1.300e+01 -1.300e+01 -1.300e+01 -1.300e+01 -1.300e+01 -1.300e+01 -1.300e+01 -1.300e+01 -1.300e+01 -1.300e+01 -1.300e+01 -1.300e+01 -1.300e+01 -1.300e+01 -1.300e+01 -1.300e+01 -1.300e+01 -5.000e+00 -5.000e+00 -5.000e+00 -5.000e+00 -5.000e+00 -5.000e+00 -5.000e+00 -5.000e+00 -5.000e+00 -5.000e+00 -5.000e+00 -5.000e+00 -5.000e+00 -5.000e+00 -5.000e+00 -5.000e+00 -5.000e+00 -5.000e+00 -5.000e+00 -5.000e+00 -5.000e+00 -5.000e+00 -5.000e+00 -1.300e+01 -1.300e+01 -1.300e+01 -1.300e+01 -1.300e+01 -1.300e+01 -1.300e+01 -1.300e+01 -1.300e+01 -1.300e+01 -1.300e+01 -1.300e+01 -1.300e+01 -1.300e+01 -1.300e+01 -1.300e+01 -1.300e+01 -1.300e+01 -1.300e+01 -1.300e+01 -1.300e+01 -1.300e+01 -1.300e+01 -1.300e+01 -1.300e+01 -1.300e+01 -1.300e+01 -1.300e+01 -1.300e+01 -1.300e+01 -1.300e+01 -1.300e+01 -1.300e+01 -1.300e+01 -1.300e+01 -1.300e+01 -1.300e+01 -1.300e+01 -1.300e+01 -1.300e+01 -1.300e+01 -1.300e+01 -1.300e+01 -1.300e+01 -1.300e+01 -1.300e+01 -1.300e+01 -1.300e+01 -1.300e+01 -1.300e+01 -1.300e+01 -1.300e+01 -1.300e+01 -1.300e+01 -1.300e+01 -1.300e+01 -1.300e+01 -1.300e+01 -1.300e+01 -1.300e+01 -1.300e+01 -1.300e+01 -1.300e+01 -1.300e+01 -1.300e+01 -1.300e+01 -1.300e+01 -1.300e+01 -1.300e+01 -1.300e+01 -1.300e+01 -1.300e+01 -1.300e+01 -1.300e+01 -1.300e+01 -1.300e+01 -1.300e+01 -1.300e+01 -1.300e+01 -1.300e+01 -1.300e+01 -1.300e+01 -1.300e+01 -1.300e+01 -1.300e+01 -1.300e+01 -5.000e+00 -5.000e+00 -5.000e+00 -5.000e+00 -5.000e+00 -5.000e+00 -5.000e+00 -5.000e+00 -5.000e+00 -5.000e+00 -5.000e+00 -5.000e+00 -5.000e+00 -5.000e+00 -5.000e+00 -5.000e+00 -5.000e+00 -5.000e+00 -5.000e+00 -5.000e+00 -5.000e+00 -5.000e+00 -5.000e+00 -1.300e+01 -1.300e+01 -1.300e+01 -1.300e+01 -1.300e+01 -1.300e+01 -1.300e+01 -1.300e+01 -1.300e+01 -1.300e+01 -1.300e+01 -1.300e+01 -1.300e+01 -1.300e+01 -1.300e+01 -1.300e+01 -1.300e+01 -1.300e+01 -1.300e+01 -1.300e+01 -1.300e+01 -1.300e+01 -1.300e+01 -1.300e+01 -1.300e+01 -1.300e+01 -1.300e+01 -1.300e+01 -1.300e+01 -1.300e+01 -1.300e+01 -1.300e+01 -1.300e+01 -1.300e+01 -1.300e+01 -1.300e+01 -1.300e+01 -1.300e+01 -1.300e+01 -1.300e+01 -1.300e+01 -1.300e+01 -1.300e+01 -1.300e+01 -1.300e+01 -1.300e+01 -1.300e+01 -1.300e+01 -1.300e+01 -1.300e+01 -1.300e+01 -1.300e+01 -1.300e+01 -1.300e+01 -1.300e+01 -1.300e+01 -1.300e+01 -1.300e+01 -1.300e+01 -1.300e+01 -1.300e+01 -1.300e+01 -1.300e+01 -1.300e+01 -1.300e+01 -1.300e+01 -1.300e+01 -1.300e+01 -1.300e+01 -1.300e+01 -1.300e+01 -1.300e+01 -1.300e+01 -1.300e+01 -1.300e+01 -1.300e+01 -1.300e+01 -1.300e+01 -1.300e+01 -1.300e+01 -1.300e+01 -1.300e+01 -1.300e+01 -1.300e+01 -1.300e+01 -1.300e+01 -5.000e+00 -5.000e+00 -5.000e+00 -5.000e+00 -5.000e+00 -5.000e+00 -5.000e+00 -5.000e+00 -5.000e+00 -5.000e+00 -5.000e+00 -5.000e+00 -5.000e+00 -5.000e+00 -5.000e+00 -5.000e+00 -5.000e+00 -5.000e+00 -5.000e+00 -5.000e+00 -5.000e+00 -5.000e+00 -5.000e+00 -1.300e+01 -1.300e+01 -1.300e+01 -1.300e+01 -1.300e+01 -1.300e+01 -1.300e+01 -1.300e+01 -1.300e+01 -1.300e+01 -1.300e+01 -1.300e+01 -1.300e+01 -1.300e+01 -1.300e+01 -1.300e+01 -1.300e+01 -1.300e+01 -1.300e+01 -1.300e+01 -1.300e+01 -1.300e+01 -1.300e+01 -1.300e+01 -1.300e+01 -1.300e+01 -1.300e+01 -1.300e+01 -1.300e+01 -1.300e+01 -1.300e+01 -1.300e+01 -1.300e+01 -1.300e+01 -1.300e+01 -1.300e+01 -1.300e+01 -1.300e+01 -1.300e+01 -1.300e+01 -1.300e+01 -1.300e+01 -1.300e+01 -1.300e+01 -1.300e+01 -1.300e+01 -1.300e+01 -1.300e+01 -1.300e+01 -1.300e+01 -1.300e+01 -1.300e+01 -1.300e+01 -1.300e+01 -1.300e+01 -1.300e+01 -1.300e+01 -1.300e+01 -1.300e+01 -1.300e+01 -1.300e+01 -1.300e+01 -1.300e+01 -1.300e+01 -1.300e+01 -1.300e+01 -1.300e+01 -1.300e+01 -1.300e+01 -1.300e+01 -1.300e+01 -1.300e+01 -1.300e+01 -1.300e+01 -1.300e+01 -1.300e+01 -1.300e+01 -1.300e+01 -1.300e+01 -1.300e+01 -1.300e+01 -1.300e+01 -1.300e+01 -1.300e+01 -1.300e+01 -1.300e+01 -1.300e+01 -5.000e+00 -5.000e+00 -5.000e+00 -5.000e+00 -5.000e+00 -5.000e+00 -5.000e+00 -5.000e+00 -5.000e+00 -5.000e+00 -5.000e+00 -5.000e+00 -5.000e+00 -5.000e+00 -5.000e+00 -5.000e+00 -5.000e+00 -5.000e+00 -5.000e+00 -5.000e+00 -5.000e+00 -5.000e+00 -5.000e+00 -1.100e+01 -1.100e+01 -1.100e+01 -1.100e+01 -1.100e+01 -1.100e+01 -1.100e+01 -1.100e+01 -1.100e+01 -1.100e+01 -1.100e+01 -1.100e+01 -1.100e+01 -1.100e+01 -1.100e+01 -1.100e+01 -1.100e+01 -1.100e+01 -1.100e+01 -1.100e+01 -1.100e+01 -1.100e+01 -1.100e+01 -1.100e+01 -1.100e+01 -1.100e+01 -1.100e+01 -1.100e+01 -1.100e+01 -1.100e+01 -1.100e+01 -1.100e+01 -1.100e+01 -1.100e+01 -1.100e+01 -1.100e+01 -1.100e+01 -1.100e+01 -1.100e+01 -1.100e+01 -1.100e+01 -1.100e+01 -1.100e+01 -1.100e+01 -1.100e+01 -1.100e+01 -1.100e+01 -1.100e+01 -2.000e+00 -2.000e+00 -2.000e+00 -2.000e+00 -2.000e+00 -2.000e+00 -2.000e+00 -2.000e+00 -2.000e+00 -2.000e+00 -1.500e+01 -7.000e+00 -7.000e+00 -7.000e+00 -7.000e+00 -7.000e+00 -7.000e+00 -7.000e+00 -7.000e+00 -7.000e+00 -7.000e+00 -7.000e+00 -7.000e+00 -7.000e+00 -7.000e+00 -7.000e+00 -7.000e+00 -7.000e+00 -7.000e+00 -7.000e+00 -7.000e+00 -7.000e+00 -7.000e+00 -7.000e+00 -7.000e+00 -7.000e+00 -7.000e+00 -7.000e+00 -7.000e+00 -7.000e+00 -7.000e+00 -7.000e+00 -7.000e+00 -7.000e+00 -7.000e+00 -7.000e+00 -7.000e+00 -7.000e+00 -7.000e+00 -7.000e+00 -7.000e+00 -7.000e+00 -7.000e+00 -7.000e+00 -7.000e+00 -7.000e+00 -7.000e+00 -7.000e+00 -7.000e+00 -7.000e+00 -7.000e+00 -7.000e+00 -7.000e+00 -7.000e+00 -7.000e+00 -7.000e+00 -7.000e+00 -7.000e+00 -7.000e+00 -7.000e+00 -7.000e+00 -7.000e+00 -7.000e+00 -7.000e+00 -7.000e+00 -7.000e+00 -7.000e+00 -7.000e+00 -7.000e+00 -7.000e+00 -7.000e+00 -7.000e+00 -7.000e+00 -7.000e+00 -7.000e+00 -7.000e+00 -7.000e+00 -7.000e+00 -7.000e+00 -7.000e+00 -7.000e+00 -7.000e+00 -7.000e+00 -7.000e+00 -7.000e+00 -7.000e+00 -7.000e+00 -7.000e+00 -7.000e+00 -7.000e+00 -7.000e+00 -7.000e+00 -7.000e+00 -7.000e+00 -7.000e+00 -7.000e+00 -7.000e+00 -7.000e+00 -7.000e+00 -7.000e+00 -7.000e+00 -7.000e+00 -7.000e+00 -7.000e+00 -7.000e+00 -7.000e+00 -7.000e+00 -7.000e+00 -7.000e+00 -7.000e+00 -7.000e+00 -7.000e+00 -7.000e+00 -7.000e+00 -7.000e+00 -7.000e+00 -7.000e+00 -7.000e+00 -7.000e+00 -7.000e+00 -7.000e+00 -7.000e+00 -7.000e+00 -7.000e+00 -7.000e+00 -7.000e+00 -7.000e+00 -7.000e+00 -7.000e+00 -7.000e+00 -7.000e+00 -7.000e+00 -7.000e+00 -7.000e+00 -7.000e+00 -7.000e+00 -7.000e+00 -7.000e+00 -7.000e+00 -7.000e+00 -7.000e+00 -7.000e+00 -7.000e+00 -7.000e+00 -7.000e+00 -7.000e+00 -7.000e+00 -7.000e+00 -7.000e+00 -7.000e+00 -7.000e+00 -7.000e+00 -7.000e+00 -7.000e+00 -7.000e+00 -7.000e+00 -7.000e+00 -7.000e+00 -7.000e+00 -7.000e+00 -7.000e+00 -7.000e+00 -7.000e+00 -7.000e+00 -7.000e+00 -7.000e+00 -7.000e+00 -7.000e+00 -7.000e+00 -7.000e+00 -7.000e+00 -7.000e+00 -7.000e+00 -7.000e+00 -7.000e+00 -7.000e+00 -7.000e+00 -7.000e+00 -7.000e+00 -7.000e+00 -7.000e+00 -7.000e+00 -7.000e+00 -7.000e+00 -7.000e+00 -7.000e+00 -7.000e+00 -7.000e+00 -7.000e+00 -7.000e+00 -7.000e+00 -7.000e+00 -7.000e+00 -7.000e+00 -7.000e+00 -7.000e+00 -7.000e+00 -7.000e+00 -7.000e+00 -7.000e+00 -7.000e+00 -7.000e+00 -7.000e+00 -7.000e+00 -7.000e+00 -7.000e+00 -7.000e+00 -7.000e+00 -7.000e+00 -7.000e+00 -7.000e+00 -7.000e+00 -7.000e+00 -7.000e+00 -7.000e+00 -7.000e+00 -7.000e+00 -7.000e+00 -7.000e+00 -7.000e+00 -7.000e+00 -7.000e+00 -7.000e+00 -7.000e+00 -7.000e+00 -7.000e+00 -7.000e+00 -7.000e+00 -7.000e+00 -7.000e+00 -7.000e+00 -7.000e+00 -7.000e+00 -7.000e+00 -7.000e+00 -7.000e+00 -7.000e+00 -7.000e+00 -7.000e+00 -7.000e+00 -7.000e+00 -7.000e+00 -7.000e+00 -7.000e+00 -7.000e+00 -7.000e+00 -7.000e+00 -7.000e+00 -7.000e+00 -7.000e+00 -7.000e+00 -7.000e+00 -7.000e+00 -7.000e+00 -7.000e+00 -7.000e+00 -7.000e+00 -7.000e+00 -7.000e+00 -7.000e+00 -7.000e+00 -7.000e+00 -7.000e+00 -7.000e+00 -7.000e+00 -7.000e+00 -7.000e+00 -7.000e+00 -7.000e+00 -7.000e+00 -7.000e+00 -7.000e+00 -7.000e+00 -7.000e+00 -7.000e+00 -7.000e+00 -7.000e+00 -7.000e+00 -7.000e+00 -7.000e+00 -7.000e+00 -7.000e+00 -1.500e+01 -7.000e+00 -7.000e+00 -7.000e+00 -7.000e+00 -7.000e+00 -7.000e+00 -7.000e+00 -7.000e+00 -7.000e+00 -7.000e+00 -7.000e+00 -7.000e+00 -7.000e+00 -7.000e+00 -7.000e+00 -7.000e+00 -7.000e+00 -7.000e+00 -7.000e+00 -7.000e+00 -7.000e+00 -7.000e+00 -7.000e+00 -7.000e+00 -7.000e+00 -7.000e+00 -7.000e+00 -7.000e+00 -7.000e+00 -7.000e+00 -7.000e+00 -7.000e+00 -7.000e+00 -7.000e+00 -7.000e+00 -7.000e+00 -7.000e+00 -7.000e+00 -7.000e+00 -7.000e+00 -7.000e+00 -7.000e+00 -7.000e+00 -7.000e+00 -7.000e+00 -7.000e+00 -7.000e+00 -7.000e+00 -7.000e+00 -7.000e+00 -7.000e+00 -7.000e+00 -7.000e+00 -7.000e+00 -7.000e+00 -7.000e+00 -7.000e+00 -7.000e+00 -7.000e+00 -7.000e+00 -7.000e+00 -7.000e+00 -7.000e+00 -7.000e+00 -7.000e+00 -7.000e+00 -7.000e+00 -7.000e+00 -7.000e+00 -7.000e+00 -7.000e+00 -7.000e+00 -7.000e+00 -7.000e+00 -7.000e+00 -7.000e+00 -7.000e+00 -7.000e+00 -7.000e+00 -7.000e+00 -7.000e+00 -7.000e+00 -7.000e+00 -7.000e+00 -7.000e+00 -7.000e+00 -7.000e+00 -7.000e+00 -7.000e+00 -7.000e+00 -7.000e+00 -7.000e+00 -7.000e+00 -7.000e+00 -7.000e+00 -7.000e+00 -7.000e+00 -7.000e+00 -7.000e+00 -7.000e+00 -7.000e+00 -7.000e+00 -7.000e+00 -7.000e+00 -7.000e+00 -7.000e+00 -7.000e+00 -7.000e+00 -7.000e+00 -7.000e+00 -7.000e+00 -7.000e+00 -7.000e+00 -7.000e+00 -7.000e+00 -7.000e+00 -7.000e+00 -7.000e+00 -7.000e+00 -7.000e+00 -7.000e+00 -7.000e+00 -7.000e+00 -7.000e+00 -1.700e+01 -9.000e+00 -9.000e+00 -9.000e+00 -9.000e+00 -9.000e+00 -9.000e+00 -1.700e+01 -9.000e+00 -9.000e+00 -9.000e+00 -9.000e+00 -9.000e+00 -9.000e+00 -9.000e+00 -9.000e+00 -9.000e+00 -9.000e+00 -9.000e+00 -4.000e+00 -4.000e+00 -4.000e+00 -4.000e+00 -4.000e+00 -4.000e+00 -4.000e+00 -4.000e+00 -4.000e+00 -4.000e+00 -4.000e+00 -4.000e+00 -4.000e+00 -4.000e+00 -4.000e+00 -4.000e+00 -4.000e+00 -4.000e+00 -4.000e+00 -4.000e+00 -4.000e+00 -4.000e+00 -4.000e+00 -4.000e+00 -4.000e+00 -4.000e+00 -4.000e+00 -4.000e+00 -4.000e+00 -4.000e+00 -4.000e+00 -4.000e+00 -4.000e+00
           </DataArray>
           <DataArray type="Float32" Name="nitrate/Cmin" NumberOfComponents="1" format="ascii">