<?xml version="1.0"?>
<VTKFile type="UnstructuredGrid" version="0.1" byte_order="LittleEndian">
   <UnstructuredGrid>
      <Piece NumberOfPoints="4670" NumberOfCells="330">
         <Points>
            <DataArray type="Float32" Name="Position" NumberOfComponents="3" format="ascii">
-0.053	-5.037	0.145
-0.054	-5.029	0.150
-0.055	-5.020	0.149
-0.056	-5.013	0.143
-0.056	-5.011	0.134
-0.055	-5.014	0.125
-0.054	-5.022	0.121
-0.052	-5.031	0.122
-0.052	-5.038	0.128
-0.052	-5.040	0.137
-0.275	-5.070	0.136
-0.277	-5.062	0.140
-0.278	-5.053	0.139
-0.279	-5.046	0.133
-0.279	-5.044	0.124
-0.278	-5.048	0.116
-0.276	-5.056	0.111
-0.275	-5.065	0.112
-0.274	-5.072	0.118
-0.274	-5.074	0.127
-0.098	-5.074	0.253
-0.099	-5.067	0.260
-0.102	-5.065	0.268
-0.106	-5.069	0.276
-0.109	-5.077	0.280
-0.110	-5.086	0.278
-0.109	-5.093	0.272
-0.106	-5.094	0.263
-0.102	-5.091	0.256
-0.099	-5.083	0.252
0.075	-5.109	0.324
0.074	-5.102	0.330
0.071	-5.100	0.339
0.067	-5.104	0.346
0.064	-5.112	0.350
0.063	-5.121	0.348
0.064	-5.128	0.342
0.067	-5.130	0.334
0.071	-5.126	0.326
0.074	-5.118	0.322
-0.145	-5.142	0.380
-0.147	-5.133	0.384
-0.151	-5.130	0.391
-0.157	-5.131	0.398
-0.161	-5.138	0.403
-0.163	-5.147	0.403
-0.161	-5.155	0.399
-0.157	-5.159	0.392
-0.151	-5.157	0.385
-0.147	-5.151	0.380
-0.048	-5.171	0.479
-0.048	-5.163	0.483
-0.048	-5.154	0.481
-0.048	-5.147	0.475
-0.048	-5.146	0.466
-0.048	-5.150	0.457
-0.048	-5.158	0.453
-0.048	-5.168	0.455
-0.048	-5.174	0.461
-0.048	-5.176	0.470
-0.204	-5.229	0.523
-0.206	-5.221	0.527
-0.207	-5.212	0.525
-0.208	-5.205	0.519
-0.207	-5.203	0.510
-0.205	-5.207	0.502
-0.203	-5.215	0.498
-0.201	-5.224	0.499
-0.201	-5.231	0.505
-0.202	-5.232	0.514
-0.358	-5.256	0.500
-0.360	-5.248	0.505
-0.361	-5.239	0.503
-0.361	-5.233	0.497
-0.360	-5.231	0.488
-0.359	-5.235	0.480
-0.357	-5.243	0.475
-0.355	-5.252	0.477
-0.355	-5.258	0.483
-0.356	-5.260	0.492
-0.258	-5.305	0.641
-0.260	-5.297	0.644
-0.261	-5.288	0.642
-0.260	-5.282	0.635
-0.258	-5.281	0.626
-0.255	-5.286	0.618
-0.253	-5.294	0.615
-0.252	-5.303	0.617
-0.253	-5.309	0.624
-0.255	-5.310	0.633
-0.362	-5.321	0.614
-0.365	-5.312	0.617
-0.365	-5.304	0.615
-0.364	-5.297	0.608
-0.362	-5.297	0.599
-0.360	-5.301	0.592
-0.358	-5.310	0.588
-0.357	-5.319	0.591
-0.358	-5.325	0.597
-0.360	-5.326	0.606
-0.297	-5.376	0.731
-0.291	-5.377	0.737
-0.290	-5.380	0.746
-0.294	-5.383	0.754
-0.303	-5.385	0.757
-0.312	-5.386	0.755
-0.318	-5.384	0.748
-0.319	-5.381	0.740
-0.314	-5.378	0.732
-0.306	-5.376	0.729
-0.288	-5.456	0.704
-0.282	-5.458	0.710
-0.280	-5.460	0.719
-0.285	-5.463	0.727
-0.293	-5.466	0.730
-0.302	-5.466	0.728
-0.309	-5.464	0.721
-0.310	-5.462	0.713
-0.305	-5.458	0.705
-0.297	-5.456	0.702
-0.348	-5.463	0.841
-0.340	-5.464	0.847
-0.337	-5.468	0.854
-0.340	-5.473	0.862
-0.347	-5.477	0.866
-0.356	-5.479	0.865
-0.363	-5.478	0.860
-0.366	-5.474	0.852
-0.364	-5.469	0.844
-0.357	-5.465	0.840
-0.331	-5.526	0.805
-0.323	-5.527	0.811
-0.320	-5.531	0.819
-0.323	-5.536	0.826
-0.330	-5.540	0.830
-0.339	-5.542	0.829
-0.346	-5.541	0.824
-0.349	-5.537	0.816
-0.347	-5.532	0.809
-0.340	-5.528	0.805
-0.391	-5.562	0.949
-0.391	-5.553	0.954
-0.395	-5.549	0.961
-0.401	-5.550	0.968
-0.407	-5.556	0.972
-0.410	-5.565	0.972
-0.409	-5.573	0.968
-0.405	-5.578	0.961
-0.399	-5.576	0.954
-0.393	-5.570	0.949
-0.357	-5.573	0.976
-0.357	-5.565	0.980
-0.361	-5.561	0.988
-0.367	-5.562	0.995
-0.373	-5.568	0.999
-0.376	-5.577	0.999
-0.375	-5.585	0.994
-0.371	-5.589	0.987
-0.365	-5.588	0.980
-0.360	-5.582	0.976
-0.437	-5.656	1.056
-0.439	-5.648	1.060
-0.443	-5.644	1.067
-0.449	-5.645	1.074
-0.454	-5.652	1.078
-0.456	-5.661	1.079
-0.454	-5.669	1.075
-0.450	-5.673	1.068
-0.444	-5.672	1.061
-0.439	-5.665	1.056
-0.419	-5.662	1.070
-0.414	-5.662	1.078
-0.416	-5.662	1.087
-0.422	-5.662	1.094
-0.432	-5.662	1.095
-0.440	-5.662	1.091
-0.444	-5.662	1.083
-0.443	-5.662	1.074
-0.436	-5.662	1.067
-0.427	-5.662	1.066
0.025	-5.013	-0.001
0.032	-4.997	0.010
0.027	-4.978	0.017
0.012	-4.963	0.018
-0.008	-4.959	0.012
-0.025	-4.967	0.002
-0.032	-4.983	-0.009
-0.027	-5.002	-0.017
-0.012	-5.017	-0.018
0.008	-5.021	-0.012
-0.247	-5.342	0.662
-0.241	-5.327	0.675
-0.246	-5.309	0.685
-0.262	-5.295	0.687
-0.282	-5.291	0.681
-0.298	-5.298	0.670
-0.305	-5.313	0.657
-0.299	-5.331	0.647
-0.283	-5.345	0.645
-0.263	-5.349	0.651
-0.517	-5.896	1.288
-0.511	-5.883	1.304
-0.518	-5.867	1.316
-0.535	-5.856	1.321
-0.555	-5.852	1.317
-0.571	-5.858	1.304
-0.576	-5.871	1.288
-0.569	-5.886	1.276
-0.553	-5.898	1.271
-0.533	-5.901	1.275
-0.696	-6.400	1.711
-0.691	-6.389	1.727
-0.698	-6.375	1.742
-0.715	-6.365	1.748
-0.735	-6.362	1.745
-0.751	-6.367	1.732
-0.757	-6.378	1.715
-0.750	-6.392	1.701
-0.733	-6.402	1.695
-0.712	-6.406	1.698
-0.856	-7.024	2.189
-0.851	-7.013	2.206
-0.858	-7.001	2.221
-0.875	-6.991	2.228
-0.896	-6.988	2.225
-0.912	-6.992	2.213
-0.917	-7.003	2.195
-0.910	-7.016	2.180
-0.893	-7.025	2.173
-0.872	-7.028	2.176
-0.987	-7.517	2.502
-0.981	-7.508	2.520
-0.989	-7.497	2.536
-1.006	-7.488	2.544
-1.026	-7.485	2.541
-1.042	-7.488	2.528
-1.047	-7.496	2.509
-1.040	-7.508	2.493
-1.023	-7.517	2.485
-1.002	-7.520	2.488
-1.145	-8.085	2.777
-1.139	-8.078	2.796
-1.147	-8.068	2.814
-1.164	-8.060	2.823
-1.184	-8.056	2.820
-1.200	-8.058	2.806
-1.206	-8.066	2.787
-1.198	-8.075	2.770
-1.181	-8.083	2.761
-1.161	-8.087	2.764
-1.286	-8.723	3.037
-1.281	-8.716	3.056
-1.288	-8.708	3.074
-1.305	-8.700	3.084
-1.325	-8.697	3.081
-1.342	-8.698	3.068
-1.347	-8.705	3.049
-1.340	-8.714	3.031
-1.323	-8.721	3.022
-1.302	-8.725	3.024
-1.434	-9.412	3.309
-1.428	-9.406	3.328
-1.435	-9.398	3.346
-1.452	-9.391	3.356
-1.473	-9.388	3.354
-1.489	-9.389	3.341
-1.495	-9.395	3.321
-1.488	-9.403	3.303
-1.471	-9.410	3.293
-1.450	-9.414	3.295
-1.579	-10.150	3.563
-1.573	-10.145	3.583
-1.580	-10.138	3.601
-1.597	-10.132	3.612
-1.618	-10.129	3.611
-1.634	-10.130	3.598
-1.640	-10.135	3.578
-1.634	-10.142	3.560
-1.617	-10.148	3.549
-1.596	-10.151	3.550
-1.696	-10.911	3.774
-1.689	-10.907	3.793
-1.696	-10.901	3.813
-1.712	-10.895	3.824
-1.733	-10.893	3.823
-1.750	-10.894	3.811
-1.757	-10.898	3.792
-1.750	-10.904	3.772
-1.734	-10.910	3.761
-1.713	-10.912	3.762
-1.785	-11.677	3.981
-1.778	-11.673	4.000
-1.784	-11.667	4.020
-1.800	-11.663	4.032
-1.821	-11.661	4.032
-1.838	-11.663	4.020
-1.845	-11.667	4.001
-1.840	-11.672	3.982
-1.823	-11.677	3.969
-1.802	-11.678	3.969
-1.829	-12.453	4.157
-1.821	-12.450	4.176
-1.827	-12.445	4.196
-1.843	-12.442	4.209
-1.864	-12.441	4.210
-1.881	-12.443	4.199
-1.889	-12.447	4.180
-1.884	-12.451	4.160
-1.868	-12.454	4.147
-1.847	-12.455	4.146
-1.830	-12.846	4.229
-1.822	-12.842	4.248
-1.827	-12.838	4.268
-1.843	-12.836	4.282
-1.864	-12.836	4.283
-1.882	-12.838	4.272
-1.890	-12.841	4.253
-1.885	-12.845	4.233
-1.869	-12.847	4.220
-1.848	-12.848	4.218
0.143	-5.021	0.055
0.146	-5.021	0.064
0.144	-5.020	0.073
0.138	-5.019	0.079
0.128	-5.018	0.080
0.120	-5.018	0.075
0.117	-5.019	0.066
0.119	-5.020	0.057
0.126	-5.021	0.051
0.135	-5.021	0.050
0.135	-5.225	0.075
0.138	-5.225	0.084
0.136	-5.224	0.093
0.129	-5.223	0.099
0.120	-5.223	0.100
0.112	-5.223	0.095
0.108	-5.223	0.086
0.111	-5.224	0.077
0.117	-5.225	0.071
0.127	-5.226	0.071
0.270	-5.077	0.128
0.274	-5.069	0.129
0.273	-5.060	0.129
0.267	-5.053	0.129
0.258	-5.051	0.128
0.250	-5.055	0.127
0.245	-5.063	0.126
0.246	-5.073	0.126
0.252	-5.079	0.126
0.261	-5.081	0.127
0.222	-5.074	0.361
0.230	-5.074	0.365
0.239	-5.074	0.363
0.246	-5.074	0.357
0.247	-5.074	0.348
0.243	-5.074	0.339
0.235	-5.074	0.335
0.225	-5.074	0.337
0.219	-5.074	0.343
0.217	-5.074	0.352
0.390	-5.136	0.196
0.394	-5.128	0.199
0.394	-5.119	0.200
0.388	-5.112	0.198
0.380	-5.109	0.195
0.372	-5.112	0.191
0.368	-5.120	0.188
0.369	-5.129	0.187
0.374	-5.137	0.189
0.382	-5.139	0.192
0.334	-5.150	0.316
0.339	-5.142	0.319
0.338	-5.133	0.319
0.333	-5.126	0.318
0.324	-5.123	0.314
0.317	-5.127	0.310
0.312	-5.134	0.307
0.313	-5.143	0.306
0.319	-5.151	0.308
0.327	-5.153	0.312
0.503	-5.194	0.253
0.508	-5.196	0.260
0.507	-5.199	0.269
0.500	-5.199	0.276
0.491	-5.198	0.278
0.483	-5.195	0.275
0.479	-5.192	0.267
0.480	-5.190	0.258
0.486	-5.190	0.251
0.495	-5.191	0.249
0.484	-5.292	0.226
0.488	-5.295	0.234
0.487	-5.297	0.243
0.481	-5.298	0.250
0.472	-5.296	0.252
0.463	-5.294	0.248
0.459	-5.291	0.241
0.460	-5.289	0.232
0.466	-5.288	0.225
0.475	-5.289	0.223
0.598	-5.260	0.323
0.604	-5.257	0.329
0.610	-5.260	0.335
0.613	-5.268	0.340
0.613	-5.277	0.340
0.608	-5.285	0.337
0.602	-5.287	0.331
0.596	-5.284	0.324
0.593	-5.277	0.320
0.594	-5.268	0.319
0.679	-5.271	0.245
0.685	-5.269	0.251
0.691	-5.272	0.258
0.694	-5.279	0.262
0.694	-5.288	0.263
0.689	-5.296	0.259
0.683	-5.298	0.253
0.677	-5.295	0.247
0.674	-5.288	0.242
0.675	-5.279	0.242
0.715	-5.354	0.379
0.712	-5.347	0.384
0.708	-5.345	0.392
0.704	-5.348	0.400
0.702	-5.356	0.404
0.702	-5.366	0.403
0.705	-5.373	0.398
0.709	-5.375	0.390
0.713	-5.371	0.382
0.715	-5.363	0.378
0.782	-5.360	0.445
0.790	-5.360	0.449
0.799	-5.360	0.447
0.806	-5.360	0.441
0.807	-5.360	0.432
0.803	-5.360	0.423
0.795	-5.360	0.419
0.785	-5.360	0.421
0.779	-5.360	0.427
0.777	-5.360	0.436
0.819	-5.464	0.452
0.824	-5.456	0.455
0.822	-5.447	0.456
0.816	-5.440	0.456
0.807	-5.438	0.453
0.799	-5.442	0.450
0.795	-5.449	0.448
0.797	-5.459	0.446
0.803	-5.465	0.447
0.812	-5.467	0.449
0.800	-5.464	0.505
0.805	-5.464	0.513
0.803	-5.464	0.522
0.797	-5.464	0.529
0.788	-5.464	0.530
0.779	-5.464	0.526
0.775	-5.464	0.518
0.777	-5.464	0.509
0.783	-5.464	0.502
0.792	-5.464	0.501
0.919	-5.554	0.501
0.921	-5.557	0.510
0.917	-5.557	0.518
0.910	-5.554	0.523
0.902	-5.551	0.523
0.895	-5.547	0.517
0.894	-5.544	0.509
0.897	-5.544	0.500
0.905	-5.546	0.495
0.913	-5.550	0.495
0.880	-5.576	0.502
0.889	-5.572	0.502
0.898	-5.574	0.502
0.904	-5.580	0.502
0.906	-5.589	0.502
0.901	-5.597	0.502
0.893	-5.602	0.502
0.884	-5.600	0.502
0.877	-5.594	0.502
0.876	-5.585	0.502
1.014	-5.658	0.559
1.014	-5.661	0.568
1.009	-5.660	0.576
1.002	-5.657	0.580
0.994	-5.652	0.579
0.989	-5.647	0.572
0.989	-5.645	0.563
0.993	-5.645	0.555
1.001	-5.648	0.551
1.009	-5.653	0.552
1.003	-5.677	0.553
1.003	-5.679	0.562
[...]
         <CellData>
           <DataArray type="Float32" Name="combinedRootClassID" NumberOfComponents="1" format="ascii">
 -1.300e+01 -1.300e+01 -1.300e+01 -1.300e+01 -1.300e+01 -1.300e+01 -1.300e+01 -1.300e+01 -1.300e+01 -5.000e+00 -5.000e+00 -5.000e+00 -5.000e+00 -5.000e+00 -5.000e+00 -5.000e+00 -5.000e+00 -5.000e+00 -5.000e+00 -5.000e+00 -5.000e+00 -5.000e+00 -1.300e+01 -1.300e+01 -1.300e+01 -1.300e+01 -1.300e+01 -1.300e+01 -1.300e+01 -1.300e+01 -1.300e+01 -5.000e+00 -5.000e+00 -5.000e+00 -5.000e+00 -5.000e+00 -5.000e+00 -5.000e+00 -5.000e+00 -5.000e+00 -5.000e+00 -5.000e+00 -5.000e+00 -5.000e+00 -1.300e+01 -1.300e+01 -1.300e+01 -1.300e+01 -1.300e+01 -1.300e+01 -1.300e+01 -1.300e+01 -1.300e+01 -5.000e+00 -5.000e+00 -5.000e+00 -5.000e+00 -5.000e+00 -5.000e+00 -5.000e+00 -5.000e+00 -5.000e+00 -5.000e+00 -5.000e+00 -5.000e+00 -5.000e+00 -1.300e+01 -1.300e+01 -1.300e+01 -1.300e+01 -1.300e+01 -1.300e+01 -1.300e+01 -1.300e+01 -1.300e+01 -5.000e+00 -5.000e+00 -5.000e+00 -5.000e+00 -5.000e+00 -5.000e+00 -5.000e+00 -5.000e+00 -5.000e+00 -5.000e+00 -5.000e+00 -5.000e+00 -5.000e+00 -1.100e+01 -1.100e+01 -1.100e+01 -1.100e+01 -1.100e+01 -1.100e+01 -1.100e+01 -1.100e+01 -1.100e+01 -1.100e+01 -1.100e+01 -1.100e+01 -2.000e+00 -2.000e+00 -2.000e+00 -2.000e+00 -2.000e+00 -2.000e+00 -2.000e+00 -2.000e+00 -2.000e+00 -2.000e+00 -7.000e+00 -7.000e+00 -7.000e+00 -7.000e+00 -7.000e+00 -7.000e+00 -7.000e+00 -7.000e+00 -7.000e+00 -7.000e+00 -7.000e+00 -7.000e+00 -7.000e+00 -7.000e+00 -7.000e+00 -7.000e+00 -7.000e+00 -7.000e+00 -7.000e+00 -7.000e+00 -7.000e+00 -7.000e+00 -7.000e+00 -7.000e+00 -7.000e+00 -7.000e+00 -7.000e+00 -7.000e+00 -7.000e+00 -7.000e+00 -7.000e+00 -7.000e+00 -7.000e+00 -7.000e+00 -7.000e+00 -7.000e+00 -7.000e+00 -7.000e+00 -7.000e+00 -7.000e+00 -7.000e+00 -7.000e+00 -7.000e+00 -7.000e+00 -7.000e+00 -7.000e+00 -7.000e+00 -7.000e+00 -7.000e+00 -7.000e+00 -7.000e+00 -7.000e+00 -7.000e+00 -7.000e+00 -7.000e+00 -7.000e+00 -7.000e+00 -7.000e+00 -7.000e+00 -7.000e+00 -7.000e+00 -7.000e+00 -7.000e+00 -7.000e+00 -7.000e+00 -7.000e+00 -7.000e+00 -7.000e+00 -7.000e+00 -7.000e+00 -7.000e+00 -7.000e+00 -7.000e+00 -7.000e+00 -7.000e+00 -7.000e+00 -7.000e+00 -7.000e+00 -7.000e+00 -7.000e+00 -7.000e+00 -7.000e+00 -7.000e+00 -7.000e+00 -7.000e+00 -7.000e+00 -7.000e+00 -7.000e+00 -7.000e+00 -7.000e+00 -7.000e+00 -7.000e+00 -7.000e+00 -7.000e+00 -7.000e+00 -7.000e+00 -7.000e+00 -7.000e+00 -7.000e+00 -7.000e+00 -7.000e+00 -7.000e+00 -7.000e+00 -7.000e+00 -7.000e+00 -7.000e+00 -7.000e+00 -7.000e+00 -7.000e+00 -7.000e+00 -7.000e+00 -7.000e+00 -7.000e+00 -7.000e+00 -7.000e+00 -7.000e+00 -7.000e+00 -7.000e+00 -7.000e+00 -7.000e+00 -7.000e+00 -7.000e+00 -7.000e+00 -7.000e+00 -7.000e+00 -7.000e+00 -7.000e+00 -7.000e+00 -7.000e+00 -7.000e+00 -7.000e+00 -7.000e+00 -7.000e+00 -7.000e+00 -7.000e+00 -7.000e+00 -7.000e+00 -7.000e+00 -7.000e+00 -7.000e+00 -7.000e+00 -7.000e+00 -7.000e+00 -7.000e+00 -7.000e+00 -7.000e+00 -7.000e+00 -7.000e+00 -7.000e+00 -7.000e+00 -7.000e+00 -7.000e+00 -7.000e+00 -7.000e+00 -7.000e+00 -7.000e+00 -7.000e+00 -7.000e+00 -7.000e+00 -7.000e+00 -7.000e+00 -7.000e+00 -7.000e+00 -7.000e+00 -7.000e+00 -7.000e+00 -7.000e+00 -7.000e+00 -7.000e+00 -7.000e+00 -7.000e+00 -7.000e+00 -7.000e+00 -7.000e+00 -7.000e+00 -7.000e+00 -7.000e+00 -7.000e+00 -7.000e+00 -7.000e+00 -7.000e+00 -7.000e+00 -7.000e+00 -7.000e+00 -7.000e+00 -7.000e+00 -9.000e+00 -9.000e+00 -9.000e+00 -9.000e+00 -9.000e+00 -9.000e+00 -9.000e+00 -4.000e+00 -4.000e+00 -4.000e+00 -4.000e+00 -4.000e+00 -4.000e+00 -4.000e+00 -4.000e+00 -4.000e+00 -4.000e+00 -4.000e+00 -4.000e+00 -4.000e+00 -4.000e+00 -4.000e+00 -4.000e+00 -4.000e+00 -4.000e+00 -4.000e+00 -4.000e+00 -4.000e+00 -4.000e+00 -4.000e+00 -4.000e+00 -4.000e+00 -4.000e+00 -4.000e+00
           </DataArray>
           <DataArray type="Float32" Name="nitrate/Cmin" NumberOfComponents="1" format="ascii">
 1.000e-03 1.000e-03 1.000e-03 1.000e-03 1.000e-03 1.000e-03 1.000e-03 1.000e-03 1.000e-03 1.000e-03 1.000e-03 1.000e-03 1.000e-03 1.000e-03 1.000e-03 1.000e-03 1.000e-03 1.000e-03 1.000e-03 1.000e-03 1.000e-03 1.000e-03 1.000e-03 1.000e-03 1.000e-03 1.000e-03 1.000e-03 1.000e-03 1.000e-03 1.000e-03 1.000e-03 1.000e-03 1.000e-03 1.000e-03 1.000e-03 1.000e-03 1.000e-03 1.000e-03 1.000e-03 1.000e-03 1.000e-03 1.000e-03 1.000e-03 1.000e-03 1.000e-03 1.000e-03 1.000e-03 1.000e-03 1.000e-03 1.000e-03 1.000e-03 1.000e-03 1.000e-03 1.000e-03 1.000e-03 1.000e-03 1.000e-03 1.000e-03 1.000e-03 1.000e-03 1.000e-03 1.000e-03 1.000e-03 1.000e-03 1.000e-03 1.000e-03 1.000e-03 1.000e-03 1.000e-03 1.000e-03 1.000e-03 1.000e-03 1.000e-03 1.000e-03 1.000e-03 1.000e-03 1.000e-03 1.000e-03 1.000e-03 1.000e-03 1.000e-03 1.000e-03 1.000e-03 1.000e-03 1.000e-03 1.000e-03 1.000e-03 1.000e-03 1.000e-03 1.000e-03 1.000e-03 1.000e-03 1.000e-03 1.000e-03 1.000e-03 1.000e-03 1.000e-03 1.000e-03 1.000e-03 1.000e-03 1.000e-03 1.000e-03 1.000e-03 1.000e-03 1.000e-03 1.000e-03 1.000e-03 1.000e-03 1.000e-03 1.000e-03 1.000e-03 1.000e-03 1.000e-03 1.000e-03 1.000e-03 1.000e-03 1.000e-03 1.000e-03 1.000e-03 1.000e-03 1.000e-03 1.000e-03 1.000e-03 1.000e-03 1.000e-03 1.000e-03 1.000e-03 1.000e-03 1.000e-03 1.000e-03 1.000e-03 1.000e-03 1.000e-03 1.000e-03 1.000e-03 1.000e-03 1.000e-03 1.000e-03 1.000e-03 1.000e-03 1.000e-03 1.000e-03 1.000e-03 1.000e-03 1.000e-03 1.000e-03 1.000e-03 1.000e-03 1.000e-03 1.000e-03 1.000e-03 1.000e-03 1.000e-03 1.000e-03 1.000e-03 1.000e-03 1.000e-03 1.000e-03 1.000e-03 1.000e-03 1.000e-03 1.000e-03 1.000e-03 1.000e-03 1.000e-03 1.000e-03 1.000e-03 1.000e-03 1.000e-03 1.000e-03 1.000e-03 1.000e-03 1.000e-03 1.000e-03 1.000e-03 1.000e-03 1.000e-03 1.000e-03 1.000e-03 1.000e-03 1.000e-03 1.000e-03 1.000e-03 1.000e-03 1.000e-03 1.000e-03 1.000e-03 1.000e-03 1.000e-03 1.000e-03 1.000e-03 1.000e-03 1.000e-03 1.000e-03 1.000e-03 1.000e-03 1.000e-03 1.000e-03 1.000e-03 1.000e-03 1.000e-03 1.000e-03 1.000e-03 1.000e-03 1.000e-03 1.000e-03 1.000e-03 1.000e-03 1.000e-03 1.000e-03 1.000e-03 1.000e-03 1.000e-03 1.000e-03 1.000e-03 1.000e-03 1.000e-03 1.000e-03 1.000e-03 1.000e-03 1.000e-03 1.000e-03 1.000e-03 1.000e-03 1.000e-03 1.000e-03 1.000e-03 1.000e-03 1.000e-03 1.000e-03 1.000e-03 1.000e-03 1.000e-03 1.000e-03 1.000e-03 1.000e-03 1.000e-03 1.000e-03 1.000e-03 1.000e-03 1.000e-03 1.000e-03 1.000e-03 1.000e-03 1.000e-03 1.000e-03 1.000e-03 1.000e-03 1.000e-03 1.000e-03 1.000e-03 1.000e-03 1.000e-03 1.000e-03 1.000e-03 1.000e-03 1.000e-03 1.000e-03 1.000e-03 1.000e-03 1.000e-03 1.000e-03 1.000e-03 1.000e-03 1.000e-03 1.000e-03 1.000e-03 1.000e-03 1.000e-03 1.000e-03 1.000e-03 1.000e-03 1.000e-03 1.000e-03 1.000e-03 1.000e-03 1.000e-03 1.000e-03 1.000e-03 1.000e-03 1.000e-03 1.000e-03 1.000e-03 1.000e-03 1.000e-03 1.000e-03 1.000e-03 1.000e-03 1.000e-03 1.000e-03 1.000e-03 1.000e-03 1.000e-03 1.000e-03 1.000e-03 1.000e-03 1.000e-03 1.000e-03 1.000e-03 1.000e-03 1.000e-03 1.000e-03 1.000e-03 1.000e-03 1.000e-03 1.000e-03 1.000e-03 1.000e-03 1.000e-03 1.000e-03 1.000e-03 1.000e-03 1.000e-03 1.000e-03 1.000e-03 1.000e-03 1.000e-03 1.000e-03 1.000e-03 1.000e-03 1.000e-03 1.000e-03 1.000e-03 1.000e-03 1.000e-03 1.000e-03 1.000e-03 1.000e-03 1.000e-03 1.000e-03
           </DataArray>
           <DataArray type="Float32" Name="nitrate/Imax" NumberOfComponents="1" format="ascii">
 1.900e+00 1.900e+00 1.900e+00 1.900e+00 1.900e+00 1.900e+00 1.900e+00 1.900e+00 1.900e+00 1.900e+00 1.900e+00 1.900e+00 1.900e+00 1.900e+00 1.900e+00 1.900e+00 1.900e+00 1.900e+00 1.900e+00 1.900e+00 1.900e+00 1.900e+00 1.900e+00 1.900e+00 1.900e+00 1.900e+00 1.900e+00 1.900e+00 1.900e+00 1.900e+00 1.900e+00 1.900e+00 1.900e+00 1.900e+00 1.900e+00 1.900e+00 1.900e+00 1.900e+00 1.900e+00 1.900e+00 1.900e+00 1.900e+00 1.900e+00 1.900e+00 1.900e+00 1.900e+00 1.900e+00 1.900e+00 1.900e+00 1.900e+00 1.900e+00 1.900e+00 1.900e+00 1.900e+00 1.900e+00 1.900e+00 1.900e+00 1.900e+00 1.900e+00 1.900e+00 1.900e+00 1.900e+00 1.900e+00 1.900e+00 1.900e+00 1.900e+00 1.900e+00 1.900e+00 1.900e+00 1.900e+00 1.900e+00 1.900e+00 1.900e+00 1.900e+00 1.900e+00 1.900e+00 1.900e+00 1.900e+00 1.900e+00 1.900e+00 1.900e+00 1.900e+00 1.900e+00 1.900e+00 1.900e+00 1.900e+00 1.900e+00 1.900e+00 1.900e+00 1.900e+00 1.900e+00 1.900e+00 1.900e+00 1.900e+00 1.900e+00 1.900e+00 1.900e+00 1.900e+00 1.900e+00 1.900e+00 1.900e+00 1.900e+00 1.900e+00 1.900e+00 1.900e+00 1.900e+00 1.900e+00 1.900e+00 1.900e+00 1.900e+00 1.900e+00 1.900e+00 1.900e+00 1.900e+00 1.900e+00 1.900e+00 1.900e+00 1.900e+00 1.900e+00 1.900e+00 1.900e+00 1.900e+00 1.900e+00 1.900e+00 1.900e+00 1.900e+00 1.900e+00 1.900e+00 1.900e+00 1.900e+00 1.900e+00 1.900e+00 1.900e+00 1.900e+00 1.900e+00 1.900e+00 1.900e+00 1.900e+00 1.900e+00 1.900e+00 1.900e+00 1.900e+00 1.900e+00 1.900e+00 1.900e+00 1.900e+00 1.900e+00 1.900e+00 1.900e+00 1.900e+00 1.900e+00 1.900e+00 1.900e+00 1.900e+00 1.900e+00 1.900e+00 1.900e+00 1.900e+00 1.900e+00 1.900e+00 1.900e+00 1.900e+00 1.900e+00 1.900e+00 1.900e+00 1.900e+00 1.900e+00 1.900e+00 1.900e+00 1.900e+00 1.900e+00 1.900e+00 1.900e+00 1.900e+00 1.900e+00 1.900e+00 1.900e+00 1.900e+00 1.900e+00 1.900e+00 1.900e+00 1.900e+00 1.900e+00 1.900e+00 1.900e+00 1.900e+00 1.900e+00 1.900e+00 1.900e+00 1.900e+00 1.900e+00 1.900e+00 1.900e+00 1.900e+00 1.900e+00 1.900e+00 1.900e+00 1.900e+00 1.900e+00 1.900e+00 1.900e+00 1.900e+00 1.900e+00 1.900e+00 1.900e+00 1.900e+00 1.900e+00 1.900e+00 1.900e+00 1.900e+00 1.900e+00 1.900e+00 1.900e+00 1.900e+00 1.900e+00 1.900e+00 1.900e+00 1.900e+00 1.900e+00 1.900e+00 1.900e+00 1.900e+00 1.900e+00 1.900e+00 1.900e+00 1.900e+00 1.900e+00 1.900e+00 1.900e+00 1.900e+00 1.900e+00 1.900e+00 1.900e+00 1.900e+00 1.900e+00 1.900e+00 1.900e+00 1.900e+00 1.900e+00 1.900e+00 1.900e+00 1.900e+00 1.900e+00 1.900e+00 1.900e+00 1.900e+00 1.900e+00 1.900e+00 1.900e+00 1.900e+00 1.900e+00 1.900e+00 1.900e+00 1.900e+00 1.900e+00 1.900e+00 1.900e+00 1.900e+00 1.900e+00 1.900e+00 1.900e+00 1.900e+00 1.900e+00 1.900e+00 1.900e+00 1.900e+00 1.900e+00 1.900e+00 1.900e+00 1.900e+00 1.900e+00 1.900e+00 1.900e+00 1.900e+00 1.900e+00 1.900e+00 1.900e+00 1.900e+00 1.900e+00 1.900e+00 1.900e+00 1.900e+00 1.900e+00 1.900e+00 1.900e+00 1.900e+00 1.900e+00 1.900e+00 1.900e+00 1.900e+00 1.900e+00 1.900e+00 1.900e+00 1.900e+00 1.900e+00 1.900e+00 1.900e+00 1.900e+00 1.900e+00 1.900e+00 1.900e+00 1.900e+00 1.900e+00 1.900e+00 1.900e+00 1.900e+00 1.900e+00 1.900e+00 1.900e+00 1.900e+00 1.900e+00 1.900e+00 1.900e+00 1.900e+00 1.900e+00 1.900e+00 1.900e+00 1.900e+00 1.900e+00 1.900e+00 1.900e+00 1.900e+00 1.900e+00 1.900e+00 1.900e+00 1.900e+00 1.900e+00 1.900e+00 1.900e+00 1.900e+00
           </DataArray>
           <DataArray type="Float32" Name="nitrate/Km" NumberOfComponents="1" format="ascii">
 1.610e-02 1.610e-02 1.610e-02 1.610e-02 1.610e-02 1.610e-02 1.610e-02 1.610e-02 1.610e-02 1.610e-02 1.610e-02 1.610e-02 1.610e-02 1.610e-02 1.610e-02 1.610e-02 1.610e-02 1.610e-02 1.610e-02 1.610e-02 1.610e-02 1.610e-02 1.610e-02 1.610e-02 1.610e-02 1.610e-02 1.610e-02 1.610e-02 1.610e-02 1.610e-02 1.610e-02 1.610e-02 1.610e-02 1.610e-02 1.610e-02 1.610e-02 1.610e-02 1.610e-02 1.610e-02 1.610e-02 1.610e-02 1.610e-02 1.610e-02 1.610e-02 1.610e-02 1.610e-02 1.610e-02 1.610e-02 1.610e-02 1.610e-02 1.610e-02 1.610e-02 1.610e-02 1.610e-02 1.610e-02 1.610e-02 1.610e-02 1.610e-02 1.610e-02 1.610e-02 1.610e-02 1.610e-02 1.610e-02 1.610e-02 1.610e-02 1.610e-02 1.610e-02 1.610e-02 1.610e-02 1.610e-02 1.610e-02 1.610e-02 1.610e-02 1.610e-02 1.610e-02 1.610e-02 1.610e-02 1.610e-02 1.610e-02 1.610e-02 1.610e-02 1.610e-02 1.610e-02 1.610e-02 1.610e-02 1.610e-02 1.610e-02 1.610e-02 1.610e-02 1.610e-02 1.610e-02 1.610e-02 1.610e-02 1.610e-02 1.610e-02 1.610e-02 1.610e-02 1.610e-02 1.610e-02 1.610e-02 1.610e-02 1.610e-02 1.610e-02 1.610e-02 1.610e-02 1.610e-02 1.610e-02 1.610e-02 1.610e-02 1.610e-02 1.610e-02 1.610e-02 1.610e-02 1.610e-02 1.610e-02 1.610e-02 1.610e-02 1.610e-02 1.610e-02 1.610e-02 1.610e-02 1.610e-02 1.610e-02 1.610e-02 1.610e-02 1.610e-02 1.610e-02 1.610e-02 1.610e-02 1.610e-02 1.610e-02 1.610e-02 1.610e-02 1.610e-02 1.610e-02 1.610e-02 1.610e-02 1.610e-02 1.610e-02 1.610e-02 1.610e-02 1.610e-02 1.610e-02 1.610e-02 1.610e-02 1.610e-02 1.610e-02 1.610e-02 1.610e-02 1.610e-02 1.610e-02 1.610e-02 1.610e-02 1.610e-02 1.610e-02 1.610e-02 1.610e-02 1.610e-02 1.610e-02 1.610e-02 1.610e-02 1.610e-02 1.610e-02 1.610e-02 1.610e-02 1.610e-02 1.610e-02 1.610e-02 1.610e-02 1.610e-02 1.610e-02 1.610e-02 1.610e-02 1.610e-02 1.610e-02 1.610e-02 1.610e-02 1.610e-02 1.610e-02 1.610e-02 1.610e-02 1.610e-02 1.610e-02 1.610e-02 1.610e-02 1.610e-02 1.610e-02 1.610e-02 1.610e-02 1.610e-02 1.610e-02 1.610e-02 1.610e-02 1.610e-02 1.610e-02 1.610e-02 1.610e-02 1.610e-02 1.610e-02 1.610e-02 1.610e-02 1.610e-02 1.610e-02 1.610e-02 1.610e-02 1.610e-02 1.610e-02 1.610e-02 1.610e-02 1.610e-02 1.610e-02 1.610e-02 1.610e-02 1.610e-02 1.610e-02 1.610e-02 1.610e-02 1.610e-02 1.610e-02 1.610e-02 1.610e-02 1.610e-02 1.610e-02 1.610e-02 1.610e-02 1.610e-02 1.610e-02 1.610e-02 1.610e-02 1.610e-02 1.610e-02 1.610e-02 1.610e-02 1.610e-02 1.610e-02 1.610e-02 1.610e-02 1.610e-02 1.610e-02 1.610e-02 1.610e-02 1.610e-02 1.610e-02 1.610e-02 1.610e-02 1.610e-02 1.610e-02 1.610e-02 1.610e-02 1.610e-02 1.610e-02 1.610e-02 1.610e-02 1.610e-02 1.610e-02 1.610e-02 1.610e-02 1.610e-02 1.610e-02 1.610e-02 1.610e-02 1.610e-02 1.610e-02 1.610e-02 1.610e-02 1.610e-02 1.610e-02 1.610e-02 1.610e-02 1.610e-02 1.610e-02 1.610e-02 1.610e-02 1.610e-02 1.610e-02 1.610e-02 1.610e-02 1.610e-02 1.610e-02 1.610e-02 1.610e-02 1.610e-02 1.610e-02 1.610e-02 1.610e-02 1.610e-02 1.610e-02 1.610e-02 1.610e-02 1.610e-02 1.610e-02 1.610e-02 1.610e-02 1.610e-02 1.610e-02 1.610e-02 1.610e-02 1.610e-02 1.610e-02 1.610e-02 1.610e-02 1.610e-02 1.610e-02 1.610e-02 1.610e-02 1.610e-02 1.610e-02 1.610e-02 1.610e-02 1.610e-02 1.610e-02 1.610e-02 1.610e-02 1.610e-02 1.610e-02 1.610e-02 1.610e-02 1.610e-02 1.610e-02 1.610e-02 1.610e-02 1.610e-02 1.610e-02 1.610e-02 1.610e-02 1.610e-02 1.610e-02 1.610e-02 1.610e-02 1.610e-02
           </DataArray>
           <DataArray type="Float32" Name="nitrate/minimalNutrientConcentration" NumberOfComponents="1" format="ascii">
 6.000e+02 6.000e+02 6.000e+02 6.000e+02 6.000e+02 6.000e+02 6.000e+02 6.000e+02 6.000e+02 6.000e+02 6.000e+02 6.000e+02 6.000e+02 6.000e+02 6.000e+02 6.000e+02 6.000e+02 6.000e+02 6.000e+02 6.000e+02 6.000e+02 6.000e+02 6.000e+02 6.000e+02 6.000e+02 6.000e+02 6.000e+02 6.000e+02 6.000e+02 6.000e+02 6.000e+02 6.000e+02 6.000e+02 6.000e+02 6.000e+02 6.000e+02 6.000e+02 6.000e+02 6.000e+02 6.000e+02 6.000e+02 6.000e+02 6.000e+02 6.000e+02 6.000e+02 6.000e+02 6.000e+02 6.000e+02 6.000e+02 6.000e+02 6.000e+02 6.000e+02 6.000e+02 6.000e+02 6.000e+02 6.000e+02 6.000e+02 6.000e+02 6.000e+02 6.000e+02 6.000e+02 6.000e+02 6.000e+02 6.000e+02 6.000e+02 6.000e+02 6.000e+02 6.000e+02 6.000e+02 6.000e+02 6.000e+02 6.000e+02 6.000e+02 6.000e+02 6.000e+02 6.000e+02 6.000e+02 6.000e+02 6.000e+02 6.000e+02 6.000e+02 6.000e+02 6.000e+02 6.000e+02 6.000e+02 6.000e+02 6.000e+02 6.000e+02 6.000e+02 6.000e+02 6.000e+02 6.000e+02 6.000e+02 6.000e+02 6.000e+02 6.000e+02 6.000e+02 6.000e+02 6.000e+02 6.000e+02 6.000e+02 6.000e+02 6.000e+02 6.000e+02 6.000e+02 6.000e+02 6.000e+02 6.000e+02 6.000e+02 6.000e+02 6.000e+02 6.000e+02 6.000e+02 6.000e+02 6.000e+02 6.000e+02 6.000e+02 6.000e+02 6.000e+02 6.000e+02 6.000e+02 6.000e+02 6.000e+02 6.000e+02 6.000e+02 6.000e+02 6.000e+02 6.000e+02 6.000e+02 6.000e+02 6.000e+02 6.000e+02 6.000e+02 6.000e+02 6.000e+02 6.000e+02 6.000e+02 6.000e+02 6.000e+02 6.000e+02 6.000e+02 6.000e+02 6.000e+02 6.000e+02 6.000e+02 6.000e+02 6.000e+02 6.000e+02 6.000e+02 6.000e+02 6.000e+02 6.000e+02 6.000e+02 6.000e+02 6.000e+02 6.000e+02 6.000e+02 6.000e+02 6.000e+02 6.000e+02 6.000e+02 6.000e+02 6.000e+02 6.000e+02 6.000e+02 6.000e+02 6.000e+02 6.000e+02 6.000e+02 6.000e+02 6.000e+02 6.000e+02 6.000e+02 6.000e+02 6.000e+02 6.000e+02 6.000e+02 6.000e+02 6.000e+02 6.000e+02 6.000e+02 6.000e+02 6.000e+02 6.000e+02 6.000e+02 6.000e+02 6.000e+02 6.000e+02 6.000e+02 6.000e+02 6.000e+02 6.000e+02 6.000e+02 6.000e+02 6.000e+02 6.000e+02 6.000e+02 6.000e+02 6.000e+02 6.000e+02 6.000e+02 6.000e+02 6.000e+02 6.000e+02 6.000e+02 6.000e+02 6.000e+02 6.000e+02 6.000e+02 6.000e+02 6.000e+02 6.000e+02 6.000e+02 6.000e+02 6.000e+02 6.000e+02 6.000e+02 6.000e+02 6.000e+02 6.000e+02 6.000e+02 6.000e+02 6.000e+02 6.000e+02 6.000e+02 6.000e+02 6.000e+02 6.000e+02 6.000e+02 6.000e+02 6.000e+02 6.000e+02 6.000e+02 6.000e+02 6.000e+02 6.000e+02 6.000e+02 6.000e+02 6.000e+02 6.000e+02 6.000e+02 6.000e+02 6.000e+02 6.000e+02 6.000e+02 6.000e+02 6.000e+02 6.000e+02 6.000e+02 6.000e+02 6.000e+02 6.000e+02 6.000e+02 6.000e+02 6.000e+02 6.000e+02 6.000e+02 6.000e+02 6.000e+02 6.000e+02 6.000e+02 6.000e+02 6.000e+02 6.000e+02 6.000e+02 6.000e+02 6.000e+02 6.000e+02 6.000e+02 6.000e+02 6.000e+02 6.000e+02 6.000e+02 6.000e+02 6.000e+02 6.000e+02 6.000e+02 6.000e+02 6.000e+02 6.000e+02 6.000e+02 6.000e+02 6.000e+02 6.000e+02 6.000e+02 6.000e+02 6.000e+02 6.000e+02 6.000e+02 6.000e+02 6.000e+02 6.000e+02 6.000e+02 6.000e+02 6.000e+02 6.000e+02 6.000e+02 6.000e+02 6.000e+02 6.000e+02 6.000e+02 6.000e+02 6.000e+02 6.000e+02 6.000e+02 6.000e+02 6.000e+02 6.000e+02 6.000e+02 6.000e+02 6.000e+02 6.000e+02 6.000e+02 6.000e+02 6.000e+02 6.000e+02 6.000e+02 6.000e+02 6.000e+02 6.000e+02 6.000e+02 6.000e+02 6.000e+02 6.000e+02 6.000e+02 6.000e+02 6.000e+02 6.000e+02 6.000e+02 6.000e+02
           </DataArray>
           <DataArray type="Float32" Name="nitrate/nutrientConcentrationAtTheRootSurface" NumberOfComponents="1" format="ascii">