<?xml version="1.0"?>
<VTKFile type="UnstructuredGrid" version="0.1" byte_order="LittleEndian">
   <UnstructuredGrid>
      <Piece NumberOfPoints="8470" NumberOfCells="578">
         <Points>
            <DataArray type="Float32" Name="Position" NumberOfComponents="3" format="ascii">
-0.053	-5.036	0.146
-0.054	-5.028	0.150
-0.055	-5.019	0.149
-0.056	-5.012	0.142
-0.055	-5.011	0.133
-0.055	-5.015	0.125
-0.053	-5.023	0.121
-0.052	-5.032	0.122
-0.052	-5.039	0.128
-0.052	-5.040	0.137
-0.880	-5.128	0.103
-0.881	-5.120	0.107
-0.881	-5.111	0.106
-0.882	-5.104	0.100
-0.882	-5.102	0.091
-0.881	-5.106	0.082
-0.880	-5.114	0.078
-0.879	-5.123	0.079
-0.879	-5.130	0.085
-0.879	-5.132	0.094
-0.947	-5.132	0.102
-0.948	-5.124	0.107
-0.949	-5.115	0.106
-0.949	-5.108	0.099
-0.949	-5.107	0.090
-0.949	-5.110	0.082
-0.948	-5.119	0.077
-0.948	-5.128	0.079
-0.947	-5.134	0.085
-0.947	-5.136	0.094
-0.097	-5.074	0.253
-0.098	-5.068	0.260
-0.101	-5.065	0.268
-0.105	-5.069	0.276
-0.109	-5.076	0.279
-0.111	-5.085	0.278
-0.110	-5.092	0.272
-0.107	-5.094	0.263
-0.103	-5.091	0.256
-0.099	-5.083	0.252
0.627	-5.298	0.592
0.635	-5.298	0.596
0.644	-5.298	0.595
0.651	-5.298	0.588
0.652	-5.298	0.579
0.648	-5.298	0.571
0.639	-5.298	0.567
0.630	-5.298	0.568
0.624	-5.298	0.575
0.622	-5.298	0.584
-0.534	-5.867	1.285
-0.536	-5.859	1.290
-0.538	-5.850	1.288
-0.539	-5.843	1.282
-0.538	-5.841	1.273
-0.535	-5.845	1.265
-0.533	-5.853	1.260
-0.531	-5.862	1.262
-0.530	-5.869	1.268
-0.531	-5.871	1.277
-1.230	-6.031	1.162
-1.233	-6.024	1.167
-1.235	-6.015	1.166
-1.235	-6.008	1.159
-1.234	-6.006	1.150
-1.232	-6.009	1.142
-1.229	-6.017	1.138
-1.228	-6.026	1.139
-1.227	-6.033	1.145
-1.228	-6.035	1.154
-0.570	-5.973	1.376
-0.566	-5.965	1.379
-0.566	-5.956	1.379
-0.571	-5.949	1.377
-0.579	-5.946	1.373
-0.587	-5.949	1.369
-0.591	-5.957	1.366
-0.591	-5.966	1.366
-0.586	-5.973	1.368
-0.578	-5.976	1.372
-0.799	-5.993	1.822
-0.794	-5.986	1.825
-0.794	-5.976	1.825
-0.800	-5.969	1.823
-0.808	-5.966	1.819
-0.815	-5.969	1.815
-0.820	-5.977	1.812
-0.820	-5.986	1.812
-0.814	-5.993	1.814
-0.806	-5.996	1.818
-0.611	-6.080	1.469
-0.607	-6.072	1.471
-0.607	-6.063	1.471
-0.613	-6.056	1.470
-0.622	-6.054	1.468
-0.630	-6.058	1.466
-0.635	-6.065	1.464
-0.634	-6.075	1.464
-0.628	-6.082	1.465
-0.619	-6.084	1.467
-0.731	-6.106	1.943
-0.726	-6.098	1.945
-0.727	-6.089	1.945
-0.733	-6.082	1.944
-0.742	-6.080	1.942
-0.750	-6.084	1.940
-0.755	-6.091	1.938
-0.754	-6.101	1.938
-0.748	-6.108	1.939
-0.739	-6.110	1.941
-0.652	-6.192	1.564
-0.647	-6.184	1.567
-0.648	-6.175	1.568
-0.653	-6.168	1.566
-0.660	-6.165	1.561
-0.668	-6.168	1.557
-0.672	-6.176	1.554
-0.672	-6.185	1.553
-0.667	-6.192	1.556
-0.659	-6.195	1.560
-0.969	-6.233	2.119
-0.964	-6.225	2.122
-0.965	-6.216	2.123
-0.970	-6.208	2.120
-0.978	-6.206	2.116
-0.985	-6.209	2.112
-0.990	-6.216	2.109
-0.989	-6.225	2.108
-0.984	-6.233	2.110
-0.976	-6.236	2.115
-0.693	-6.285	1.639
-0.686	-6.285	1.645
-0.682	-6.289	1.652
-0.684	-6.294	1.660
-0.690	-6.300	1.664
-0.699	-6.303	1.663
-0.706	-6.303	1.658
-0.710	-6.299	1.650
-0.708	-6.294	1.643
-0.702	-6.288	1.639
-0.513	-6.701	1.363
-0.506	-6.701	1.368
-0.502	-6.705	1.376
-0.504	-6.710	1.383
-0.510	-6.716	1.387
-0.519	-6.719	1.386
-0.526	-6.719	1.381
-0.530	-6.715	1.373
-0.528	-6.709	1.366
-0.522	-6.704	1.362
-0.722	-6.420	1.744
-0.717	-6.412	1.745
-0.718	-6.403	1.745
-0.723	-6.396	1.744
-0.732	-6.394	1.741
-0.740	-6.397	1.739
-0.745	-6.405	1.737
-0.744	-6.414	1.737
-0.739	-6.421	1.739
-0.730	-6.424	1.741
-0.870	-6.434	2.237
-0.865	-6.426	2.239
-0.866	-6.417	2.239
-0.871	-6.409	2.237
-0.880	-6.407	2.235
-0.888	-6.410	2.232
-0.893	-6.418	2.231
-0.892	-6.427	2.230
-0.887	-6.435	2.232
-0.878	-6.437	2.234
-0.763	-6.534	1.843
-0.765	-6.526	1.847
-0.766	-6.517	1.846
-0.766	-6.510	1.839
-0.765	-6.509	1.830
-0.763	-6.512	1.822
-0.762	-6.520	1.818
-0.760	-6.530	1.819
-0.760	-6.536	1.826
-0.761	-6.538	1.835
-1.174	-6.605	1.787
-1.176	-6.597	1.791
-1.178	-6.588	1.790
-1.178	-6.581	1.784
-1.177	-6.579	1.774
-1.175	-6.583	1.766
-1.173	-6.591	1.762
-1.172	-6.600	1.763
-1.172	-6.607	1.770
-1.173	-6.608	1.779
-0.788	-6.632	1.911
-0.790	-6.626	1.917
-0.793	-6.624	1.926
-0.797	-6.629	1.933
-0.799	-6.637	1.937
-0.799	-6.646	1.935
-0.797	-6.652	1.929
-0.794	-6.654	1.920
-0.791	-6.650	1.913
-0.788	-6.641	1.909
-0.380	-6.666	2.069
-0.382	-6.659	2.076
-0.385	-6.658	2.084
-0.388	-6.662	2.092
-0.390	-6.671	2.095
-0.390	-6.680	2.094
-0.388	-6.686	2.087
-0.385	-6.688	2.079
-0.382	-6.683	2.071
-0.380	-6.675	2.067
-0.825	-6.765	2.024
-0.827	-6.757	2.027
-0.827	-6.748	2.024
-0.826	-6.742	2.017
-0.823	-6.741	2.008
-0.821	-6.746	2.001
-0.819	-6.755	1.998
-0.819	-6.764	2.000
-0.820	-6.770	2.007
-0.822	-6.770	2.016
-1.251	-6.812	1.913
-1.253	-6.804	1.916
-1.253	-6.795	1.914
-1.252	-6.789	1.907
-1.250	-6.788	1.898
-1.247	-6.793	1.890
-1.246	-6.802	1.887
-1.245	-6.811	1.890
-1.247	-6.817	1.897
-1.249	-6.817	1.906
-0.843	-6.886	2.104
-0.838	-6.878	2.105
-0.838	-6.869	2.106
-0.844	-6.861	2.104
-0.852	-6.859	2.101
-0.860	-6.862	2.098
-0.865	-6.870	2.096
-0.865	-6.879	2.096
-0.859	-6.886	2.097
-0.851	-6.889	2.100
-0.979	-6.894	2.475
-0.974	-6.886	2.477
-0.975	-6.877	2.477
-0.980	-6.870	2.476
-0.988	-6.867	2.473
-0.996	-6.870	2.469
-1.001	-6.878	2.468
-1.001	-6.887	2.467
-0.995	-6.895	2.469
-0.987	-6.897	2.472
-0.146	-5.141	0.380
-0.147	-5.133	0.384
-0.151	-5.130	0.392
-0.156	-5.132	0.399
-0.161	-5.139	0.404
-0.162	-5.148	0.403
-0.161	-5.156	0.399
-0.157	-5.159	0.391
-0.152	-5.157	0.384
-0.147	-5.150	0.379
0.387	-5.257	0.720
0.385	-5.249	0.725
0.381	-5.246	0.733
0.376	-5.248	0.740
0.372	-5.255	0.744
0.370	-5.264	0.744
0.372	-5.272	0.739
0.376	-5.275	0.731
0.381	-5.273	0.724
0.385	-5.266	0.720
-0.873	-6.987	2.176
-0.874	-6.980	2.182
-0.877	-6.977	2.190
-0.882	-6.980	2.198
-0.885	-6.988	2.202
-0.887	-6.997	2.201
-0.886	-7.004	2.195
-0.883	-7.006	2.187
-0.878	-7.003	2.179
-0.875	-6.996	2.175
-0.619	-7.051	2.298
-0.620	-7.044	2.304
-0.624	-7.042	2.312
-0.628	-7.045	2.319
-0.632	-7.052	2.323
-0.634	-7.061	2.322
-0.633	-7.068	2.316
-0.629	-7.071	2.308
-0.625	-7.068	2.300
-0.621	-7.060	2.296
-0.908	-7.124	2.281
-0.911	-7.117	2.287
-0.914	-7.109	2.287
-0.917	-7.101	2.283
-0.918	-7.098	2.274
-0.916	-7.100	2.265
-0.913	-7.106	2.259
-0.910	-7.115	2.258
-0.907	-7.122	2.263
-0.906	-7.126	2.272
-1.240	-7.257	2.260
-1.243	-7.251	2.266
-1.247	-7.243	2.267
-1.249	-7.235	2.262
-1.250	-7.232	2.254
-1.249	-7.233	2.245
-1.246	-7.240	2.239
-1.243	-7.248	2.238
-1.240	-7.256	2.243
-1.239	-7.259	2.251
-0.943	-7.222	2.345
-0.935	-7.223	2.350
-0.930	-7.227	2.357
-0.931	-7.233	2.363
-0.937	-7.239	2.368
-0.946	-7.242	2.368
-0.954	-7.241	2.363
-0.958	-7.237	2.357
-0.958	-7.231	2.350
-0.952	-7.225	2.345
-0.878	-7.400	2.195
-0.870	-7.401	2.200
-0.865	-7.405	2.207
-0.866	-7.411	2.214
-0.872	-7.417	2.218
-0.881	-7.420	2.218
-0.889	-7.419	2.214
-0.893	-7.415	2.207
-0.893	-7.409	2.200
-0.887	-7.403	2.196
-0.976	-7.369	2.441
-0.977	-7.361	2.446
-0.979	-7.352	2.445
-0.980	-7.345	2.439
-0.980	-7.343	2.430
-0.979	-7.347	2.421
-0.977	-7.354	2.416
-0.975	-7.363	2.417
-0.974	-7.370	2.423
-0.974	-7.373	2.432
-1.265	-7.414	2.402
-1.261	-7.414	2.411
-1.262	-7.414	2.420
-1.269	-7.414	2.426
-1.278	-7.414	2.428
-1.286	-7.414	2.424
-1.290	-7.414	2.415
-1.289	-7.414	2.406
-1.282	-7.414	2.400
-1.273	-7.414	2.398
-1.001	-7.482	2.493
-1.001	-7.474	2.498
-1.004	-7.471	2.506
-1.010	-7.472	2.513
-1.015	-7.478	2.517
-1.019	-7.487	2.516
-1.019	-7.495	2.511
-1.015	-7.499	2.503
-1.009	-7.497	2.496
-1.004	-7.491	2.492
-0.811	-7.567	2.622
-0.812	-7.559	2.627
-0.815	-7.556	2.635
-0.821	-7.557	2.642
-0.826	-7.563	2.646
-0.830	-7.572	2.645
-0.830	-7.580	2.640
-0.826	-7.583	2.632
-0.820	-7.582	2.625
-0.815	-7.576	2.621
-1.037	-7.627	2.575
-1.032	-7.619	2.578
-1.033	-7.610	2.578
-1.037	-7.602	2.575
-1.045	-7.600	2.571
-1.052	-7.603	2.566
-1.057	-7.610	2.563
-1.057	-7.619	2.563
-1.052	-7.627	2.565
-1.044	-7.630	2.570
-1.169	-7.634	2.784
-1.169	-7.626	2.788
-1.169	-7.617	2.787
-1.169	-7.610	2.780
-1.169	-7.609	2.771
-1.169	-7.613	2.763
-1.169	-7.621	2.759
-1.169	-7.630	2.760
-1.169	-7.637	2.767
-1.169	-7.638	2.776
-1.080	-7.735	2.624
-1.071	-7.735	2.628
-1.066	-7.740	2.634
-1.066	-7.746	2.641
-1.071	-7.752	2.645
-1.080	-7.756	2.646
-1.088	-7.755	2.642
-1.094	-7.751	2.636
-1.094	-7.744	2.629
-1.089	-7.738	2.625
-1.026	-7.888	2.471
-1.017	-7.888	2.474
-1.012	-7.893	2.480
-1.012	-7.899	2.487
-1.017	-7.906	2.491
-1.026	-7.909	2.492
-1.034	-7.909	2.488
-1.040	-7.904	2.482
-1.040	-7.898	2.476
-1.035	-7.891	2.471
-1.114	-7.867	2.687
-1.107	-7.867	2.692
-1.103	-7.871	2.700
-1.104	-7.876	2.707
-1.111	-7.882	2.711
-1.119	-7.885	2.710
-1.127	-7.885	2.705
-1.131	-7.882	2.697
-1.129	-7.876	2.690
-1.123	-7.871	2.686
-1.039	-8.025	2.576
-1.031	-8.025	2.581
-1.027	-8.028	2.589
-1.029	-8.034	2.596
-1.035	-8.040	2.600
-1.043	-8.043	2.599
-1.051	-8.043	2.594
-1.055	-8.040	2.586
-1.053	-8.034	2.579
-1.047	-8.028	2.575
-1.156	-8.017	2.773
-1.160	-8.008	2.775
-1.161	-7.999	2.772
-1.159	-7.994	2.765
-1.156	-7.993	2.756
-1.152	-7.998	2.749
-1.148	-8.006	2.747
-1.147	-8.015	2.750
-1.149	-8.021	2.757
-1.152	-8.021	2.766
-1.272	-8.049	2.723
-1.275	-8.041	2.726
-1.277	-8.032	2.723
-1.275	-8.026	2.716
-1.272	-8.026	2.707
-1.267	-8.030	2.700
-1.264	-8.039	2.698
-1.263	-8.047	2.701
-1.264	-8.053	2.708
-1.268	-8.054	2.717
-1.181	-8.152	2.825
-1.176	-8.145	2.827
-1.176	-8.136	2.827
-1.181	-8.128	2.825
-1.189	-8.125	2.821
-1.197	-8.128	2.817
-1.201	-8.136	2.814
-1.201	-8.145	2.814
-1.196	-8.153	2.816
-1.189	-8.155	2.820
-1.239	-8.155	2.933
-1.235	-8.147	2.936
-1.235	-8.138	2.936
-1.240	-8.130	2.933
-1.247	-8.128	2.929
-1.255	-8.131	2.925
-1.260	-8.138	2.922
-1.260	-8.147	2.922
-1.255	-8.155	2.925
-1.247	-8.158	2.929
-0.203	-5.229	0.522
-0.205	-5.221	0.527
-0.207	-5.212	0.526
-0.208	-5.205	0.520
-0.207	-5.203	0.511
-0.206	-5.207	0.502
-0.204	-5.214	0.498
-0.202	-5.223	0.498
-0.201	-5.230	0.505
-0.202	-5.232	0.514
-1.055	-5.400	0.439
-1.057	-5.393	0.443
-1.059	-5.384	0.443
-1.060	-5.377	0.436
-1.060	-5.374	0.427
-1.058	-5.378	0.419
[...]
         <CellData>
           <DataArray type="Float32" Name="combinedRootClassID" NumberOfComponents="1" format="ascii">
 -1.300e+01 -1.300e+01 -1.300e+01 -1.300e+01 -1.300e+01 -1.300e+01 -1.300e+01 -1.300e+01 -1.300e+01 -1.300e+01 -1.300e+01 -1.300e+01 -1.300e+01 -1.300e+01 -1.300e+01 -1.300e+01 -1.300e+01 -1.300e+01 -1.300e+01 -1.300e+01 -1.300e+01 -1.300e+01 -1.300e+01 -1.300e+01 -1.300e+01 -1.300e+01 -1.300e+01 -1.300e+01 -1.300e+01 -1.300e+01 -1.300e+01 -1.300e+01 -1.300e+01 -1.300e+01 -1.300e+01 -1.300e+01 -1.300e+01 -5.000e+00 -5.000e+00 -5.000e+00 -5.000e+00 -5.000e+00 -5.000e+00 -5.000e+00 -5.000e+00 -5.000e+00 -5.000e+00 -5.000e+00 -5.000e+00 -5.000e+00 -5.000e+00 -5.000e+00 -5.000e+00 -5.000e+00 -5.000e+00 -1.300e+01 -1.300e+01 -1.300e+01 -1.300e+01 -1.300e+01 -1.300e+01 -1.300e+01 -1.300e+01 -1.300e+01 -1.300e+01 -1.300e+01 -1.300e+01 -1.300e+01 -1.300e+01 -1.300e+01 -1.300e+01 -1.300e+01 -1.300e+01 -1.300e+01 -1.300e+01 -1.300e+01 -1.300e+01 -1.300e+01 -1.300e+01 -1.300e+01 -1.300e+01 -1.300e+01 -1.300e+01 -1.300e+01 -1.300e+01 -1.300e+01 -1.300e+01 -1.300e+01 -1.300e+01 -1.300e+01 -1.300e+01 -1.300e+01 -5.000e+00 -5.000e+00 -5.000e+00 -5.000e+00 -5.000e+00 -5.000e+00 -5.000e+00 -5.000e+00 -5.000e+00 -5.000e+00 -5.000e+00 -5.000e+00 -5.000e+00 -5.000e+00 -5.000e+00 -5.000e+00 -5.000e+00 -5.000e+00 -1.300e+01 -1.300e+01 -1.300e+01 -1.300e+01 -1.300e+01 -1.300e+01 -1.300e+01 -1.300e+01 -1.300e+01 -1.300e+01 -1.300e+01 -1.300e+01 -1.300e+01 -1.300e+01 -1.300e+01 -1.300e+01 -1.300e+01 -1.300e+01 -1.300e+01 -1.300e+01 -1.300e+01 -1.300e+01 -1.300e+01 -1.300e+01 -1.300e+01 -1.300e+01 -1.300e+01 -1.300e+01 -1.300e+01 -1.300e+01 -1.300e+01 -1.300e+01 -1.300e+01 -1.300e+01 -1.300e+01 -1.300e+01 -5.000e+00 -5.000e+00 -5.000e+00 -5.000e+00 -5.000e+00 -5.000e+00 -5.000e+00 -5.000e+00 -5.000e+00 -5.000e+00 -5.000e+00 -5.000e+00 -5.000e+00 -5.000e+00 -5.000e+00 -5.000e+00 -5.000e+00 -5.000e+00 -1.300e+01 -1.300e+01 -1.300e+01 -1.300e+01 -1.300e+01 -1.300e+01 -1.300e+01 -1.300e+01 -1.300e+01 -1.300e+01 -1.300e+01 -1.300e+01 -1.300e+01 -1.300e+01 -1.300e+01 -1.300e+01 -1.300e+01 -1.300e+01 -1.300e+01 -1.300e+01 -1.300e+01 -1.300e+01 -1.300e+01 -1.300e+01 -1.300e+01 -1.300e+01 -1.300e+01 -1.300e+01 -1.300e+01 -1.300e+01 -1.300e+01 -1.300e+01 -1.300e+01 -1.300e+01 -1.300e+01 -1.300e+01 -1.300e+01 -5.000e+00 -5.000e+00 -5.000e+00 -5.000e+00 -5.000e+00 -5.000e+00 -5.000e+00 -5.000e+00 -5.000e+00 -5.000e+00 -5.000e+00 -5.000e+00 -5.000e+00 -5.000e+00 -5.000e+00 -5.000e+00 -5.000e+00 -5.000e+00 -1.100e+01 -1.100e+01 -1.100e+01 -1.100e+01 -1.100e+01 -1.100e+01 -1.100e+01 -1.100e+01 -1.100e+01 -1.100e+01 -1.100e+01 -1.100e+01 -1.100e+01 -1.100e+01 -1.100e+01 -1.100e+01 -1.100e+01 -1.100e+01 -1.100e+01 -1.100e+01 -1.100e+01 -1.100e+01 -1.100e+01 -1.100e+01 -1.100e+01 -1.100e+01 -1.100e+01 -1.100e+01 -2.000e+00 -2.000e+00 -2.000e+00 -2.000e+00 -2.000e+00 -2.000e+00 -2.000e+00 -2.000e+00 -2.000e+00 -2.000e+00 -7.000e+00 -7.000e+00 -7.000e+00 -7.000e+00 -7.000e+00 -7.000e+00 -7.000e+00 -7.000e+00 -7.000e+00 -7.000e+00 -7.000e+00 -7.000e+00 -7.000e+00 -7.000e+00 -7.000e+00 -7.000e+00 -7.000e+00 -7.000e+00 -7.000e+00 -7.000e+00 -7.000e+00 -7.000e+00 -7.000e+00 -7.000e+00 -7.000e+00 -7.000e+00 -7.000e+00 -7.000e+00 -7.000e+00 -7.000e+00 -7.000e+00 -7.000e+00 -7.000e+00 -7.000e+00 -7.000e+00 -7.000e+00 -7.000e+00 -7.000e+00 -7.000e+00 -7.000e+00 -7.000e+00 -7.000e+00 -7.000e+00 -7.000e+00 -7.000e+00 -7.000e+00 -7.000e+00 -7.000e+00 -7.000e+00 -7.000e+00 -7.000e+00 -7.000e+00 -7.000e+00 -7.000e+00 -7.000e+00 -7.000e+00 -7.000e+00 -7.000e+00 -7.000e+00 -7.000e+00 -7.000e+00 -7.000e+00 -7.000e+00 -7.000e+00 -7.000e+00 -7.000e+00 -7.000e+00 -7.000e+00 -7.000e+00 -7.000e+00 -7.000e+00 -7.000e+00 -7.000e+00 -7.000e+00 -7.000e+00 -7.000e+00 -7.000e+00 -7.000e+00 -7.000e+00 -7.000e+00 -7.000e+00 -7.000e+00 -7.000e+00 -7.000e+00 -7.000e+00 -7.000e+00 -7.000e+00 -7.000e+00 -7.000e+00 -7.000e+00 -7.000e+00 -7.000e+00 -7.000e+00 -7.000e+00 -7.000e+00 -7.000e+00 -7.000e+00 -7.000e+00 -7.000e+00 -7.000e+00 -7.000e+00 -7.000e+00 -7.000e+00 -7.000e+00 -7.000e+00 -7.000e+00 -7.000e+00 -7.000e+00 -7.000e+00 -7.000e+00 -7.000e+00 -7.000e+00 -7.000e+00 -7.000e+00 -7.000e+00 -7.000e+00 -7.000e+00 -7.000e+00 -7.000e+00 -7.000e+00 -7.000e+00 -7.000e+00 -7.000e+00 -7.000e+00 -7.000e+00 -7.000e+00 -7.000e+00 -7.000e+00 -7.000e+00 -7.000e+00 -7.000e+00 -7.000e+00 -7.000e+00 -7.000e+00 -7.000e+00 -7.000e+00 -7.000e+00 -7.000e+00 -7.000e+00 -7.000e+00 -7.000e+00 -7.000e+00 -7.000e+00 -7.000e+00 -7.000e+00 -7.000e+00 -7.000e+00 -7.000e+00 -7.000e+00 -7.000e+00 -7.000e+00 -7.000e+00 -7.000e+00 -7.000e+00 -7.000e+00 -7.000e+00 -7.000e+00 -7.000e+00 -7.000e+00 -7.000e+00 -7.000e+00 -7.000e+00 -7.000e+00 -7.000e+00 -7.000e+00 -7.000e+00 -7.000e+00 -7.000e+00 -7.000e+00 -7.000e+00 -7.000e+00 -7.000e+00 -7.000e+00 -7.000e+00 -7.000e+00 -7.000e+00 -7.000e+00 -7.000e+00 -7.000e+00 -7.000e+00 -7.000e+00 -7.000e+00 -7.000e+00 -7.000e+00 -7.000e+00 -7.000e+00 -7.000e+00 -7.000e+00 -7.000e+00 -7.000e+00 -7.000e+00 -7.000e+00 -7.000e+00 -7.000e+00 -7.000e+00 -7.000e+00 -7.000e+00 -7.000e+00 -7.000e+00 -7.000e+00 -7.000e+00 -7.000e+00 -7.000e+00 -7.000e+00 -7.000e+00 -7.000e+00 -7.000e+00 -7.000e+00 -7.000e+00 -7.000e+00 -7.000e+00 -7.000e+00 -7.000e+00 -7.000e+00 -7.000e+00 -7.000e+00 -7.000e+00 -7.000e+00 -7.000e+00 -7.000e+00 -7.000e+00 -7.000e+00 -7.000e+00 -7.000e+00 -7.000e+00 -7.000e+00 -7.000e+00 -7.000e+00 -7.000e+00 -7.000e+00 -7.000e+00 -7.000e+00 -7.000e+00 -7.000e+00 -7.000e+00 -7.000e+00 -7.000e+00 -7.000e+00 -7.000e+00 -7.000e+00 -7.000e+00 -7.000e+00 -7.000e+00 -7.000e+00 -7.000e+00 -7.000e+00 -7.000e+00 -7.000e+00 -7.000e+00 -7.000e+00 -7.000e+00 -7.000e+00 -7.000e+00 -7.000e+00 -7.000e+00 -7.000e+00 -7.000e+00 -7.000e+00 -7.000e+00 -7.000e+00 -7.000e+00 -7.000e+00 -7.000e+00 -7.000e+00 -7.000e+00 -7.000e+00 -7.000e+00 -7.000e+00 -7.000e+00 -7.000e+00 -7.000e+00 -7.000e+00 -7.000e+00 -7.000e+00 -7.000e+00 -7.000e+00 -7.000e+00 -7.000e+00 -7.000e+00 -9.000e+00 -9.000e+00 -9.000e+00 -9.000e+00 -9.000e+00 -9.000e+00 -9.000e+00 -9.000e+00 -9.000e+00 -9.000e+00 -9.000e+00 -9.000e+00 -4.000e+00 -4.000e+00 -4.000e+00 -4.000e+00 -4.000e+00 -4.000e+00 -4.000e+00 -4.000e+00 -4.000e+00 -4.000e+00 -4.000e+00 -4.000e+00 -4.000e+00 -4.000e+00 -4.000e+00 -4.000e+00 -4.000e+00 -4.000e+00 -4.000e+00 -4.000e+00 -4.000e+00 -4.000e+00 -4.000e+00 -4.000e+00 -4.000e+00 -4.000e+00 -4.000e+00 -4.000e+00 -4.000e+00 -4.000e+00
           </DataArray>
           <DataArray type="Float32" Name="nitrate/Cmin" NumberOfComponents="1" format="ascii">
 1.000e-03 1.000e-03 1.000e-03 1.000e-03 1.000e-03 1.000e-03 1.000e-03 1.000e-03 1.000e-03 1.000e-03 1.000e-03 1.000e-03 1.000e-03 1.000e-03 1.000e-03 1.000e-03 1.000e-03 1.000e-03 1.000e-03 1.000e-03 1.000e-03 1.000e-03 1.000e-03 1.000e-03 1.000e-03 1.000e-03 1.000e-03 1.000e-03 1.000e-03 1.000e-03 1.000e-03 1.000e-03 1.000e-03 1.000e-03 1.000e-03 1.000e-03 1.000e-03 1.000e-03 1.000e-03 1.000e-03 1.000e-03 1.000e-03 1.000e-03 1.000e-03 1.000e-03 1.000e-03 1.000e-03 1.000e-03 1.000e-03 1.000e-03 1.000e-03 1.000e-03 1.000e-03 1.000e-03 1.000e-03 1.000e-03 1.000e-03 1.000e-03 1.000e-03 1.000e-03 1.000e-03 1.000e-03 1.000e-03 1.000e-03 1.000e-03 1.000e-03 1.000e-03 1.000e-03 1.000e-03 1.000e-03 1.000e-03 1.000e-03 1.000e-03 1.000e-03 1.000e-03 1.000e-03 1.000e-03 1.000e-03 1.000e-03 1.000e-03 1.000e-03 1.000e-03 1.000e-03 1.000e-03 1.000e-03 1.000e-03 1.000e-03 1.000e-03 1.000e-03 1.000e-03 1.000e-03 1.000e-03 1.000e-03 1.000e-03 1.000e-03 1.000e-03 1.000e-03 1.000e-03 1.000e-03 1.000e-03 1.000e-03 1.000e-03 1.000e-03 1.000e-03 1.000e-03 1.000e-03 1.000e-03 1.000e-03 1.000e-03 1.000e-03 1.000e-03 1.000e-03 1.000e-03 1.000e-03 1.000e-03 1.000e-03 1.000e-03 1.000e-03 1.000e-03 1.000e-03 1.000e-03 1.000e-03 1.000e-03 1.000e-03 1.000e-03 1.000e-03 1.000e-03 1.000e-03 1.000e-03 1.000e-03 1.000e-03 1.000e-03 1.000e-03 1.000e-03 1.000e-03 1.000e-03 1.000e-03 1.000e-03 1.000e-03 1.000e-03 1.000e-03 1.000e-03 1.000e-03 1.000e-03 1.000e-03 1.000e-03 1.000e-03 1.000e-03 1.000e-03 1.000e-03 1.000e-03 1.000e-03 1.000e-03 1.000e-03 1.000e-03 1.000e-03 1.000e-03 1.000e-03 1.000e-03 1.000e-03 1.000e-03 1.000e-03 1.000e-03 1.000e-03 1.000e-03 1.000e-03 1.000e-03 1.000e-03 1.000e-03 1.000e-03 1.000e-03 1.000e-03 1.000e-03 1.000e-03 1.000e-03 1.000e-03 1.000e-03 1.000e-03 1.000e-03 1.000e-03 1.000e-03 1.000e-03 1.000e-03 1.000e-03 1.000e-03 1.000e-03 1.000e-03 1.000e-03 1.000e-03 1.000e-03 1.000e-03 1.000e-03 1.000e-03 1.000e-03 1.000e-03 1.000e-03 1.000e-03 1.000e-03 1.000e-03 1.000e-03 1.000e-03 1.000e-03 1.000e-03 1.000e-03 1.000e-03 1.000e-03 1.000e-03 1.000e-03 1.000e-03 1.000e-03 1.000e-03 1.000e-03 1.000e-03 1.000e-03 1.000e-03 1.000e-03 1.000e-03 1.000e-03 1.000e-03 1.000e-03 1.000e-03 1.000e-03 1.000e-03 1.000e-03 1.000e-03 1.000e-03 1.000e-03 1.000e-03 1.000e-03 1.000e-03 1.000e-03 1.000e-03 1.000e-03 1.000e-03 1.000e-03 1.000e-03 1.000e-03 1.000e-03 1.000e-03 1.000e-03 1.000e-03 1.000e-03 1.000e-03 1.000e-03 1.000e-03 1.000e-03 1.000e-03 1.000e-03 1.000e-03 1.000e-03 1.000e-03 1.000e-03 1.000e-03 1.000e-03 1.000e-03 1.000e-03 1.000e-03 1.000e-03 1.000e-03 1.000e-03 1.000e-03 1.000e-03 1.000e-03 1.000e-03 1.000e-03 1.000e-03 1.000e-03 1.000e-03 1.000e-03 1.000e-03 1.000e-03 1.000e-03 1.000e-03 1.000e-03 1.000e-03 1.000e-03 1.000e-03 1.000e-03 1.000e-03 1.000e-03 1.000e-03 1.000e-03 1.000e-03 1.000e-03 1.000e-03 1.000e-03 1.000e-03 1.000e-03 1.000e-03 1.000e-03 1.000e-03 1.000e-03 1.000e-03 1.000e-03 1.000e-03 1.000e-03 1.000e-03 1.000e-03 1.000e-03 1.000e-03 1.000e-03 1.000e-03 1.000e-03 1.000e-03 1.000e-03 1.000e-03 1.000e-03 1.000e-03 1.000e-03 1.000e-03 1.000e-03 1.000e-03 1.000e-03 1.000e-03 1.000e-03 1.000e-03 1.000e-03 1.000e-03 1.000e-03 1.000e-03 1.000e-03 1.000e-03 1.000e-03 1.000e-03 1.000e-03 1.000e-03 1.000e-03 1.000e-03 1.000e-03 1.000e-03 1.000e-03 1.000e-03 1.000e-03 1.000e-03 1.000e-03 1.000e-03 1.000e-03 1.000e-03 1.000e-03 1.000e-03 1.000e-03 1.000e-03 1.000e-03 1.000e-03 1.000e-03 1.000e-03 1.000e-03 1.000e-03 1.000e-03 1.000e-03 1.000e-03 1.000e-03 1.000e-03 1.000e-03 1.000e-03 1.000e-03 1.000e-03 1.000e-03 1.000e-03 1.000e-03 1.000e-03 1.000e-03 1.000e-03 1.000e-03 1.000e-03 1.000e-03 1.000e-03 1.000e-03 1.000e-03 1.000e-03 1.000e-03 1.000e-03 1.000e-03 1.000e-03 1.000e-03 1.000e-03 1.000e-03 1.000e-03 1.000e-03 1.000e-03 1.000e-03 1.000e-03 1.000e-03 1.000e-03 1.000e-03 1.000e-03 1.000e-03 1.000e-03 1.000e-03 1.000e-03 1.000e-03 1.000e-03 1.000e-03 1.000e-03 1.000e-03 1.000e-03 1.000e-03 1.000e-03 1.000e-03 1.000e-03 1.000e-03 1.000e-03 1.000e-03 1.000e-03 1.000e-03 1.000e-03 1.000e-03 1.000e-03 1.000e-03 1.000e-03 1.000e-03 1.000e-03 1.000e-03 1.000e-03 1.000e-03 1.000e-03 1.000e-03 1.000e-03 1.000e-03 1.000e-03 1.000e-03 1.000e-03 1.000e-03 1.000e-03 1.000e-03 1.000e-03 1.000e-03 1.000e-03 1.000e-03 1.000e-03 1.000e-03 1.000e-03 1.000e-03 1.000e-03 1.000e-03 1.000e-03 1.000e-03 1.000e-03 1.000e-03 1.000e-03 1.000e-03 1.000e-03 1.000e-03 1.000e-03 1.000e-03 1.000e-03 1.000e-03 1.000e-03 1.000e-03 1.000e-03 1.000e-03 1.000e-03 1.000e-03 1.000e-03 1.000e-03 1.000e-03 1.000e-03 1.000e-03 1.000e-03 1.000e-03 1.000e-03 1.000e-03 1.000e-03 1.000e-03 1.000e-03 1.000e-03 1.000e-03 1.000e-03 1.000e-03 1.000e-03 1.000e-03 1.000e-03 1.000e-03 1.000e-03 1.000e-03 1.000e-03 1.000e-03 1.000e-03 1.000e-03 1.000e-03 1.000e-03 1.000e-03 1.000e-03 1.000e-03 1.000e-03 1.000e-03 1.000e-03 1.000e-03 1.000e-03 1.000e-03 1.000e-03 1.000e-03 1.000e-03 1.000e-03 1.000e-03 1.000e-03 1.000e-03 1.000e-03 1.000e-03 1.000e-03 1.000e-03 1.000e-03 1.000e-03 1.000e-03 1.000e-03 1.000e-03 1.000e-03 1.000e-03 1.000e-03 1.000e-03 1.000e-03 1.000e-03 1.000e-03 1.000e-03 1.000e-03 1.000e-03 1.000e-03 1.000e-03 1.000e-03 1.000e-03 1.000e-03 1.000e-03 1.000e-03 1.000e-03 1.000e-03 1.000e-03 1.000e-03 1.000e-03 1.000e-03 1.000e-03 1.000e-03 1.000e-03 1.000e-03 1.000e-03 1.000e-03 1.000e-03 1.000e-03 1.000e-03 1.000e-03 1.000e-03 1.000e-03 1.000e-03 1.000e-03 1.000e-03 1.000e-03 1.000e-03 1.000e-03 1.000e-03 1.000e-03 1.000e-03 1.000e-03 1.000e-03 1.000e-03 1.000e-03 1.000e-03 1.000e-03 1.000e-03 1.000e-03 1.000e-03 1.000e-03 1.000e-03 1.000e-03 1.000e-03 1.000e-03 1.000e-03 1.000e-03 1.000e-03 1.000e-03 1.000e-03 1.000e-03 1.000e-03 1.000e-03 1.000e-03 1.000e-03 1.000e-03 1.000e-03 1.000e-03 1.000e-03
           </DataArray>
           <DataArray type="Float32" Name="nitrate/Imax" NumberOfComponents="1" format="ascii">
 1.900e+00 1.900e+00 1.900e+00 1.900e+00 1.900e+00 1.900e+00 1.900e+00 1.900e+00 1.900e+00 1.900e+00 1.900e+00 1.900e+00 1.900e+00 1.900e+00 1.900e+00 1.900e+00 1.900e+00 1.900e+00 1.900e+00 1.900e+00 1.900e+00 1.900e+00 1.900e+00 1.900e+00 1.900e+00 1.900e+00 1.900e+00 1.900e+00 1.900e+00 1.900e+00 1.900e+00 1.900e+00 1.900e+00 1.900e+00 1.900e+00 1.900e+00 1.900e+00 1.900e+00 1.900e+00 1.900e+00 1.900e+00 1.900e+00 1.900e+00 1.900e+00 1.900e+00 1.900e+00 1.900e+00 1.900e+00 1.900e+00 1.900e+00 1.900e+00 1.900e+00 1.900e+00 1.900e+00 1.900e+00 1.900e+00 1.900e+00 1.900e+00 1.900e+00 1.900e+00 1.900e+00 1.900e+00 1.900e+00 1.900e+00 1.900e+00 1.900e+00 1.900e+00 1.900e+00 1.900e+00 1.900e+00 1.900e+00 1.900e+00 1.900e+00 1.900e+00 1.900e+00 1.900e+00 1.900e+00 1.900e+00 1.900e+00 1.900e+00 1.900e+00 1.900e+00 1.900e+00 1.900e+00 1.900e+00 1.900e+00 1.900e+00 1.900e+00 1.900e+00 1.900e+00 1.900e+00 1.900e+00 1.900e+00 1.900e+00 1.900e+00 1.900e+00 1.900e+00 1.900e+00 1.900e+00 1.900e+00 1.900e+00 1.900e+00 1.900e+00 1.900e+00 1.900e+00 1.900e+00 1.900e+00 1.900e+00 1.900e+00 1.900e+00 1.900e+00 1.900e+00 1.900e+00 1.900e+00 1.900e+00 1.900e+00 1.900e+00 1.900e+00 1.900e+00 1.900e+00 1.900e+00 1.900e+00 1.900e+00 1.900e+00 1.900e+00 1.900e+00 1.900e+00 1.900e+00 1.900e+00 1.900e+00 1.900e+00 1.900e+00 1.900e+00 1.900e+00 1.900e+00 1.900e+00 1.900e+00 1.900e+00 1.900e+00 1.900e+00 1.900e+00 1.900e+00 1.900e+00 1.900e+00 1.900e+00 1.900e+00 1.900e+00 1.900e+00 1.900e+00 1.900e+00 1.900e+00 1.900e+00 1.900e+00 1.900e+00 1.900e+00 1.900e+00 1.900e+00 1.900e+00 1.900e+00 1.900e+00 1.900e+00 1.900e+00 1.900e+00 1.900e+00 1.900e+00 1.900e+00 1.900e+00 1.900e+00 1.900e+00 1.900e+00 1.900e+00 1.900e+00 1.900e+00 1.900e+00 1.900e+00 1.900e+00 1.900e+00 1.900e+00 1.900e+00 1.900e+00 1.900e+00 1.900e+00 1.900e+00 1.900e+00 1.900e+00 1.900e+00 1.900e+00 1.900e+00 1.900e+00 1.900e+00 1.900e+00 1.900e+00 1.900e+00 1.900e+00 1.900e+00 1.900e+00 1.900e+00 1.900e+00 1.900e+00 1.900e+00 1.900e+00 1.900e+00 1.900e+00 1.900e+00 1.900e+00 1.900e+00 1.900e+00 1.900e+00 1.900e+00 1.900e+00 1.900e+00 1.900e+00 1.900e+00 1.900e+00 1.900e+00 1.900e+00 1.900e+00 1.900e+00 1.900e+00 1.900e+00 1.900e+00 1.900e+00 1.900e+00 1.900e+00 1.900e+00 1.900e+00 1.900e+00 1.900e+00 1.900e+00 1.900e+00 1.900e+00 1.900e+00 1.900e+00 1.900e+00 1.900e+00 1.900e+00 1.900e+00 1.900e+00 1.900e+00 1.900e+00 1.900e+00 1.900e+00 1.900e+00 1.900e+00 1.900e+00 1.900e+00 1.900e+00 1.900e+00 1.900e+00 1.900e+00 1.900e+00 1.900e+00 1.900e+00 1.900e+00 1.900e+00 1.900e+00 1.900e+00 1.900e+00 1.900e+00 1.900e+00 1.900e+00 1.900e+00 1.900e+00 1.900e+00 1.900e+00 1.900e+00 1.900e+00 1.900e+00 1.900e+00 1.900e+00 1.900e+00 1.900e+00 1.900e+00 1.900e+00 1.900e+00 1.900e+00 1.900e+00 1.900e+00 1.900e+00 1.900e+00 1.900e+00 1.900e+00 1.900e+00 1.900e+00 1.900e+00 1.900e+00 1.900e+00 1.900e+00 1.900e+00 1.900e+00 1.900e+00 1.900e+00 1.900e+00 1.900e+00 1.900e+00 1.900e+00 1.900e+00 1.900e+00 1.900e+00 1.900e+00 1.900e+00 1.900e+00 1.900e+00 1.900e+00 1.900e+00 1.900e+00 1.900e+00 1.900e+00 1.900e+00 1.900e+00 1.900e+00 1.900e+00 1.900e+00 1.900e+00 1.900e+00 1.900e+00 1.900e+00 1.900e+00 1.900e+00 1.900e+00 1.900e+00 1.900e+00 1.900e+00 1.900e+00 1.900e+00 1.900e+00 1.900e+00 1.900e+00 1.900e+00 1.900e+00 1.900e+00 1.900e+00 1.900e+00 1.900e+00 1.900e+00 1.900e+00 1.900e+00 1.900e+00 1.900e+00 1.900e+00 1.900e+00 1.900e+00 1.900e+00 1.900e+00 1.900e+00 1.900e+00 1.900e+00 1.900e+00 1.900e+00 1.900e+00 1.900e+00 1.900e+00 1.900e+00 1.900e+00 1.900e+00 1.900e+00 1.900e+00 1.900e+00 1.900e+00 1.900e+00 1.900e+00 1.900e+00 1.900e+00 1.900e+00 1.900e+00 1.900e+00 1.900e+00 1.900e+00 1.900e+00 1.900e+00 1.900e+00 1.900e+00 1.900e+00 1.900e+00 1.900e+00 1.900e+00 1.900e+00 1.900e+00 1.900e+00 1.900e+00 1.900e+00 1.900e+00 1.900e+00 1.900e+00 1.900e+00 1.900e+00 1.900e+00 1.900e+00 1.900e+00 1.900e+00 1.900e+00 1.900e+00 1.900e+00 1.900e+00 1.900e+00 1.900e+00 1.900e+00 1.900e+00 1.900e+00 1.900e+00 1.900e+00 1.900e+00 1.900e+00 1.900e+00 1.900e+00 1.900e+00 1.900e+00 1.900e+00 1.900e+00 1.900e+00 1.900e+00 1.900e+00 1.900e+00 1.900e+00 1.900e+00 1.900e+00 1.900e+00 1.900e+00 1.900e+00 1.900e+00 1.900e+00 1.900e+00 1.900e+00 1.900e+00 1.900e+00 1.900e+00 1.900e+00 1.900e+00 1.900e+00 1.900e+00 1.900e+00 1.900e+00 1.900e+00 1.900e+00 1.900e+00 1.900e+00 1.900e+00 1.900e+00 1.900e+00 1.900e+00 1.900e+00 1.900e+00 1.900e+00 1.900e+00 1.900e+00 1.900e+00 1.900e+00 1.900e+00 1.900e+00 1.900e+00 1.900e+00 1.900e+00 1.900e+00 1.900e+00 1.900e+00 1.900e+00 1.900e+00 1.900e+00 1.900e+00 1.900e+00 1.900e+00 1.900e+00 1.900e+00 1.900e+00 1.900e+00 1.900e+00 1.900e+00 1.900e+00 1.900e+00 1.900e+00 1.900e+00 1.900e+00 1.900e+00 1.900e+00 1.900e+00 1.900e+00 1.900e+00 1.900e+00 1.900e+00 1.900e+00 1.900e+00 1.900e+00 1.900e+00 1.900e+00 1.900e+00 1.900e+00 1.900e+00 1.900e+00 1.900e+00 1.900e+00 1.900e+00 1.900e+00 1.900e+00 1.900e+00 1.900e+00 1.900e+00 1.900e+00 1.900e+00 1.900e+00 1.900e+00 1.900e+00 1.900e+00 1.900e+00 1.900e+00 1.900e+00 1.900e+00 1.900e+00 1.900e+00 1.900e+00 1.900e+00 1.900e+00 1.900e+00 1.900e+00 1.900e+00 1.900e+00 1.900e+00 1.900e+00 1.900e+00 1.900e+00 1.900e+00 1.900e+00 1.900e+00 1.900e+00 1.900e+00 1.900e+00 1.900e+00 1.900e+00 1.900e+00 1.900e+00 1.900e+00 1.900e+00 1.900e+00 1.900e+00 1.900e+00 1.900e+00 1.900e+00 1.900e+00 1.900e+00 1.900e+00 1.900e+00 1.900e+00 1.900e+00 1.900e+00 1.900e+00 1.900e+00 1.900e+00 1.900e+00 1.900e+00 1.900e+00 1.900e+00 1.900e+00 1.900e+00 1.900e+00 1.900e+00 1.900e+00 1.900e+00 1.900e+00 1.900e+00 1.900e+00 1.900e+00 1.900e+00 1.900e+00 1.900e+00 1.900e+00 1.900e+00 1.900e+00 1.900e+00 1.900e+00 1.900e+00 1.900e+00 1.900e+00 1.900e+00 1.900e+00 1.900e+00 1.900e+00 1.900e+00 1.900e+00 1.900e+00
           </DataArray>
           <DataArray type="Float32" Name="nitrate/Km" NumberOfComponents="1" format="ascii">