<?xml version="1.0"?>
<VTKFile type="UnstructuredGrid" version="0.1" byte_order="LittleEndian">
   <UnstructuredGrid>
      <Piece NumberOfPoints="2570" NumberOfCells="181">
         <Points>
            <DataArray type="Float32" Name="Position" NumberOfComponents="3" format="ascii">
0.025	-5.013	-0.001
0.032	-4.997	0.010
0.027	-4.978	0.017
0.011	-4.963	0.018
-0.008	-4.959	0.012
-0.025	-4.967	0.002
-0.032	-4.983	-0.009
-0.027	-5.002	-0.017
-0.012	-5.017	-0.018
0.008	-5.021	-0.012
-0.247	-5.342	0.662
-0.241	-5.327	0.675
-0.246	-5.309	0.685
-0.262	-5.295	0.687
-0.282	-5.291	0.681
-0.298	-5.298	0.670
-0.305	-5.313	0.657
-0.299	-5.331	0.647
-0.283	-5.345	0.645
-0.263	-5.349	0.651
-0.517	-5.896	1.288
-0.511	-5.883	1.304
-0.518	-5.867	1.316
-0.535	-5.856	1.321
-0.555	-5.852	1.317
-0.571	-5.858	1.304
-0.576	-5.871	1.288
-0.569	-5.886	1.276
-0.553	-5.898	1.271
-0.533	-5.901	1.275
-0.696	-6.400	1.711
-0.691	-6.389	1.727
-0.698	-6.375	1.742
-0.715	-6.365	1.748
-0.735	-6.362	1.745
-0.751	-6.367	1.732
-0.757	-6.378	1.715
-0.750	-6.392	1.701
-0.733	-6.402	1.695
-0.712	-6.406	1.698
-0.856	-7.024	2.189
-0.851	-7.013	2.206
-0.858	-7.001	2.221
-0.875	-6.991	2.228
-0.896	-6.988	2.225
-0.912	-6.992	2.213
-0.917	-7.003	2.195
-0.910	-7.016	2.180
-0.893	-7.025	2.173
-0.872	-7.028	2.176
-0.987	-7.517	2.502
-0.981	-7.508	2.520
-0.989	-7.497	2.536
-1.006	-7.488	2.544
-1.026	-7.485	2.541
-1.042	-7.488	2.528
-1.047	-7.496	2.509
-1.040	-7.508	2.493
-1.023	-7.517	2.485
-1.002	-7.520	2.488
-1.145	-8.085	2.777
-1.139	-8.078	2.796
-1.147	-8.068	2.814
-1.164	-8.060	2.823
-1.184	-8.056	2.820
-1.200	-8.058	2.806
-1.206	-8.066	2.787
-1.198	-8.075	2.770
-1.181	-8.083	2.761
-1.161	-8.087	2.764
-1.286	-8.723	3.037
-1.281	-8.716	3.056
-1.288	-8.707	3.074
-1.305	-8.700	3.084
-1.325	-8.697	3.081
-1.342	-8.699	3.068
-1.347	-8.705	3.049
-1.340	-8.714	3.031
-1.323	-8.722	3.022
-1.302	-8.725	3.024
-1.351	-9.061	3.177
-1.345	-9.054	3.196
-1.352	-9.045	3.214
-1.369	-9.038	3.224
-1.390	-9.035	3.222
-1.406	-9.037	3.209
-1.412	-9.044	3.190
-1.405	-9.053	3.172
-1.388	-9.060	3.162
-1.367	-9.063	3.164
0.019	-4.982	-0.027
0.019	-4.966	-0.014
0.012	-4.959	0.005
0.001	-4.964	0.022
-0.011	-4.979	0.030
-0.019	-4.998	0.027
-0.019	-5.014	0.014
-0.012	-5.021	-0.005
-0.001	-5.016	-0.022
0.011	-5.001	-0.030
0.658	-5.291	0.323
0.661	-5.275	0.337
0.655	-5.269	0.356
0.642	-5.273	0.373
0.628	-5.286	0.381
0.617	-5.304	0.376
0.614	-5.319	0.362
0.620	-5.326	0.343
0.633	-5.322	0.327
0.647	-5.308	0.319
1.215	-5.886	0.668
1.221	-5.873	0.684
1.217	-5.867	0.703
1.203	-5.869	0.719
1.186	-5.880	0.725
1.171	-5.894	0.719
1.165	-5.906	0.704
1.170	-5.913	0.684
1.183	-5.910	0.668
1.201	-5.900	0.662
1.558	-6.431	0.908
1.566	-6.420	0.925
1.562	-6.414	0.945
1.548	-6.416	0.960
1.529	-6.424	0.966
1.513	-6.436	0.959
1.506	-6.447	0.943
1.510	-6.453	0.923
1.524	-6.451	0.907
1.542	-6.443	0.902
1.917	-7.102	1.164
1.925	-7.093	1.181
1.921	-7.088	1.201
1.907	-7.090	1.217
1.888	-7.097	1.222
1.871	-7.108	1.215
1.863	-7.117	1.198
1.867	-7.122	1.178
1.881	-7.120	1.162
1.900	-7.113	1.157
2.150	-7.635	1.315
2.158	-7.627	1.333
2.155	-7.623	1.353
2.141	-7.624	1.369
2.121	-7.631	1.373
2.104	-7.640	1.366
2.096	-7.648	1.348
2.099	-7.652	1.328
2.113	-7.651	1.313
2.132	-7.645	1.308
2.375	-8.226	1.482
2.383	-8.219	1.499
2.380	-8.214	1.520
2.365	-8.215	1.535
2.345	-8.220	1.539
2.328	-8.228	1.531
2.319	-8.236	1.514
2.323	-8.240	1.493
2.337	-8.240	1.478
2.357	-8.234	1.474
2.564	-8.883	1.659
2.573	-8.876	1.677
2.569	-8.872	1.697
2.554	-8.872	1.712
2.534	-8.876	1.716
2.516	-8.883	1.707
2.507	-8.889	1.689
2.511	-8.893	1.669
2.526	-8.894	1.654
2.546	-8.890	1.650
2.636	-9.238	1.746
2.645	-9.232	1.764
2.641	-9.228	1.784
2.626	-9.227	1.799
2.606	-9.230	1.802
2.588	-9.236	1.793
2.579	-9.242	1.775
2.583	-9.247	1.755
2.598	-9.247	1.740
2.618	-9.244	1.737
-0.009	-4.963	-0.018
0.010	-4.959	-0.011
0.026	-4.968	0.000
0.032	-4.985	0.011
0.025	-5.004	0.018
0.009	-5.017	0.018
-0.010	-5.021	0.011
-0.026	-5.012	-0.000
-0.032	-4.995	-0.011
-0.025	-4.976	-0.018
0.283	-5.295	-0.677
0.303	-5.294	-0.670
0.317	-5.303	-0.658
0.320	-5.320	-0.645
0.311	-5.336	-0.636
0.293	-5.348	-0.635
0.273	-5.349	-0.642
0.259	-5.340	-0.655
0.256	-5.323	-0.668
0.265	-5.306	-0.676
0.506	-5.897	-1.292
0.525	-5.900	-1.283
0.536	-5.909	-1.268
0.534	-5.923	-1.252
0.521	-5.936	-1.242
0.501	-5.942	-1.241
0.482	-5.940	-1.250
0.471	-5.930	-1.265
0.473	-5.916	-1.281
0.487	-5.904	-1.291
0.639	-6.450	-1.685
0.657	-6.454	-1.674
0.664	-6.463	-1.657
0.659	-6.475	-1.640
0.643	-6.484	-1.630
0.623	-6.488	-1.631
0.605	-6.484	-1.642
0.598	-6.475	-1.659
0.603	-6.464	-1.676
0.619	-6.454	-1.686
0.772	-7.146	-2.069
0.788	-7.150	-2.056
0.794	-7.158	-2.037
0.787	-7.168	-2.020
0.770	-7.176	-2.011
0.749	-7.178	-2.013
0.733	-7.175	-2.026
0.727	-7.167	-2.045
0.734	-7.157	-2.062
0.751	-7.149	-2.071
0.879	-7.687	-2.311
0.894	-7.690	-2.297
0.899	-7.697	-2.278
0.891	-7.707	-2.261
0.873	-7.714	-2.252
0.853	-7.716	-2.255
0.837	-7.713	-2.269
0.832	-7.706	-2.288
0.840	-7.697	-2.305
0.858	-7.690	-2.314
0.993	-8.278	-2.566
1.008	-8.281	-2.552
1.012	-8.288	-2.533
1.004	-8.297	-2.516
0.985	-8.303	-2.507
0.965	-8.305	-2.511
0.950	-8.302	-2.525
0.946	-8.295	-2.544
0.954	-8.286	-2.561
0.972	-8.280	-2.570
1.085	-8.933	-2.814
1.100	-8.936	-2.799
1.102	-8.942	-2.779
1.092	-8.949	-2.762
1.073	-8.954	-2.754
1.053	-8.956	-2.759
1.039	-8.953	-2.774
1.036	-8.947	-2.794
1.046	-8.940	-2.811
1.065	-8.935	-2.819
1.142	-9.324	-2.884
1.152	-9.305	-2.884
1.149	-9.285	-2.884
1.134	-9.270	-2.884
1.113	-9.266	-2.884
1.094	-9.276	-2.884
1.085	-9.295	-2.884
1.088	-9.315	-2.884
1.103	-9.330	-2.884
1.124	-9.334	-2.884
0.008	-5.017	0.020
-0.005	-5.004	0.031
-0.015	-4.986	0.030
-0.020	-4.969	0.018
-0.017	-4.960	-0.000
-0.008	-4.963	-0.019
0.004	-4.976	-0.031
0.015	-4.994	-0.030
0.020	-5.011	-0.018
0.017	-5.020	0.001
-0.636	-5.384	-0.240
-0.651	-5.371	-0.233
-0.663	-5.354	-0.237
-0.668	-5.341	-0.252
-0.664	-5.335	-0.272
-0.653	-5.340	-0.289
-0.639	-5.353	-0.297
-0.627	-5.369	-0.293
-0.621	-5.383	-0.278
-0.625	-5.389	-0.258
-1.173	-6.033	-0.473
-1.190	-6.023	-0.465
-1.206	-6.011	-0.470
-1.215	-6.000	-0.485
-1.214	-5.995	-0.506
-1.202	-5.998	-0.523
-1.185	-6.007	-0.531
-1.169	-6.020	-0.526
-1.160	-6.030	-0.510
-1.161	-6.035	-0.490
-1.489	-6.620	-0.611
-1.506	-6.614	-0.600
-1.524	-6.605	-0.601
-1.538	-6.596	-0.614
-1.541	-6.590	-0.634
-1.533	-6.590	-0.653
-1.516	-6.596	-0.664
-1.497	-6.605	-0.663
-1.484	-6.614	-0.650
-1.480	-6.620	-0.630
-1.782	-7.352	-0.742
-1.798	-7.348	-0.730
-1.818	-7.341	-0.730
-1.834	-7.333	-0.742
-1.839	-7.328	-0.762
-1.832	-7.328	-0.782
-1.815	-7.332	-0.794
-1.795	-7.340	-0.794
-1.780	-7.347	-0.781
-1.775	-7.352	-0.762
-1.973	-7.915	-0.813
-1.989	-7.912	-0.800
-2.009	-7.906	-0.799
-2.025	-7.900	-0.810
-2.032	-7.895	-0.830
-2.026	-7.894	-0.850
-2.010	-7.897	-0.863
-1.990	-7.903	-0.864
-1.973	-7.909	-0.853
-1.967	-7.914	-0.833
-2.130	-8.540	-0.904
-2.145	-8.538	-0.890
-2.166	-8.534	-0.888
-2.183	-8.528	-0.898
-2.191	-8.524	-0.918
-2.186	-8.522	-0.938
-2.170	-8.524	-0.952
-2.149	-8.529	-0.954
-2.132	-8.534	-0.943
-2.125	-8.539	-0.924
-2.280	-9.223	-0.986
-2.296	-9.221	-0.972
-2.317	-9.217	-0.970
-2.334	-9.212	-0.980
-2.342	-9.208	-0.999
-2.337	-9.206	-1.020
-2.322	-9.208	-1.033
-2.301	-9.212	-1.036
-2.284	-9.217	-1.025
-2.276	-9.221	-1.006
-2.359	-9.579	-1.067
-2.351	-9.583	-1.048
-2.355	-9.584	-1.027
-2.371	-9.582	-1.013
-2.392	-9.578	-1.011
-2.409	-9.574	-1.021
-2.417	-9.570	-1.041
-2.412	-9.568	-1.061
-2.397	-9.570	-1.075
-2.376	-9.574	-1.077
0.006	-4.727	0.023
0.004	-4.710	0.035
0.001	-4.689	0.036
-0.004	-4.673	0.024
-0.008	-4.667	0.004
-0.010	-4.673	-0.016
-0.008	-4.690	-0.028
-0.005	-4.711	-0.029
0.000	-4.727	-0.017
0.004	-4.734	0.003
-0.407	-4.801	0.064
-0.398	-4.783	0.064
-0.401	-4.762	0.064
-0.416	-4.747	0.064
-0.436	-4.744	0.064
-0.455	-4.753	0.064
-0.465	-4.772	0.064
-0.461	-4.793	0.064
-0.447	-4.808	0.064
-0.426	-4.811	0.064
0.025	-4.719	-0.004
0.032	-4.700	-0.001
0.026	-4.680	0.004
0.009	-4.668	0.009
-0.012	-4.668	0.011
-0.029	-4.681	0.011
-0.036	-4.700	0.007
-0.030	-4.720	0.003
-0.013	-4.732	-0.002
0.008	-4.732	-0.005
0.077	-4.811	0.423
0.084	-4.792	0.426
0.078	-4.772	0.431
0.061	-4.760	0.435
0.040	-4.760	0.438
0.023	-4.772	0.437
0.016	-4.792	0.434
0.022	-4.811	0.429
0.039	-4.823	0.425
0.060	-4.823	0.422
0.001	-4.678	-0.022
0.006	-4.668	-0.004
0.008	-4.670	0.017
0.006	-4.684	0.032
0.001	-4.704	0.037
-0.005	-4.722	0.029
-0.010	-4.732	0.011
-0.012	-4.730	-0.010
-0.010	-4.716	-0.026
-0.005	-4.696	-0.030
0.422	-4.793	-0.073
0.427	-4.784	-0.055
0.429	-4.786	-0.034
0.427	-4.800	-0.018
0.422	-4.820	-0.013
0.416	-4.838	-0.022
0.411	-4.848	-0.040
0.409	-4.845	-0.060
0.411	-4.832	-0.076
0.416	-4.812	-0.081
-0.025	-4.675	0.001
-0.005	-4.667	-0.003
0.015	-4.671	-0.004
0.029	-4.687	-0.002
0.031	-4.708	0.002
0.021	-4.725	0.006
0.002	-4.733	0.009
-0.019	-4.729	0.010
-0.033	-4.713	0.009
-0.035	-4.693	0.005
-0.065	-4.755	-0.430
-0.046	-4.747	-0.433
-0.026	-4.752	-0.434
-0.012	-4.767	-0.433
-0.010	-4.788	-0.429
-0.020	-4.806	-0.425
-0.039	-4.814	-0.421
-0.060	-4.809	-0.420
-0.074	-4.794	-0.422
-0.076	-4.773	-0.426
-0.151	-5.002	0.153
-0.032	-5.002	0.212
0.099	-5.001	0.191
0.192	-5.000	0.097
0.212	-4.999	-0.035
0.151	-4.998	-0.153
0.032	-4.998	-0.212
-0.099	-4.999	-0.191
-0.192	-5.000	-0.097
-0.212	-5.001	0.035
-0.153	-4.251	0.156
-0.036	-4.250	0.215
0.094	-4.250	0.194
0.186	-4.250	0.101
0.207	-4.250	-0.028
0.147	-4.250	-0.145
0.030	-4.250	-0.205
-0.100	-4.250	-0.184
-0.192	-4.250	-0.091
-0.213	-4.250	0.039
-0.152	-3.560	0.152
-0.036	-3.560	0.211
0.093	-3.560	0.191
0.185	-3.560	0.099
0.206	-3.560	-0.030
0.147	-3.560	-0.146
0.031	-3.560	-0.205
-0.098	-3.560	-0.185
-0.190	-3.560	-0.093
-0.211	-3.560	0.036
-0.149	-2.400	0.150
-0.034	-2.400	0.209
0.094	-2.400	0.189
0.185	-2.400	0.097
0.205	-2.400	-0.031
0.147	-2.400	-0.146
0.032	-2.400	-0.204
-0.096	-2.400	-0.184
-0.188	-2.400	-0.093
-0.208	-2.400	0.035
-0.150	-1.800	0.148
-0.035	-1.800	0.207
0.092	-1.800	0.186
0.183	-1.800	0.095
0.203	-1.800	-0.032
0.144	-1.800	-0.147
[...]
         <CellData>
           <DataArray type="Float32" Name="combinedRootClassID" NumberOfComponents="1" format="ascii">
 -5.000e+00 -5.000e+00 -5.000e+00 -5.000e+00 -5.000e+00 -5.000e+00 -5.000e+00 -5.000e+00 -5.000e+00 -5.000e+00 -5.000e+00 -5.000e+00 -5.000e+00 -5.000e+00 -5.000e+00 -5.000e+00 -5.000e+00 -5.000e+00 -5.000e+00 -5.000e+00 -5.000e+00 -5.000e+00 -5.000e+00 -5.000e+00 -5.000e+00 -5.000e+00 -5.000e+00 -5.000e+00 -5.000e+00 -5.000e+00 -5.000e+00 -5.000e+00 -1.100e+01 -1.100e+01 -1.100e+01 -1.100e+01 -2.000e+00 -2.000e+00 -2.000e+00 -2.000e+00 -2.000e+00 -2.000e+00 -2.000e+00 -2.000e+00 -2.000e+00 -2.000e+00 -7.000e+00 -7.000e+00 -7.000e+00 -7.000e+00 -7.000e+00 -7.000e+00 -7.000e+00 -7.000e+00 -7.000e+00 -7.000e+00 -7.000e+00 -7.000e+00 -7.000e+00 -7.000e+00 -7.000e+00 -7.000e+00 -7.000e+00 -7.000e+00 -7.000e+00 -7.000e+00 -7.000e+00 -7.000e+00 -7.000e+00 -7.000e+00 -7.000e+00 -7.000e+00 -7.000e+00 -7.000e+00 -7.000e+00 -7.000e+00 -7.000e+00 -7.000e+00 -7.000e+00 -7.000e+00 -7.000e+00 -7.000e+00 -7.000e+00 -7.000e+00 -7.000e+00 -7.000e+00 -7.000e+00 -7.000e+00 -7.000e+00 -7.000e+00 -7.000e+00 -7.000e+00 -7.000e+00 -7.000e+00 -7.000e+00 -7.000e+00 -7.000e+00 -7.000e+00 -7.000e+00 -7.000e+00 -7.000e+00 -7.000e+00 -7.000e+00 -7.000e+00 -7.000e+00 -7.000e+00 -7.000e+00 -7.000e+00 -7.000e+00 -7.000e+00 -7.000e+00 -7.000e+00 -7.000e+00 -7.000e+00 -7.000e+00 -7.000e+00 -7.000e+00 -7.000e+00 -7.000e+00 -7.000e+00 -7.000e+00 -7.000e+00 -7.000e+00 -7.000e+00 -7.000e+00 -7.000e+00 -7.000e+00 -7.000e+00 -7.000e+00 -7.000e+00 -7.000e+00 -7.000e+00 -7.000e+00 -7.000e+00 -7.000e+00 -7.000e+00 -7.000e+00 -7.000e+00 -7.000e+00 -7.000e+00 -7.000e+00 -7.000e+00 -7.000e+00 -7.000e+00 -7.000e+00 -7.000e+00 -7.000e+00 -7.000e+00 -7.000e+00 -7.000e+00 -7.000e+00 -7.000e+00 -7.000e+00 -7.000e+00 -9.000e+00 -9.000e+00 -9.000e+00 -4.000e+00 -4.000e+00 -4.000e+00 -4.000e+00 -4.000e+00 -4.000e+00 -4.000e+00 -4.000e+00 -4.000e+00 -4.000e+00 -4.000e+00 -4.000e+00 -4.000e+00 -4.000e+00 -4.000e+00 -4.000e+00 -4.000e+00 -4.000e+00 -4.000e+00 -4.000e+00 -4.000e+00 -4.000e+00 -4.000e+00 -4.000e+00
           </DataArray>
           <DataArray type="Float32" Name="nitrate/Cmin" NumberOfComponents="1" format="ascii">
 1.000e-03 1.000e-03 1.000e-03 1.000e-03 1.000e-03 1.000e-03 1.000e-03 1.000e-03 1.000e-03 1.000e-03 1.000e-03 1.000e-03 1.000e-03 1.000e-03 1.000e-03 1.000e-03 1.000e-03 1.000e-03 1.000e-03 1.000e-03 1.000e-03 1.000e-03 1.000e-03 1.000e-03 1.000e-03 1.000e-03 1.000e-03 1.000e-03 1.000e-03 1.000e-03 1.000e-03 1.000e-03 1.000e-03 1.000e-03 1.000e-03 1.000e-03 1.000e-03 1.000e-03 1.000e-03 1.000e-03 1.000e-03 1.000e-03 1.000e-03 1.000e-03 1.000e-03 1.000e-03 1.000e-03 1.000e-03 1.000e-03 1.000e-03 1.000e-03 1.000e-03 1.000e-03 1.000e-03 1.000e-03 1.000e-03 1.000e-03 1.000e-03 1.000e-03 1.000e-03 1.000e-03 1.000e-03 1.000e-03 1.000e-03 1.000e-03 1.000e-03 1.000e-03 1.000e-03 1.000e-03 1.000e-03 1.000e-03 1.000e-03 1.000e-03 1.000e-03 1.000e-03 1.000e-03 1.000e-03 1.000e-03 1.000e-03 1.000e-03 1.000e-03 1.000e-03 1.000e-03 1.000e-03 1.000e-03 1.000e-03 1.000e-03 1.000e-03 1.000e-03 1.000e-03 1.000e-03 1.000e-03 1.000e-03 1.000e-03 1.000e-03 1.000e-03 1.000e-03 1.000e-03 1.000e-03 1.000e-03 1.000e-03 1.000e-03 1.000e-03 1.000e-03 1.000e-03 1.000e-03 1.000e-03 1.000e-03 1.000e-03 1.000e-03 1.000e-03 1.000e-03 1.000e-03 1.000e-03 1.000e-03 1.000e-03 1.000e-03 1.000e-03 1.000e-03 1.000e-03 1.000e-03 1.000e-03 1.000e-03 1.000e-03 1.000e-03 1.000e-03 1.000e-03 1.000e-03 1.000e-03 1.000e-03 1.000e-03 1.000e-03 1.000e-03 1.000e-03 1.000e-03 1.000e-03 1.000e-03 1.000e-03 1.000e-03 1.000e-03 1.000e-03 1.000e-03 1.000e-03 1.000e-03 1.000e-03 1.000e-03 1.000e-03 1.000e-03 1.000e-03 1.000e-03 1.000e-03 1.000e-03 1.000e-03 1.000e-03 1.000e-03 1.000e-03 1.000e-03 1.000e-03 1.000e-03 1.000e-03 1.000e-03 1.000e-03 1.000e-03 1.000e-03 1.000e-03 1.000e-03 1.000e-03 1.000e-03 1.000e-03 1.000e-03 1.000e-03 1.000e-03 1.000e-03 1.000e-03 1.000e-03 1.000e-03 1.000e-03 1.000e-03 1.000e-03 1.000e-03 1.000e-03
           </DataArray>
           <DataArray type="Float32" Name="nitrate/Imax" NumberOfComponents="1" format="ascii">
 1.900e+00 1.900e+00 1.900e+00 1.900e+00 1.900e+00 1.900e+00 1.900e+00 1.900e+00 1.900e+00 1.900e+00 1.900e+00 1.900e+00 1.900e+00 1.900e+00 1.900e+00 1.900e+00 1.900e+00 1.900e+00 1.900e+00 1.900e+00 1.900e+00 1.900e+00 1.900e+00 1.900e+00 1.900e+00 1.900e+00 1.900e+00 1.900e+00 1.900e+00 1.900e+00 1.900e+00 1.900e+00 1.900e+00 1.900e+00 1.900e+00 1.900e+00 1.900e+00 1.900e+00 1.900e+00 1.900e+00 1.900e+00 1.900e+00 1.900e+00 1.900e+00 1.900e+00 1.900e+00 1.900e+00 1.900e+00 1.900e+00 1.900e+00 1.900e+00 1.900e+00 1.900e+00 1.900e+00 1.900e+00 1.900e+00 1.900e+00 1.900e+00 1.900e+00 1.900e+00 1.900e+00 1.900e+00 1.900e+00 1.900e+00 1.900e+00 1.900e+00 1.900e+00 1.900e+00 1.900e+00 1.900e+00 1.900e+00 1.900e+00 1.900e+00 1.900e+00 1.900e+00 1.900e+00 1.900e+00 1.900e+00 1.900e+00 1.900e+00 1.900e+00 1.900e+00 1.900e+00 1.900e+00 1.900e+00 1.900e+00 1.900e+00 1.900e+00 1.900e+00 1.900e+00 1.900e+00 1.900e+00 1.900e+00 1.900e+00 1.900e+00 1.900e+00 1.900e+00 1.900e+00 1.900e+00 1.900e+00 1.900e+00 1.900e+00 1.900e+00 1.900e+00 1.900e+00 1.900e+00 1.900e+00 1.900e+00 1.900e+00 1.900e+00 1.900e+00 1.900e+00 1.900e+00 1.900e+00 1.900e+00 1.900e+00 1.900e+00 1.900e+00 1.900e+00 1.900e+00 1.900e+00 1.900e+00 1.900e+00 1.900e+00 1.900e+00 1.900e+00 1.900e+00 1.900e+00 1.900e+00 1.900e+00 1.900e+00 1.900e+00 1.900e+00 1.900e+00 1.900e+00 1.900e+00 1.900e+00 1.900e+00 1.900e+00 1.900e+00 1.900e+00 1.900e+00 1.900e+00 1.900e+00 1.900e+00 1.900e+00 1.900e+00 1.900e+00 1.900e+00 1.900e+00 1.900e+00 1.900e+00 1.900e+00 1.900e+00 1.900e+00 1.900e+00 1.900e+00 1.900e+00 1.900e+00 1.900e+00 1.900e+00 1.900e+00 1.900e+00 1.900e+00 1.900e+00 1.900e+00 1.900e+00 1.900e+00 1.900e+00 1.900e+00 1.900e+00 1.900e+00 1.900e+00 1.900e+00 1.900e+00 1.900e+00 1.900e+00 1.900e+00 1.900e+00 1.900e+00 1.900e+00
           </DataArray>
           <DataArray type="Float32" Name="nitrate/Km" NumberOfComponents="1" format="ascii">
 1.610e-02 1.610e-02 1.610e-02 1.610e-02 1.610e-02 1.610e-02 1.610e-02 1.610e-02 1.610e-02 1.610e-02 1.610e-02 1.610e-02 1.610e-02 1.610e-02 1.610e-02 1.610e-02 1.610e-02 1.610e-02 1.610e-02 1.610e-02 1.610e-02 1.610e-02 1.610e-02 1.610e-02 1.610e-02 1.610e-02 1.610e-02 1.610e-02 1.610e-02 1.610e-02 1.610e-02 1.610e-02 1.610e-02 1.610e-02 1.610e-02 1.610e-02 1.610e-02 1.610e-02 1.610e-02 1.610e-02 1.610e-02 1.610e-02 1.610e-02 1.610e-02 1.610e-02 1.610e-02 1.610e-02 1.610e-02 1.610e-02 1.610e-02 1.610e-02 1.610e-02 1.610e-02 1.610e-02 1.610e-02 1.610e-02 1.610e-02 1.610e-02 1.610e-02 1.610e-02 1.610e-02 1.610e-02 1.610e-02 1.610e-02 1.610e-02 1.610e-02 1.610e-02 1.610e-02 1.610e-02 1.610e-02 1.610e-02 1.610e-02 1.610e-02 1.610e-02 1.610e-02 1.610e-02 1.610e-02 1.610e-02 1.610e-02 1.610e-02 1.610e-02 1.610e-02 1.610e-02 1.610e-02 1.610e-02 1.610e-02 1.610e-02 1.610e-02 1.610e-02 1.610e-02 1.610e-02 1.610e-02 1.610e-02 1.610e-02 1.610e-02 1.610e-02 1.610e-02 1.610e-02 1.610e-02 1.610e-02 1.610e-02 1.610e-02 1.610e-02 1.610e-02 1.610e-02 1.610e-02 1.610e-02 1.610e-02 1.610e-02 1.610e-02 1.610e-02 1.610e-02 1.610e-02 1.610e-02 1.610e-02 1.610e-02 1.610e-02 1.610e-02 1.610e-02 1.610e-02 1.610e-02 1.610e-02 1.610e-02 1.610e-02 1.610e-02 1.610e-02 1.610e-02 1.610e-02 1.610e-02 1.610e-02 1.610e-02 1.610e-02 1.610e-02 1.610e-02 1.610e-02 1.610e-02 1.610e-02 1.610e-02 1.610e-02 1.610e-02 1.610e-02 1.610e-02 1.610e-02 1.610e-02 1.610e-02 1.610e-02 1.610e-02 1.610e-02 1.610e-02 1.610e-02 1.610e-02 1.610e-02 1.610e-02 1.610e-02 1.610e-02 1.610e-02 1.610e-02 1.610e-02 1.610e-02 1.610e-02 1.610e-02 1.610e-02 1.610e-02 1.610e-02 1.610e-02 1.610e-02 1.610e-02 1.610e-02 1.610e-02 1.610e-02 1.610e-02 1.610e-02 1.610e-02 1.610e-02 1.610e-02 1.610e-02 1.610e-02 1.610e-02 1.610e-02 1.610e-02 1.610e-02
           </DataArray>
           <DataArray type="Float32" Name="nitrate/minimalNutrientConcentration" NumberOfComponents="1" format="ascii">
 6.000e+02 6.000e+02 6.000e+02 6.000e+02 6.000e+02 6.000e+02 6.000e+02 6.000e+02 6.000e+02 6.000e+02 6.000e+02 6.000e+02 6.000e+02 6.000e+02 6.000e+02 6.000e+02 6.000e+02 6.000e+02 6.000e+02 6.000e+02 6.000e+02 6.000e+02 6.000e+02 6.000e+02 6.000e+02 6.000e+02 6.000e+02 6.000e+02 6.000e+02 6.000e+02 6.000e+02 6.000e+02 6.000e+02 6.000e+02 6.000e+02 6.000e+02 6.000e+02 6.000e+02 6.000e+02 6.000e+02 6.000e+02 6.000e+02 6.000e+02 6.000e+02 6.000e+02 6.000e+02 6.000e+02 6.000e+02 6.000e+02 6.000e+02 6.000e+02 6.000e+02 6.000e+02 6.000e+02 6.000e+02 6.000e+02 6.000e+02 6.000e+02 6.000e+02 6.000e+02 6.000e+02 6.000e+02 6.000e+02 6.000e+02 6.000e+02 6.000e+02 6.000e+02 6.000e+02 6.000e+02 6.000e+02 6.000e+02 6.000e+02 6.000e+02 6.000e+02 6.000e+02 6.000e+02 6.000e+02 6.000e+02 6.000e+02 6.000e+02 6.000e+02 6.000e+02 6.000e+02 6.000e+02 6.000e+02 6.000e+02 6.000e+02 6.000e+02 6.000e+02 6.000e+02 6.000e+02 6.000e+02 6.000e+02 6.000e+02 6.000e+02 6.000e+02 6.000e+02 6.000e+02 6.000e+02 6.000e+02 6.000e+02 6.000e+02 6.000e+02 6.000e+02 6.000e+02 6.000e+02 6.000e+02 6.000e+02 6.000e+02 6.000e+02 6.000e+02 6.000e+02 6.000e+02 6.000e+02 6.000e+02 6.000e+02 6.000e+02 6.000e+02 6.000e+02 6.000e+02 6.000e+02 6.000e+02 6.000e+02 6.000e+02 6.000e+02 6.000e+02 6.000e+02 6.000e+02 6.000e+02 6.000e+02 6.000e+02 6.000e+02 6.000e+02 6.000e+02 6.000e+02 6.000e+02 6.000e+02 6.000e+02 6.000e+02 6.000e+02 6.000e+02 6.000e+02 6.000e+02 6.000e+02 6.000e+02 6.000e+02 6.000e+02 6.000e+02 6.000e+02 6.000e+02 6.000e+02 6.000e+02 6.000e+02 6.000e+02 6.000e+02 6.000e+02 6.000e+02 6.000e+02 6.000e+02 6.000e+02 6.000e+02 6.000e+02 6.000e+02 6.000e+02 6.000e+02 6.000e+02 6.000e+02 6.000e+02 6.000e+02 6.000e+02 6.000e+02 6.000e+02 6.000e+02 6.000e+02 6.000e+02 6.000e+02 6.000e+02 6.000e+02 6.000e+02 6.000e+02 6.000e+02
           </DataArray>
           <DataArray type="Float32" Name="nitrate/nutrientConcentrationAtTheRootSurface" NumberOfComponents="1" format="ascii">
 2.979e-01 3.281e-01 3.939e-01 4.358e-01 5.401e-01 5.962e-01 6.680e-01 7.821e-01 2.979e-01 3.224e-01 3.618e-01 4.824e-01 5.731e-01 6.244e-01 6.422e-01 7.847e-01 2.979e-01 2.978e-01 3.970e-01 4.829e-01 5.738e-01 6.302e-01 6.693e-01 7.850e-01 2.979e-01 3.195e-01 3.379e-01 4.598e-01 5.157e-01 5.907e-01 7.070e-01 8.027e-01 3.060e-01 3.060e-01 3.060e-01 3.060e-01 2.978e-01 3.117e-01 2.945e-01 2.205e-01 1.803e-01 1.316e-01 7.984e-02 0.000e+00 0.000e+00 0.000e+00 2.971e-01 3.288e-01 4.135e-01 2.955e-01 3.174e-01 3.660e-01 2.755e-01 3.450e-01 4.042e-01 2.820e-01 3.058e-01 2.868e-01 2.895e-01 2.926e-01 3.508e-01 2.988e-01 3.244e-01 3.048e-01 3.333e-01 3.099e-01 3.378e-01 3.136e-01 3.722e-01 3.163e-01 3.840e-01 3.280e-01 3.164e-01 2.935e-01 3.259e-01 4.113e-01 3.395e-01 4.308e-01 3.527e-01 3.734e-01 3.607e-01 3.666e-01 3.713e-01 4.256e-01 3.839e-01 4.472e-01 3.969e-01 4.325e-01 4.086e-01 4.379e-01 4.179e-01 4.937e-01 4.264e-01 4.620e-01 4.431e-01 5.066e-01 2.909e-01 3.172e-01 3.908e-01 4.474e-01 4.962e-01 4.610e-01 5.669e-01 4.793e-01 5.429e-01 4.920e-01 6.079e-01 5.075e-01 5.880e-01 5.240e-01 5.643e-01 5.389e-01 5.626e-01 5.687e-01 5.785e-01 2.874e-01 2.889e-01 5.824e-01 5.947e-01 6.005e-01 6.088e-01 6.298e-01 6.431e-01 6.547e-01 6.635e-01 6.698e-01 6.792e-01 2.835e-01 3.110e-01 4.115e-01 6.834e-01 6.919e-01 7.062e-01 7.133e-01 7.209e-01 7.284e-01 7.352e-01 7.409e-01 7.454e-01 7.489e-01 2.799e-01 2.942e-01 4.572e-01 7.514e-01 7.627e-01 7.673e-01 7.683e-01 2.770e-01 2.928e-01 4.391e-01 2.706e-01 3.053e-01 2.745e-01 3.080e-01 4.610e-01 5.580e-01 6.831e-01 2.978e-01 2.796e-01 2.935e-01 3.404e-01 4.200e-01 5.134e-01 5.969e-01 6.721e-01 7.324e-01 7.680e-01 7.674e-01 7.884e-01 7.980e-01 8.313e-01 8.310e-01 8.097e-01 8.477e-01 8.719e-01 8.410e-01 8.300e-01 8.916e-01 9.113e-01 9.245e-01 9.685e-01
           </DataArray>
           <DataArray type="Float32" Name="nitrate/optimalNutrientConcentration" NumberOfComponents="1" format="ascii">
 1.200e+03 1.200e+03 1.200e+03 1.200e+03 1.200e+03 1.200e+03 1.200e+03 1.200e+03 1.200e+03 1.200e+03 1.200e+03 1.200e+03 1.200e+03 1.200e+03 1.200e+03 1.200e+03 1.200e+03 1.200e+03 1.200e+03 1.200e+03 1.200e+03 1.200e+03 1.200e+03 1.200e+03 1.200e+03 1.200e+03 1.200e+03 1.200e+03 1.200e+03 1.200e+03 1.200e+03 1.200e+03 1.200e+03 1.200e+03 1.200e+03 1.200e+03 1.200e+03 1.200e+03 1.200e+03 1.200e+03 1.200e+03 1.200e+03 1.200e+03 1.200e+03 1.200e+03 1.200e+03 1.200e+03 1.200e+03 1.200e+03 1.200e+03 1.200e+03 1.200e+03 1.200e+03 1.200e+03 1.200e+03 1.200e+03 1.200e+03 1.200e+03 1.200e+03 1.200e+03 1.200e+03 1.200e+03 1.200e+03 1.200e+03 1.200e+03 1.200e+03 1.200e+03 1.200e+03 1.200e+03 1.200e+03 1.200e+03 1.200e+03 1.200e+03 1.200e+03 1.200e+03 1.200e+03 1.200e+03 1.200e+03 1.200e+03 1.200e+03 1.200e+03 1.200e+03 1.200e+03 1.200e+03 1.200e+03 1.200e+03 1.200e+03 1.200e+03 1.200e+03 1.200e+03 1.200e+03 1.200e+03 1.200e+03 1.200e+03 1.200e+03 1.200e+03 1.200e+03 1.200e+03 1.200e+03 1.200e+03 1.200e+03 1.200e+03 1.200e+03 1.200e+03 1.200e+03 1.200e+03 1.200e+03 1.200e+03 1.200e+03 1.200e+03 1.200e+03 1.200e+03 1.200e+03 1.200e+03 1.200e+03 1.200e+03 1.200e+03 1.200e+03 1.200e+03 1.200e+03 1.200e+03 1.200e+03 1.200e+03 1.200e+03 1.200e+03 1.200e+03 1.200e+03 1.200e+03 1.200e+03 1.200e+03 1.200e+03 1.200e+03 1.200e+03 1.200e+03 1.200e+03 1.200e+03 1.200e+03 1.200e+03 1.200e+03 1.200e+03 1.200e+03 1.200e+03 1.200e+03 1.200e+03 1.200e+03 1.200e+03 1.200e+03 1.200e+03 1.200e+03 1.200e+03 1.200e+03 1.200e+03 1.200e+03 1.200e+03 1.200e+03 1.200e+03 1.200e+03 1.200e+03 1.200e+03 1.200e+03 1.200e+03 1.200e+03 1.200e+03 1.200e+03 1.200e+03 1.200e+03 1.200e+03 1.200e+03 1.200e+03 1.200e+03 1.200e+03 1.200e+03 1.200e+03 1.200e+03 1.200e+03 1.200e+03 1.200e+03 1.200e+03 1.200e+03 1.200e+03 1.200e+03
           </DataArray>
           <DataArray type="Float32" Name="nitrate/rootSegmentMinimalNutrientContent" NumberOfComponents="1" format="ascii">
 1.635e-01 1.811e-01 1.406e-01 1.646e-01 1.230e-01 1.337e-01 1.443e-01 7.615e-02 1.635e-01 1.811e-01 1.406e-01 1.646e-01 1.230e-01 1.337e-01 1.443e-01 7.615e-02 1.635e-01 1.811e-01 1.406e-01 1.646e-01 1.230e-01 1.337e-01 1.443e-01 7.615e-02 1.635e-01 1.811e-01 1.406e-01 1.646e-01 1.230e-01 1.337e-01 1.443e-01 7.615e-02 9.025e-02 9.025e-02 9.025e-02 9.025e-02 6.064e+00 5.477e+00 9.071e+00 4.653e+00 4.616e+00 6.835e+00 6.464e+00 6.546e+00 6.432e+00 1.821e+00 3.535e-02 3.481e-02 1.581e-02 3.322e-02 3.710e-02 1.235e-02 3.431e-02 3.455e-02 3.139e-03 3.530e-02 3.376e-02 3.388e-02 2.806e-02 3.720e-02 3.193e-02 3.351e-02 2.237e-02 3.451e-02 2.632e-02 3.486e-02 1.824e-02 3.379e-02 2.508e-02 3.560e-02 1.225e-02 3.425e-02 2.746e-02 3.403e-02 3.590e-02 2.759e-03 3.337e-02 1.579e-02 3.518e-02 2.454e-02 3.706e-02 1.880e-02 3.554e-02 2.392e-02 3.632e-02 1.985e-02 3.425e-02 1.091e-02 3.338e-02 1.977e-02 3.480e-02 1.626e-02 3.608e-02 1.279e-02 3.511e-02 8.885e-03 3.582e-02 3.612e-02 6.015e-03 3.626e-02 1.391e-02 3.525e-02 9.608e-03 3.727e-02 6.436e-03 3.749e-02 6.722e-03 3.514e-02 2.995e-03 3.506e-02 6.805e-03 3.650e-02 3.299e-02 3.244e-02 2.835e-02 3.568e-02 3.718e-02 3.304e-02 3.147e-02 2.667e-02 3.273e-02 2.550e-02 2.329e-02 1.945e-02 1.802e-02 2.077e-02 1.694e-02 3.370e-02 3.660e-02 6.095e-03 1.948e-02 1.484e-02 1.628e-02 1.629e-02 1.294e-02 1.096e-02 9.654e-03 7.710e-03 9.338e-03 6.569e-03 3.635e-02 3.422e-02 1.368e-02 5.018e-03 4.343e-03 2.639e-03 1.239e-03 3.550e-02 3.487e-02 6.336e-03 3.509e-02 3.576e-02 3.439e-02 3.636e-02 3.548e-02 2.655e-02 3.288e-02 3.586e-01 3.469e-01 3.360e-01 3.259e-01 3.165e-01 3.078e-01 2.997e-01 2.923e-01 2.860e-01 2.808e-01 2.768e-01 2.734e-01 2.703e-01 2.674e-01 2.649e-01 2.626e-01 2.606e-01 2.588e-01 2.573e-01 2.561e-01 2.551e-01 2.544e-01 2.539e-01 8.457e-02
           </DataArray>
           <DataArray type="Float32" Name="nitrate/rootSegmentNutrientUptake" NumberOfComponents="1" format="ascii">
 0.000e+00 2.807e-01 2.310e-01 1.859e-01 1.469e-01 1.094e-01 6.540e-02 1.475e-02 0.000e+00 2.805e-01 2.190e-01 1.994e-01 1.510e-01 1.130e-01 6.379e-02 1.474e-02 0.000e+00 2.619e-01 2.325e-01 1.996e-01 1.509e-01 1.133e-01 6.576e-02 1.475e-02 0.000e+00 2.752e-01 2.120e-01 1.955e-01 1.426e-01 1.084e-01 6.813e-02 1.477e-02 0.000e+00 0.000e+00 0.000e+00 0.000e+00 0.000e+00 1.075e+00 9.403e-01 7.036e-01 5.799e-01 4.501e-01 2.735e-01 0.000e+00 0.000e+00 0.000e+00 0.000e+00 1.620e-01 2.054e-02 0.000e+00 1.592e-01 1.332e-02 0.000e+00 1.026e-01 1.352e-03 0.000e+00 8.476e-02 0.000e+00 6.579e-02 0.000e+00 7.595e-02 0.000e+00 4.576e-02 0.000e+00 5.691e-02 0.000e+00 3.148e-02 0.000e+00 5.148e-02 0.000e+00 1.591e-02 0.000e+00 5.617e-02 0.000e+00 1.203e-01 1.185e-03 0.000e+00 2.402e-02 0.000e+00 4.502e-02 0.000e+00 2.846e-02 0.000e+00 4.160e-02 0.000e+00 3.023e-02 0.000e+00 1.185e-02 0.000e+00 3.010e-02 0.000e+00 2.126e-02 0.000e+00 1.392e-02 0.000e+00 7.745e-03 0.000e+00 1.256e-01 3.889e-03 0.000e+00 1.515e-02 0.000e+00 8.397e-03 0.000e+00 4.211e-03 0.000e+00 4.408e-03 0.000e+00 1.306e-03 0.000e+00 4.459e-03 0.000e+00 0.000e+00 0.000e+00 0.000e+00 0.000e+00 1.045e-01 0.000e+00 0.000e+00 0.000e+00 0.000e+00 0.000e+00 0.000e+00 0.000e+00 0.000e+00 0.000e+00 0.000e+00 0.000e+00 1.255e-01 3.945e-03 0.000e+00 0.000e+00 0.000e+00 0.000e+00 0.000e+00 0.000e+00 0.000e+00 0.000e+00 0.000e+00 0.000e+00 0.000e+00 1.333e-01 1.485e-02 0.000e+00 0.000e+00 0.000e+00 0.000e+00 0.000e+00 1.123e-01 4.105e-03 0.000e+00 9.570e-02 0.000e+00 9.727e-02 0.000e+00 4.064e-02 0.000e+00 0.000e+00 1.247e+00 1.246e+00 1.241e+00 1.242e+00 1.240e+00 1.216e+00 1.190e+00 1.185e+00 1.128e+00 1.013e+00 9.564e-01 8.815e-01 8.475e-01 7.691e-01 6.568e-01 6.273e-01 5.669e-01 4.599e-01 3.793e-01 3.069e-01 2.109e-01 1.072e-01 1.246e-02
           </DataArray>
           <DataArray type="Float32" Name="nitrate/rootSegmentOptimalNutrientContent" NumberOfComponents="1" format="ascii">
 3.270e-01 3.621e-01 2.812e-01 3.291e-01 2.460e-01 2.673e-01 2.886e-01 1.523e-01 3.270e-01 3.621e-01 2.812e-01 3.291e-01 2.460e-01 2.673e-01 2.886e-01 1.523e-01 3.270e-01 3.621e-01 2.812e-01 3.291e-01 2.460e-01 2.673e-01 2.886e-01 1.523e-01 3.270e-01 3.621e-01 2.812e-01 3.291e-01 2.460e-01 2.673e-01 2.886e-01 1.523e-01 1.805e-01 1.805e-01 1.805e-01 1.805e-01 1.213e+01 1.095e+01 1.814e+01 9.306e+00 9.233e+00 1.367e+01 1.293e+01 1.309e+01 1.286e+01 3.643e+00 7.070e-02 6.962e-02 3.162e-02 6.644e-02 7.420e-02 2.471e-02 6.862e-02 6.910e-02 6.278e-03 7.059e-02 6.752e-02 6.777e-02 5.611e-02 7.440e-02 6.386e-02 6.701e-02 4.475e-02 6.902e-02 5.264e-02 6.972e-02 3.647e-02 6.758e-02 5.016e-02 7.121e-02 2.450e-02 6.850e-02 5.492e-02 6.807e-02 7.179e-02 5.518e-03 6.673e-02 3.158e-02 7.037e-02 4.908e-02 7.411e-02 3.759e-02 7.108e-02 4.784e-02 7.265e-02 3.970e-02 6.851e-02 2.183e-02 6.676e-02 3.955e-02 6.960e-02 3.251e-02 7.216e-02 2.559e-02 7.023e-02 1.777e-02 7.163e-02 7.224e-02 1.203e-02 7.252e-02 2.781e-02 7.050e-02 1.922e-02 7.453e-02 1.287e-02 7.499e-02 1.344e-02 7.027e-02 5.990e-03 7.013e-02 1.361e-02 7.300e-02 6.598e-02 6.487e-02 5.671e-02 7.136e-02 7.435e-02 6.608e-02 6.294e-02 5.335e-02 6.546e-02 5.101e-02 4.658e-02 3.889e-02 3.605e-02 4.154e-02 3.388e-02 6.739e-02 7.320e-02 1.219e-02 3.895e-02 2.968e-02 3.257e-02 3.257e-02 2.587e-02 2.193e-02 1.931e-02 1.542e-02 1.868e-02 1.314e-02 7.269e-02 6.844e-02 2.736e-02 1.004e-02 8.687e-03 5.278e-03 2.478e-03 7.100e-02 6.974e-02 1.267e-02 7.019e-02 7.153e-02 6.877e-02 7.272e-02 7.096e-02 5.311e-02 6.576e-02 7.172e-01 6.939e-01 6.721e-01 6.518e-01 6.330e-01 6.155e-01 5.994e-01 5.847e-01 5.720e-01 5.617e-01 5.535e-01 5.467e-01 5.405e-01 5.349e-01 5.298e-01 5.252e-01 5.212e-01 5.176e-01 5.147e-01 5.122e-01 5.102e-01 5.088e-01 5.079e-01 1.691e-01
           </DataArray>
           <DataArray type="Float32" Name="parentRootClassID" NumberOfComponents="1" format="ascii">