<?xml version="1.0"?>
<VTKFile type="UnstructuredGrid" version="0.1" byte_order="LittleEndian">
   <UnstructuredGrid>
      <Piece NumberOfPoints="32420" NumberOfCells="2285">
         <Points>
            <DataArray type="Float32" Name="Position" NumberOfComponents="3" format="ascii">
-0.053	-5.036	0.146
-0.054	-5.028	0.150
-0.055	-5.019	0.149
-0.056	-5.012	0.142
-0.055	-5.011	0.133
-0.055	-5.015	0.125
-0.053	-5.023	0.121
-0.052	-5.032	0.122
-0.052	-5.039	0.128
-0.052	-5.040	0.137
-0.880	-5.128	0.103
-0.881	-5.120	0.107
-0.882	-5.111	0.106
-0.882	-5.104	0.100
-0.882	-5.102	0.091
-0.881	-5.106	0.082
-0.880	-5.114	0.078
-0.879	-5.123	0.079
-0.879	-5.130	0.085
-0.879	-5.132	0.094
-1.753	-5.217	0.067
-1.754	-5.208	0.071
-1.754	-5.199	0.070
-1.755	-5.193	0.064
-1.755	-5.191	0.055
-1.754	-5.195	0.046
-1.753	-5.203	0.042
-1.752	-5.212	0.043
-1.752	-5.219	0.049
-1.752	-5.220	0.058
-2.622	-5.280	0.044
-2.622	-5.273	0.049
-2.623	-5.263	0.049
-2.625	-5.256	0.043
-2.626	-5.254	0.034
-2.626	-5.257	0.025
-2.626	-5.265	0.020
-2.625	-5.274	0.021
-2.624	-5.281	0.026
-2.622	-5.284	0.035
-2.928	-5.314	0.092
-2.923	-5.314	0.101
-2.925	-5.314	0.110
-2.931	-5.314	0.116
-2.941	-5.314	0.118
-2.949	-5.314	0.114
-2.953	-5.314	0.105
-2.952	-5.314	0.096
-2.945	-5.314	0.090
-2.936	-5.314	0.088
-0.097	-5.074	0.253
-0.098	-5.068	0.260
-0.101	-5.065	0.268
-0.105	-5.069	0.276
-0.109	-5.076	0.279
-0.111	-5.085	0.278
-0.110	-5.092	0.272
-0.107	-5.094	0.263
-0.103	-5.091	0.256
-0.099	-5.083	0.252
0.644	-5.293	0.569
0.644	-5.286	0.576
0.641	-5.284	0.584
0.637	-5.288	0.592
0.633	-5.295	0.595
0.631	-5.304	0.594
0.631	-5.311	0.587
0.633	-5.312	0.578
0.637	-5.309	0.571
0.641	-5.301	0.567
1.390	-5.612	0.790
1.391	-5.605	0.796
1.388	-5.602	0.804
1.383	-5.605	0.812
1.378	-5.612	0.815
1.374	-5.620	0.814
1.374	-5.627	0.807
1.377	-5.630	0.799
1.381	-5.627	0.792
1.387	-5.620	0.788
1.999	-5.989	1.217
1.999	-5.981	1.222
1.996	-5.975	1.229
1.989	-5.975	1.235
1.982	-5.980	1.239
1.977	-5.988	1.238
1.977	-5.996	1.234
1.980	-6.001	1.227
1.987	-6.001	1.220
1.994	-5.996	1.217
2.124	-6.086	1.412
2.125	-6.077	1.415
2.121	-6.071	1.421
2.114	-6.069	1.426
2.106	-6.073	1.430
2.100	-6.080	1.430
2.099	-6.089	1.426
2.103	-6.095	1.420
2.110	-6.097	1.415
2.118	-6.093	1.412
-0.533	-5.867	1.285
-0.535	-5.860	1.289
-0.538	-5.851	1.289
-0.539	-5.844	1.283
-0.538	-5.841	1.274
-0.536	-5.845	1.265
-0.534	-5.852	1.260
-0.531	-5.861	1.261
-0.530	-5.868	1.267
-0.531	-5.870	1.276
-1.371	-6.082	1.172
-1.373	-6.075	1.178
-1.375	-6.066	1.177
-1.377	-6.059	1.172
-1.377	-6.056	1.163
-1.377	-6.059	1.154
-1.375	-6.066	1.149
-1.373	-6.076	1.149
-1.371	-6.083	1.155
-1.371	-6.085	1.164
-2.182	-6.244	1.266
-2.183	-6.237	1.271
-2.185	-6.228	1.272
-2.187	-6.221	1.266
-2.188	-6.218	1.257
-2.188	-6.221	1.249
-2.187	-6.228	1.243
-2.185	-6.237	1.243
-2.183	-6.245	1.248
-2.182	-6.247	1.257
-2.994	-6.425	1.274
-2.995	-6.418	1.279
-2.996	-6.409	1.279
-2.998	-6.401	1.274
-3.000	-6.399	1.265
-3.000	-6.402	1.256
-2.999	-6.409	1.251
-2.998	-6.418	1.251
-2.996	-6.426	1.256
-2.994	-6.428	1.265
-3.436	-6.484	1.365
-3.436	-6.476	1.371
-3.437	-6.467	1.371
-3.439	-6.460	1.366
-3.441	-6.457	1.357
-3.442	-6.460	1.348
-3.443	-6.468	1.343
-3.441	-6.477	1.343
-3.439	-6.484	1.348
-3.437	-6.487	1.357
-2.017	-18.469	4.838
-2.016	-18.460	4.836
-2.012	-18.453	4.830
-2.006	-18.452	4.823
-2.000	-18.457	4.817
-1.997	-18.465	4.815
-1.998	-18.474	4.817
-2.002	-18.481	4.822
-2.008	-18.482	4.829
-2.014	-18.477	4.835
-2.302	-18.488	4.578
-2.294	-18.484	4.578
-2.285	-18.485	4.578
-2.278	-18.492	4.578
-2.277	-18.501	4.578
-2.281	-18.509	4.578
-2.289	-18.513	4.578
-2.299	-18.512	4.578
-2.305	-18.505	4.578
-2.307	-18.496	4.578
-2.014	-18.605	4.816
-2.006	-18.603	4.820
-2.000	-18.606	4.826
-1.997	-18.614	4.831
-2.000	-18.622	4.833
-2.006	-18.629	4.832
-2.014	-18.631	4.827
-2.021	-18.628	4.822
-2.023	-18.620	4.817
-2.021	-18.611	4.815
-1.825	-18.735	4.513
-1.817	-18.733	4.517
-1.810	-18.737	4.523
-1.807	-18.744	4.528
-1.810	-18.753	4.530
-1.816	-18.760	4.529
-1.824	-18.762	4.525
-1.831	-18.758	4.519
-1.833	-18.751	4.514
-1.831	-18.742	4.512
-2.023	-18.769	4.833
-2.023	-18.760	4.830
-2.020	-18.754	4.824
-2.014	-18.752	4.817
-2.008	-18.757	4.812
-2.004	-18.765	4.810
-2.004	-18.774	4.812
-2.007	-18.780	4.818
-2.013	-18.781	4.825
-2.019	-18.777	4.831
-2.261	-18.840	4.627
-2.261	-18.831	4.624
-2.258	-18.824	4.618
-2.252	-18.823	4.611
-2.246	-18.827	4.605
-2.242	-18.835	4.603
-2.242	-18.844	4.606
-2.245	-18.850	4.612
-2.251	-18.852	4.619
-2.257	-18.848	4.625
-2.006	-18.918	4.808
-2.006	-18.909	4.811
-2.011	-18.903	4.816
-2.018	-18.903	4.822
-2.024	-18.907	4.827
-2.029	-18.915	4.828
-2.028	-18.924	4.825
-2.024	-18.930	4.819
-2.017	-18.931	4.813
-2.010	-18.926	4.809
-1.837	-18.981	5.007
-1.837	-18.972	5.010
-1.841	-18.966	5.016
-1.848	-18.965	5.022
-1.855	-18.970	5.026
-1.859	-18.978	5.027
-1.859	-18.987	5.024
-1.854	-18.993	5.018
-1.847	-18.994	5.012
-1.841	-18.989	5.008
-2.034	-19.061	4.820
-2.030	-19.054	4.815
-2.023	-19.052	4.810
-2.015	-19.056	4.805
-2.010	-19.063	4.804
-2.009	-19.072	4.807
-2.013	-19.079	4.812
-2.020	-19.081	4.818
-2.027	-19.078	4.822
-2.033	-19.070	4.823
-2.184	-19.138	4.612
-2.181	-19.131	4.607
-2.174	-19.129	4.601
-2.166	-19.132	4.597
-2.161	-19.139	4.596
-2.160	-19.148	4.598
-2.163	-19.155	4.603
-2.170	-19.157	4.609
-2.178	-19.154	4.613
-2.183	-19.146	4.614
-2.013	-19.222	4.804
-2.011	-19.213	4.806
-2.015	-19.206	4.810
-2.023	-19.202	4.814
-2.031	-19.204	4.816
-2.038	-19.211	4.817
-2.039	-19.220	4.815
-2.036	-19.227	4.811
-2.028	-19.231	4.807
-2.020	-19.229	4.804
-1.929	-19.291	5.023
-1.927	-19.282	5.025
-1.931	-19.274	5.029
-1.939	-19.271	5.033
-1.947	-19.272	5.035
-1.954	-19.279	5.036
-1.955	-19.288	5.034
-1.952	-19.296	5.030
-1.944	-19.299	5.026
-1.936	-19.297	5.023
-2.024	-19.379	4.818
-2.023	-19.372	4.824
-2.024	-19.363	4.825
-2.028	-19.355	4.821
-2.033	-19.352	4.814
-2.037	-19.354	4.806
-2.038	-19.361	4.800
-2.036	-19.370	4.799
-2.033	-19.378	4.802
-2.028	-19.381	4.810
-2.187	-19.418	4.904
-2.186	-19.411	4.910
-2.187	-19.402	4.911
-2.191	-19.394	4.908
-2.196	-19.391	4.900
-2.200	-19.394	4.892
-2.201	-19.401	4.886
-2.199	-19.410	4.885
-2.196	-19.417	4.889
-2.191	-19.421	4.896
-2.046	-19.506	4.814
-2.039	-19.502	4.811
-2.030	-19.503	4.809
-2.023	-19.509	4.809
-2.021	-19.518	4.810
-2.024	-19.526	4.813
-2.032	-19.531	4.815
-2.041	-19.530	4.817
-2.048	-19.523	4.818
-2.050	-19.514	4.817
-2.094	-19.542	4.629
-2.086	-19.538	4.626
-2.077	-19.539	4.624
-2.070	-19.545	4.623
-2.068	-19.554	4.625
-2.072	-19.562	4.627
-2.079	-19.567	4.630
-2.088	-19.566	4.632
-2.095	-19.559	4.633
-2.097	-19.550	4.631
-2.032	-19.678	4.824
-2.031	-19.671	4.830
-2.032	-19.662	4.830
-2.035	-19.654	4.826
-2.038	-19.651	4.818
-2.042	-19.654	4.809
-2.043	-19.661	4.804
-2.042	-19.671	4.803
-2.039	-19.678	4.808
-2.035	-19.681	4.816
-2.201	-19.700	4.897
-2.200	-19.693	4.903
-2.201	-19.684	4.903
-2.204	-19.676	4.899
-2.208	-19.673	4.891
-2.211	-19.676	4.883
-2.212	-19.683	4.877
-2.211	-19.693	4.877
-2.208	-19.700	4.881
-2.204	-19.703	4.889
-2.046	-19.806	4.824
-2.040	-19.802	4.819
-2.031	-19.804	4.815
-2.024	-19.810	4.814
-2.021	-19.818	4.816
-2.024	-19.826	4.821
-2.030	-19.830	4.826
-2.039	-19.829	4.829
-2.046	-19.823	4.830
-2.049	-19.814	4.828
-2.110	-19.860	4.697
-2.103	-19.856	4.692
-2.094	-19.858	4.688
-2.087	-19.864	4.687
-2.085	-19.872	4.690
-2.087	-19.880	4.694
-2.094	-19.884	4.699
-2.102	-19.883	4.703
-2.109	-19.877	4.704
-2.112	-19.868	4.702
-0.570	-5.973	1.376
-0.566	-5.965	1.379
-0.566	-5.956	1.380
-0.572	-5.949	1.377
-0.579	-5.946	1.373
-0.587	-5.949	1.369
-0.591	-5.957	1.366
-0.591	-5.966	1.366
-0.586	-5.973	1.368
-0.578	-5.976	1.372
-0.984	-6.041	2.151
-0.980	-6.034	2.155
-0.981	-6.025	2.156
-0.986	-6.017	2.154
-0.994	-6.015	2.149
-1.001	-6.018	2.145
-1.005	-6.025	2.141
-1.004	-6.034	2.140
-0.999	-6.042	2.142
-0.991	-6.044	2.146
-1.444	-6.204	2.869
-1.441	-6.196	2.873
-1.441	-6.187	2.874
-1.446	-6.180	2.872
-1.453	-6.177	2.866
-1.460	-6.180	2.860
-1.463	-6.187	2.856
-1.463	-6.196	2.855
-1.458	-6.204	2.858
-1.451	-6.207	2.863
-1.716	-6.230	3.136
-1.713	-6.223	3.140
-1.713	-6.213	3.141
-1.717	-6.206	3.137
-1.723	-6.203	3.131
-1.729	-6.206	3.125
-1.733	-6.213	3.121
-1.733	-6.222	3.120
-1.729	-6.230	3.123
-1.722	-6.233	3.130
-2.032	-19.956	4.817
-2.028	-19.952	4.824
-2.026	-19.954	4.833
-2.027	-19.960	4.840
-2.030	-19.969	4.842
-2.034	-19.976	4.839
-2.038	-19.980	4.831
-2.040	-19.978	4.822
-2.039	-19.972	4.815
-2.036	-19.963	4.813
-1.929	-20.000	4.785
-1.926	-19.996	4.793
-1.924	-19.997	4.802
-1.924	-20.004	4.809
-1.927	-20.012	4.811
-1.931	-20.020	4.808
-1.935	-20.023	4.800
-1.937	-20.022	4.791
-1.937	-20.016	4.784
-1.934	-20.007	4.782
-2.033	-20.127	4.847
-2.036	-20.120	4.852
-2.038	-20.111	4.851
-2.040	-20.104	4.846
-2.039	-20.101	4.837
-2.036	-20.104	4.828
-2.033	-20.112	4.823
-2.031	-20.120	4.824
-2.030	-20.127	4.830
-2.030	-20.130	4.839
-2.119	-20.154	4.832
-2.122	-20.146	4.837
-2.125	-20.137	4.837
-2.126	-20.130	4.831
-2.125	-20.128	4.822
-2.123	-20.131	4.813
-2.120	-20.138	4.808
-2.117	-20.147	4.809
-2.116	-20.154	4.815
-2.117	-20.157	4.824
-2.036	-20.276	4.859
-2.038	-20.269	4.864
-2.041	-20.260	4.863
-2.041	-20.253	4.856
-2.040	-20.251	4.847
-2.038	-20.254	4.839
-2.035	-20.262	4.835
-2.033	-20.271	4.836
-2.033	-20.278	4.842
-2.034	-20.280	4.851
-2.115	-20.296	4.846
-2.118	-20.289	4.850
-2.120	-20.280	4.849
-2.121	-20.273	4.843
-2.120	-20.271	4.834
-2.117	-20.274	4.826
-2.115	-20.282	4.821
-2.113	-20.291	4.822
-2.112	-20.298	4.828
-2.113	-20.300	4.837
-2.045	-20.403	4.854
-2.036	-20.401	4.857
-2.029	-20.404	4.861
-2.026	-20.412	4.866
-2.028	-20.420	4.868
-2.034	-20.427	4.867
-2.043	-20.429	4.864
-2.050	-20.425	4.860
-2.053	-20.418	4.855
-2.051	-20.409	4.853
-2.021	-20.422	4.802
-2.013	-20.420	4.805
-2.005	-20.423	4.809
-2.002	-20.431	4.814
-2.004	-20.439	4.816
-2.011	-20.446	4.815
-2.019	-20.448	4.812
-2.026	-20.445	4.808
-2.030	-20.437	4.803
-2.028	-20.428	4.801
-2.038	-20.558	4.860
-2.038	-20.551	4.867
-2.040	-20.550	4.876
[...]
         <CellData>
           <DataArray type="Float32" Name="combinedRootClassID" NumberOfComponents="1" format="ascii">
 -1.300e+01 -1.300e+01 -1.300e+01 -1.300e+01 -1.300e+01 -1.300e+01 -1.300e+01 -1.300e+01 -1.300e+01 -1.300e+01 -1.300e+01 -1.300e+01 -1.300e+01 -1.300e+01 -1.300e+01 -1.300e+01 -1.300e+01 -1.300e+01 -1.300e+01 -1.300e+01 -1.300e+01 -1.300e+01 -1.300e+01 -1.300e+01 -1.300e+01 -1.300e+01 -1.300e+01 -1.300e+01 -1.300e+01 -1.300e+01 -1.300e+01 -1.300e+01 -1.300e+01 -1.300e+01 -1.300e+01 -1.300e+01 -1.300e+01 -1.300e+01 -1.300e+01 -1.300e+01 -1.300e+01 -1.300e+01 -1.300e+01 -1.300e+01 -1.300e+01 -1.300e+01 -1.300e+01 -1.300e+01 -1.300e+01 -1.300e+01 -1.300e+01 -1.300e+01 -1.300e+01 -1.300e+01 -1.300e+01 -1.300e+01 -1.300e+01 -1.300e+01 -1.300e+01 -1.300e+01 -1.300e+01 -1.300e+01 -1.300e+01 -1.300e+01 -1.300e+01 -1.300e+01 -1.300e+01 -1.300e+01 -1.300e+01 -1.300e+01 -1.300e+01 -1.300e+01 -1.300e+01 -1.300e+01 -1.300e+01 -1.300e+01 -1.300e+01 -1.300e+01 -1.300e+01 -1.300e+01 -1.300e+01 -1.300e+01 -1.300e+01 -1.300e+01 -1.300e+01 -1.300e+01 -1.300e+01 -1.300e+01 -1.300e+01 -1.300e+01 -1.300e+01 -1.300e+01 -1.300e+01 -1.300e+01 -1.300e+01 -1.300e+01 -1.300e+01 -1.300e+01 -1.300e+01 -1.300e+01 -1.300e+01 -1.300e+01 -1.300e+01 -1.300e+01 -1.300e+01 -1.300e+01 -1.300e+01 -1.300e+01 -1.300e+01 -1.300e+01 -1.300e+01 -1.300e+01 -1.300e+01 -1.300e+01 -1.300e+01 -1.300e+01 -1.300e+01 -1.300e+01 -1.300e+01 -1.300e+01 -1.300e+01 -1.300e+01 -1.300e+01 -1.300e+01 -1.300e+01 -1.300e+01 -1.300e+01 -1.300e+01 -1.300e+01 -1.300e+01 -1.300e+01 -1.300e+01 -1.300e+01 -1.300e+01 -1.300e+01 -1.300e+01 -1.300e+01 -1.300e+01 -1.300e+01 -1.300e+01 -1.300e+01 -1.300e+01 -1.300e+01 -1.300e+01 -1.300e+01 -1.300e+01 -1.300e+01 -1.300e+01 -1.300e+01 -1.300e+01 -1.300e+01 -1.300e+01 -1.300e+01 -1.300e+01 -1.300e+01 -1.300e+01 -1.300e+01 -1.300e+01 -1.300e+01 -1.300e+01 -1.300e+01 -1.300e+01 -1.300e+01 -1.300e+01 -1.300e+01 -1.300e+01 -1.300e+01 -1.300e+01 -1.300e+01 -1.300e+01 -1.300e+01 -1.300e+01 -1.300e+01 -1.300e+01 -1.300e+01 -1.300e+01 -1.300e+01 -1.300e+01 -1.300e+01 -1.300e+01 -1.300e+01 -1.300e+01 -1.300e+01 -1.300e+01 -1.300e+01 -1.300e+01 -1.300e+01 -1.300e+01 -1.300e+01 -1.300e+01 -1.300e+01 -1.300e+01 -1.300e+01 -1.300e+01 -1.300e+01 -1.300e+01 -1.300e+01 -1.300e+01 -1.300e+01 -1.300e+01 -1.300e+01 -1.300e+01 -1.300e+01 -1.300e+01 -1.300e+01 -1.300e+01 -1.300e+01 -1.300e+01 -1.300e+01 -1.300e+01 -1.300e+01 -1.300e+01 -1.300e+01 -1.300e+01 -1.300e+01 -1.300e+01 -1.300e+01 -1.300e+01 -1.300e+01 -1.300e+01 -1.300e+01 -1.300e+01 -1.300e+01 -1.300e+01 -1.300e+01 -1.300e+01 -1.300e+01 -1.300e+01 -1.300e+01 -1.300e+01 -1.300e+01 -1.300e+01 -5.000e+00 -5.000e+00 -5.000e+00 -5.000e+00 -5.000e+00 -5.000e+00 -5.000e+00 -5.000e+00 -5.000e+00 -5.000e+00 -5.000e+00 -5.000e+00 -5.000e+00 -5.000e+00 -5.000e+00 -5.000e+00 -5.000e+00 -5.000e+00 -5.000e+00 -5.000e+00 -5.000e+00 -5.000e+00 -5.000e+00 -5.000e+00 -5.000e+00 -5.000e+00 -5.000e+00 -5.000e+00 -5.000e+00 -5.000e+00 -5.000e+00 -5.000e+00 -5.000e+00 -1.300e+01 -1.300e+01 -1.300e+01 -1.300e+01 -1.300e+01 -1.300e+01 -1.300e+01 -1.300e+01 -1.300e+01 -1.300e+01 -1.300e+01 -1.300e+01 -1.300e+01 -1.300e+01 -1.300e+01 -1.300e+01 -1.300e+01 -1.300e+01 -1.300e+01 -1.300e+01 -1.300e+01 -1.300e+01 -1.300e+01 -1.300e+01 -1.300e+01 -1.300e+01 -1.300e+01 -1.300e+01 -1.300e+01 -1.300e+01 -1.300e+01 -1.300e+01 -1.300e+01 -1.300e+01 -1.300e+01 -1.300e+01 -1.300e+01 -1.300e+01 -1.300e+01 -1.300e+01 -1.300e+01 -1.300e+01 -1.300e+01 -1.300e+01 -1.300e+01 -1.300e+01 -1.300e+01 -1.300e+01 -1.300e+01 -1.300e+01 -1.300e+01 -1.300e+01 -1.300e+01 -1.300e+01 -1.300e+01 -1.300e+01 -1.300e+01 -1.300e+01 -1.300e+01 -1.300e+01 -1.300e+01 -1.300e+01 -1.300e+01 -1.300e+01 -1.300e+01 -1.300e+01 -1.300e+01 -1.300e+01 -1.300e+01 -1.300e+01 -1.300e+01 -1.300e+01 -1.300e+01 -1.300e+01 -1.300e+01 -1.300e+01 -1.300e+01 -1.300e+01 -1.300e+01 -1.300e+01 -1.300e+01 -1.300e+01 -1.300e+01 -1.300e+01 -1.300e+01 -1.300e+01 -1.300e+01 -1.300e+01 -1.300e+01 -1.300e+01 -1.300e+01 -1.300e+01 -1.300e+01 -1.300e+01 -1.300e+01 -1.300e+01 -1.300e+01 -1.300e+01 -1.300e+01 -1.300e+01 -1.300e+01 -1.300e+01 -1.300e+01 -1.300e+01 -1.300e+01 -1.300e+01 -1.300e+01 -1.300e+01 -1.300e+01 -1.300e+01 -1.300e+01 -1.300e+01 -1.300e+01 -1.300e+01 -1.300e+01 -1.300e+01 -1.300e+01 -1.300e+01 -1.300e+01 -1.300e+01 -1.300e+01 -1.300e+01 -1.300e+01 -1.300e+01 -1.300e+01 -1.300e+01 -1.300e+01 -1.300e+01 -1.300e+01 -1.300e+01 -1.300e+01 -1.300e+01 -1.300e+01 -1.300e+01 -1.300e+01 -1.300e+01 -1.300e+01 -1.300e+01 -1.300e+01 -1.300e+01 -1.300e+01 -1.300e+01 -1.300e+01 -1.300e+01 -1.300e+01 -1.300e+01 -1.300e+01 -1.300e+01 -1.300e+01 -1.300e+01 -1.300e+01 -1.300e+01 -1.300e+01 -1.300e+01 -1.300e+01 -1.300e+01 -1.300e+01 -1.300e+01 -1.300e+01 -1.300e+01 -1.300e+01 -1.300e+01 -1.300e+01 -1.300e+01 -1.300e+01 -1.300e+01 -1.300e+01 -1.300e+01 -1.300e+01 -1.300e+01 -1.300e+01 -1.300e+01 -1.300e+01 -1.300e+01 -1.300e+01 -1.300e+01 -1.300e+01 -1.300e+01 -1.300e+01 -1.300e+01 -1.300e+01 -1.300e+01 -1.300e+01 -1.300e+01 -1.300e+01 -1.300e+01 -1.300e+01 -1.300e+01 -1.300e+01 -1.300e+01 -1.300e+01 -1.300e+01 -1.300e+01 -1.300e+01 -1.300e+01 -1.300e+01 -1.300e+01 -1.300e+01 -1.300e+01 -1.300e+01 -1.300e+01 -1.300e+01 -1.300e+01 -1.300e+01 -1.300e+01 -1.300e+01 -1.300e+01 -1.300e+01 -1.300e+01 -1.300e+01 -1.300e+01 -1.300e+01 -1.300e+01 -1.300e+01 -1.300e+01 -1.300e+01 -1.300e+01 -1.300e+01 -1.300e+01 -1.300e+01 -1.300e+01 -1.300e+01 -1.300e+01 -1.300e+01 -1.300e+01 -1.300e+01 -1.300e+01 -1.300e+01 -1.300e+01 -1.300e+01 -1.300e+01 -1.300e+01 -1.300e+01 -1.300e+01 -1.300e+01 -1.300e+01 -1.300e+01 -1.300e+01 -1.300e+01 -1.300e+01 -5.000e+00 -5.000e+00 -5.000e+00 -5.000e+00 -5.000e+00 -5.000e+00 -5.000e+00 -5.000e+00 -5.000e+00 -5.000e+00 -5.000e+00 -5.000e+00 -5.000e+00 -5.000e+00 -5.000e+00 -5.000e+00 -5.000e+00 -5.000e+00 -5.000e+00 -5.000e+00 -5.000e+00 -5.000e+00 -5.000e+00 -5.000e+00 -5.000e+00 -5.000e+00 -5.000e+00 -5.000e+00 -5.000e+00 -5.000e+00 -5.000e+00 -5.000e+00 -5.000e+00 -1.300e+01 -1.300e+01 -1.300e+01 -1.300e+01 -1.300e+01 -1.300e+01 -1.300e+01 -1.300e+01 -1.300e+01 -1.300e+01 -1.300e+01 -1.300e+01 -1.300e+01 -1.300e+01 -1.300e+01 -1.300e+01 -1.300e+01 -1.300e+01 -1.300e+01 -1.300e+01 -1.300e+01 -1.300e+01 -1.300e+01 -1.300e+01 -1.300e+01 -1.300e+01 -1.300e+01 -1.300e+01 -1.300e+01 -1.300e+01 -1.300e+01 -1.300e+01 -1.300e+01 -1.300e+01 -1.300e+01 -1.300e+01 -1.300e+01 -1.300e+01 -1.300e+01 -1.300e+01 -1.300e+01 -1.300e+01 -1.300e+01 -1.300e+01 -1.300e+01 -1.300e+01 -1.300e+01 -1.300e+01 -1.300e+01 -1.300e+01 -1.300e+01 -1.300e+01 -1.300e+01 -1.300e+01 -1.300e+01 -1.300e+01 -1.300e+01 -1.300e+01 -1.300e+01 -1.300e+01 -1.300e+01 -1.300e+01 -1.300e+01 -1.300e+01 -1.300e+01 -1.300e+01 -1.300e+01 -1.300e+01 -1.300e+01 -1.300e+01 -1.300e+01 -1.300e+01 -1.300e+01 -1.300e+01 -1.300e+01 -1.300e+01 -1.300e+01 -1.300e+01 -1.300e+01 -1.300e+01 -1.300e+01 -1.300e+01 -1.300e+01 -1.300e+01 -1.300e+01 -1.300e+01 -1.300e+01 -1.300e+01 -1.300e+01 -1.300e+01 -1.300e+01 -1.300e+01 -1.300e+01 -1.300e+01 -1.300e+01 -1.300e+01 -1.300e+01 -1.300e+01 -1.300e+01 -1.300e+01 -1.300e+01 -1.300e+01 -1.300e+01 -1.300e+01 -1.300e+01 -1.300e+01 -1.300e+01 -1.300e+01 -1.300e+01 -1.300e+01 -1.300e+01 -1.300e+01 -1.300e+01 -1.300e+01 -1.300e+01 -1.300e+01 -1.300e+01 -1.300e+01 -1.300e+01 -1.300e+01 -1.300e+01 -1.300e+01 -1.300e+01 -1.300e+01 -1.300e+01 -1.300e+01 -1.300e+01 -1.300e+01 -1.300e+01 -1.300e+01 -1.300e+01 -1.300e+01 -1.300e+01 -1.300e+01 -1.300e+01 -1.300e+01 -1.300e+01 -1.300e+01 -1.300e+01 -1.300e+01 -1.300e+01 -1.300e+01 -1.300e+01 -1.300e+01 -1.300e+01 -1.300e+01 -1.300e+01 -1.300e+01 -1.300e+01 -1.300e+01 -1.300e+01 -1.300e+01 -1.300e+01 -1.300e+01 -1.300e+01 -1.300e+01 -1.300e+01 -1.300e+01 -1.300e+01 -1.300e+01 -1.300e+01 -1.300e+01 -1.300e+01 -1.300e+01 -1.300e+01 -1.300e+01 -1.300e+01 -1.300e+01 -1.300e+01 -1.300e+01 -1.300e+01 -1.300e+01 -1.300e+01 -1.300e+01 -1.300e+01 -1.300e+01 -1.300e+01 -1.300e+01 -1.300e+01 -1.300e+01 -1.300e+01 -1.300e+01 -1.300e+01 -1.300e+01 -1.300e+01 -1.300e+01 -1.300e+01 -1.300e+01 -1.300e+01 -1.300e+01 -1.300e+01 -1.300e+01 -1.300e+01 -1.300e+01 -1.300e+01 -1.300e+01 -1.300e+01 -1.300e+01 -1.300e+01 -1.300e+01 -1.300e+01 -1.300e+01 -1.300e+01 -1.300e+01 -1.300e+01 -1.300e+01 -1.300e+01 -1.300e+01 -1.300e+01 -1.300e+01 -1.300e+01 -1.300e+01 -1.300e+01 -1.300e+01 -1.300e+01 -1.300e+01 -1.300e+01 -1.300e+01 -1.300e+01 -1.300e+01 -1.300e+01 -1.300e+01 -1.300e+01 -1.300e+01 -1.300e+01 -1.300e+01 -1.300e+01 -1.300e+01 -1.300e+01 -1.300e+01 -1.300e+01 -1.300e+01 -1.300e+01 -1.300e+01 -5.000e+00 -5.000e+00 -5.000e+00 -5.000e+00 -5.000e+00 -5.000e+00 -5.000e+00 -5.000e+00 -5.000e+00 -5.000e+00 -5.000e+00 -5.000e+00 -5.000e+00 -5.000e+00 -5.000e+00 -5.000e+00 -5.000e+00 -5.000e+00 -5.000e+00 -5.000e+00 -5.000e+00 -5.000e+00 -5.000e+00 -5.000e+00 -5.000e+00 -5.000e+00 -5.000e+00 -5.000e+00 -5.000e+00 -5.000e+00 -5.000e+00 -5.000e+00 -5.000e+00 -1.300e+01 -1.300e+01 -1.300e+01 -1.300e+01 -1.300e+01 -1.300e+01 -1.300e+01 -1.300e+01 -1.300e+01 -1.300e+01 -1.300e+01 -1.300e+01 -1.300e+01 -1.300e+01 -1.300e+01 -1.300e+01 -1.300e+01 -1.300e+01 -1.300e+01 -1.300e+01 -1.300e+01 -1.300e+01 -1.300e+01 -1.300e+01 -1.300e+01 -1.300e+01 -1.300e+01 -1.300e+01 -1.300e+01 -1.300e+01 -1.300e+01 -1.300e+01 -1.300e+01 -1.300e+01 -1.300e+01 -1.300e+01 -1.300e+01 -1.300e+01 -1.300e+01 -1.300e+01 -1.300e+01 -1.300e+01 -1.300e+01 -1.300e+01 -1.300e+01 -1.300e+01 -1.300e+01 -1.300e+01 -1.300e+01 -1.300e+01 -1.300e+01 -1.300e+01 -1.300e+01 -1.300e+01 -1.300e+01 -1.300e+01 -1.300e+01 -1.300e+01 -1.300e+01 -1.300e+01 -1.300e+01 -1.300e+01 -1.300e+01 -1.300e+01 -1.300e+01 -1.300e+01 -1.300e+01 -1.300e+01 -1.300e+01 -1.300e+01 -1.300e+01 -1.300e+01 -1.300e+01 -1.300e+01 -1.300e+01 -1.300e+01 -1.300e+01 -1.300e+01 -1.300e+01 -1.300e+01 -1.300e+01 -1.300e+01 -1.300e+01 -1.300e+01 -1.300e+01 -1.300e+01 -1.300e+01 -1.300e+01 -1.300e+01 -1.300e+01 -1.300e+01 -1.300e+01 -1.300e+01 -1.300e+01 -1.300e+01 -1.300e+01 -1.300e+01 -1.300e+01 -1.300e+01 -1.300e+01 -1.300e+01 -1.300e+01 -1.300e+01 -1.300e+01 -1.300e+01 -1.300e+01 -1.300e+01 -1.300e+01 -1.300e+01 -1.300e+01 -1.300e+01 -1.300e+01 -1.300e+01 -1.300e+01 -1.300e+01 -1.300e+01 -1.300e+01 -1.300e+01 -1.300e+01 -1.300e+01 -1.300e+01 -1.300e+01 -1.300e+01 -1.300e+01 -1.300e+01 -1.300e+01 -1.300e+01 -1.300e+01 -1.300e+01 -1.300e+01 -1.300e+01 -1.300e+01 -1.300e+01 -1.300e+01 -1.300e+01 -1.300e+01 -1.300e+01 -1.300e+01 -1.300e+01 -1.300e+01 -1.300e+01 -1.300e+01 -1.300e+01 -1.300e+01 -1.300e+01 -1.300e+01 -1.300e+01 -1.300e+01 -1.300e+01 -1.300e+01 -1.300e+01 -1.300e+01 -1.300e+01 -1.300e+01 -1.300e+01 -1.300e+01 -1.300e+01 -1.300e+01 -1.300e+01 -1.300e+01 -1.300e+01 -1.300e+01 -1.300e+01 -1.300e+01 -1.300e+01 -1.300e+01 -1.300e+01 -1.300e+01 -1.300e+01 -1.300e+01 -1.300e+01 -1.300e+01 -1.300e+01 -1.300e+01 -1.300e+01 -1.300e+01 -1.300e+01 -1.300e+01 -1.300e+01 -1.300e+01 -1.300e+01 -1.300e+01 -1.300e+01 -1.300e+01 -1.300e+01 -1.300e+01 -1.300e+01 -1.300e+01 -1.300e+01 -1.300e+01 -1.300e+01 -1.300e+01 -1.300e+01 -1.300e+01 -1.300e+01 -1.300e+01 -1.300e+01 -1.300e+01 -1.300e+01 -1.300e+01 -1.300e+01 -1.300e+01 -1.300e+01 -1.300e+01 -1.300e+01 -1.300e+01 -1.300e+01 -1.300e+01 -1.300e+01 -1.300e+01 -1.300e+01 -1.300e+01 -1.300e+01 -1.300e+01 -1.300e+01 -1.300e+01 -1.300e+01 -1.300e+01 -1.300e+01 -1.300e+01 -1.300e+01 -1.300e+01 -1.300e+01 -1.300e+01 -1.300e+01 -1.300e+01 -1.300e+01 -1.300e+01 -1.300e+01 -1.300e+01 -1.300e+01 -1.300e+01 -1.300e+01 -1.300e+01 -1.300e+01 -1.300e+01 -1.300e+01 -1.300e+01 -5.000e+00 -5.000e+00 -5.000e+00 -5.000e+00 -5.000e+00 -5.000e+00 -5.000e+00 -5.000e+00 -5.000e+00 -5.000e+00 -5.000e+00 -5.000e+00 -5.000e+00 -5.000e+00 -5.000e+00 -5.000e+00 -5.000e+00 -5.000e+00 -5.000e+00 -5.000e+00 -5.000e+00 -5.000e+00 -5.000e+00 -5.000e+00 -5.000e+00 -5.000e+00 -5.000e+00 -5.000e+00 -5.000e+00 -5.000e+00 -5.000e+00 -5.000e+00 -5.000e+00 -1.900e+01 -1.900e+01 -1.900e+01 -1.900e+01 -1.900e+01 -1.900e+01 -1.900e+01 -1.900e+01 -1.900e+01 -1.900e+01 -1.900e+01 -1.900e+01 -1.900e+01 -1.900e+01 -1.900e+01 -1.900e+01 -1.900e+01 -1.900e+01 -1.900e+01 -1.900e+01 -1.900e+01 -1.900e+01 -1.900e+01 -1.900e+01 -1.900e+01 -1.900e+01 -1.900e+01 -1.900e+01 -1.900e+01 -1.900e+01 -1.900e+01 -1.900e+01 -1.900e+01 -1.900e+01 -1.900e+01 -1.900e+01 -1.900e+01 -1.900e+01 -1.900e+01 -1.900e+01 -1.900e+01 -1.900e+01 -1.900e+01 -1.900e+01 -1.900e+01 -1.900e+01 -1.900e+01 -1.900e+01 -1.900e+01 -1.900e+01 -1.900e+01 -1.900e+01 -1.900e+01 -1.900e+01 -1.900e+01 -1.900e+01 -1.100e+01 -1.100e+01 -1.100e+01 -1.100e+01 -1.100e+01 -1.100e+01 -1.100e+01 -1.100e+01 -1.100e+01 -1.100e+01 -1.100e+01 -1.100e+01 -1.100e+01 -1.100e+01 -1.100e+01 -1.100e+01 -1.100e+01 -1.100e+01 -1.100e+01 -1.100e+01 -1.100e+01 -1.100e+01 -1.900e+01 -1.900e+01 -1.900e+01 -1.900e+01 -1.900e+01 -1.900e+01 -1.900e+01 -1.900e+01 -1.900e+01 -1.900e+01 -1.900e+01 -1.900e+01 -1.900e+01 -1.900e+01 -1.900e+01 -1.900e+01 -1.900e+01 -1.900e+01 -1.900e+01 -1.900e+01 -1.900e+01 -1.900e+01 -1.900e+01 -1.900e+01 -1.900e+01 -1.900e+01 -1.900e+01 -1.900e+01 -1.900e+01 -1.900e+01 -1.900e+01 -1.900e+01 -1.900e+01 -1.900e+01 -1.900e+01 -1.900e+01 -1.900e+01 -1.900e+01 -1.900e+01 -1.900e+01 -1.900e+01 -1.900e+01 -1.900e+01 -1.900e+01 -1.900e+01 -1.900e+01 -1.900e+01 -1.900e+01 -1.900e+01 -1.900e+01 -1.900e+01 -1.900e+01 -1.900e+01 -1.900e+01 -1.100e+01 -1.100e+01 -1.100e+01 -1.100e+01 -1.100e+01 -1.100e+01 -1.100e+01 -1.100e+01 -1.100e+01 -1.100e+01 -1.100e+01 -1.100e+01 -1.100e+01 -1.100e+01 -1.100e+01 -1.100e+01 -1.100e+01 -1.100e+01 -1.100e+01 -1.100e+01 -1.100e+01 -1.100e+01 -1.900e+01 -1.900e+01 -1.900e+01 -1.900e+01 -1.900e+01 -1.900e+01 -1.900e+01 -1.900e+01 -1.900e+01 -1.900e+01 -1.900e+01 -1.900e+01 -1.900e+01 -1.900e+01 -1.900e+01 -1.900e+01 -1.900e+01 -1.900e+01 -1.900e+01 -1.900e+01 -1.900e+01 -1.900e+01 -1.900e+01 -1.900e+01 -1.900e+01 -1.900e+01 -1.900e+01 -1.900e+01 -1.900e+01 -1.900e+01 -1.900e+01 -1.900e+01 -1.900e+01 -1.900e+01 -1.900e+01 -1.900e+01 -1.900e+01 -1.900e+01 -1.900e+01 -1.900e+01 -1.900e+01 -1.900e+01 -1.900e+01 -1.900e+01 -1.900e+01 -1.900e+01 -1.900e+01 -1.900e+01 -1.900e+01 -1.900e+01 -1.900e+01 -1.900e+01 -1.900e+01 -1.900e+01 -1.100e+01 -1.100e+01 -1.100e+01 -1.100e+01 -1.100e+01 -1.100e+01 -1.100e+01 -1.100e+01 -1.100e+01 -1.100e+01 -1.100e+01 -1.100e+01 -1.100e+01 -1.100e+01 -1.100e+01 -1.100e+01 -1.100e+01 -1.100e+01 -1.100e+01 -1.100e+01 -1.100e+01 -1.100e+01 -1.900e+01 -1.900e+01 -1.900e+01 -1.900e+01 -1.900e+01 -1.900e+01 -1.900e+01 -1.900e+01 -1.900e+01 -1.900e+01 -1.900e+01 -1.900e+01 -1.900e+01 -1.900e+01 -1.900e+01 -1.900e+01 -1.900e+01 -1.900e+01 -1.900e+01 -1.900e+01 -1.900e+01 -1.900e+01 -1.900e+01 -1.900e+01 -1.900e+01 -1.900e+01 -1.900e+01 -1.900e+01 -1.900e+01 -1.900e+01 -1.900e+01 -1.900e+01 -1.900e+01 -1.900e+01 -1.900e+01 -1.900e+01 -1.900e+01 -1.900e+01 -1.900e+01 -1.900e+01 -1.900e+01 -1.900e+01 -1.900e+01 -1.900e+01 -1.900e+01 -1.900e+01 -1.900e+01 -1.900e+01 -1.900e+01 -1.900e+01 -1.900e+01 -1.900e+01 -1.900e+01 -1.900e+01 -1.100e+01 -1.100e+01 -1.100e+01 -1.100e+01 -1.100e+01 -1.100e+01 -1.100e+01 -1.100e+01 -1.100e+01 -1.100e+01 -1.100e+01 -1.100e+01 -1.100e+01 -1.100e+01 -1.100e+01 -1.100e+01 -1.100e+01 -1.100e+01 -1.100e+01 -1.100e+01 -1.100e+01 -1.100e+01 -2.000e+01 -2.000e+01 -2.000e+01 -2.000e+01 -2.000e+01 -2.000e+01 -2.000e+01 -2.000e+01 -2.000e+01 -2.000e+01 -2.000e+01 -2.000e+01 -2.000e+01 -2.000e+01 -2.000e+01 -2.000e+01 -2.000e+01 -2.000e+01 -2.000e+01 -2.000e+01 -2.000e+01 -2.000e+01 -2.000e+01 -2.000e+01 -2.000e+01 -2.000e+01 -2.000e+01 -2.000e+01 -2.000e+00 -2.000e+00 -2.000e+00 -2.000e+00 -2.000e+00 -2.000e+00 -2.000e+00 -2.000e+00 -2.000e+00 -2.000e+00 -1.500e+01 -1.500e+01 -1.500e+01 -7.000e+00 -7.000e+00 -7.000e+00 -7.000e+00 -7.000e+00 -7.000e+00 -7.000e+00 -1.500e+01 -1.500e+01 -1.500e+01 -7.000e+00 -7.000e+00 -7.000e+00 -7.000e+00 -7.000e+00 -7.000e+00 -7.000e+00 -1.500e+01 -1.500e+01 -1.500e+01 -7.000e+00 -7.000e+00 -7.000e+00 -7.000e+00 -7.000e+00 -7.000e+00 -7.000e+00 -7.000e+00 -7.000e+00 -7.000e+00 -7.000e+00 -7.000e+00 -7.000e+00 -7.000e+00 -7.000e+00 -7.000e+00 -7.000e+00 -7.000e+00 -7.000e+00 -7.000e+00 -7.000e+00 -7.000e+00 -7.000e+00 -7.000e+00 -7.000e+00 -7.000e+00 -7.000e+00 -7.000e+00 -7.000e+00 -7.000e+00 -7.000e+00 -7.000e+00 -7.000e+00 -7.000e+00 -7.000e+00 -7.000e+00 -7.000e+00 -7.000e+00 -7.000e+00 -7.000e+00 -7.000e+00 -1.500e+01 -1.500e+01 -7.000e+00 -7.000e+00 -7.000e+00 -7.000e+00 -7.000e+00 -7.000e+00 -7.000e+00 -7.000e+00 -7.000e+00 -7.000e+00 -7.000e+00 -7.000e+00 -7.000e+00 -7.000e+00 -7.000e+00 -7.000e+00 -7.000e+00 -7.000e+00 -7.000e+00 -7.000e+00 -7.000e+00 -7.000e+00 -7.000e+00 -7.000e+00 -7.000e+00 -7.000e+00 -7.000e+00 -7.000e+00 -7.000e+00 -7.000e+00 -7.000e+00 -7.000e+00 -7.000e+00 -7.000e+00 -7.000e+00 -7.000e+00 -1.500e+01 -7.000e+00 -7.000e+00 -7.000e+00 -7.000e+00 -7.000e+00 -7.000e+00 -7.000e+00 -7.000e+00 -7.000e+00 -7.000e+00 -7.000e+00 -7.000e+00 -7.000e+00 -7.000e+00 -7.000e+00 -7.000e+00 -7.000e+00 -7.000e+00 -7.000e+00 -7.000e+00 -7.000e+00 -7.000e+00 -7.000e+00 -7.000e+00 -7.000e+00 -7.000e+00 -7.000e+00 -7.000e+00 -7.000e+00 -7.000e+00 -7.000e+00 -1.500e+01 -1.500e+01 -1.500e+01 -7.000e+00 -7.000e+00 -7.000e+00 -7.000e+00 -7.000e+00 -7.000e+00 -7.000e+00 -7.000e+00 -7.000e+00 -7.000e+00 -7.000e+00 -7.000e+00 -7.000e+00 -7.000e+00 -7.000e+00 -7.000e+00 -7.000e+00 -7.000e+00 -7.000e+00 -7.000e+00 -7.000e+00 -7.000e+00 -7.000e+00 -7.000e+00 -7.000e+00 -7.000e+00 -7.000e+00 -1.500e+01 -7.000e+00 -7.000e+00 -7.000e+00 -7.000e+00 -7.000e+00 -7.000e+00 -7.000e+00 -7.000e+00 -7.000e+00 -7.000e+00 -7.000e+00 -7.000e+00 -7.000e+00 -7.000e+00 -7.000e+00 -7.000e+00 -7.000e+00 -7.000e+00 -7.000e+00 -7.000e+00 -7.000e+00 -7.000e+00 -7.000e+00 -7.000e+00 -7.000e+00 -1.500e+01 -1.500e+01 -7.000e+00 -7.000e+00 -7.000e+00 -7.000e+00 -7.000e+00 -7.000e+00 -7.000e+00 -7.000e+00 -7.000e+00 -7.000e+00 -7.000e+00 -7.000e+00 -7.000e+00 -7.000e+00 -7.000e+00 -7.000e+00 -7.000e+00 -7.000e+00 -1.500e+01 -7.000e+00 -7.000e+00 -7.000e+00 -7.000e+00 -7.000e+00 -7.000e+00 -7.000e+00 -7.000e+00 -7.000e+00 -7.000e+00 -7.000e+00 -7.000e+00 -7.000e+00 -7.000e+00 -7.000e+00 -7.000e+00 -1.500e+01 -1.500e+01 -7.000e+00 -7.000e+00 -7.000e+00 -7.000e+00 -7.000e+00 -7.000e+00 -7.000e+00 -7.000e+00 -7.000e+00 -7.000e+00 -7.000e+00 -7.000e+00 -7.000e+00 -7.000e+00 -7.000e+00 -7.000e+00 -7.000e+00 -7.000e+00 -7.000e+00 -7.000e+00 -7.000e+00 -7.000e+00 -7.000e+00 -1.500e+01 -1.500e+01 -1.500e+01 -7.000e+00 -7.000e+00 -7.000e+00 -7.000e+00 -7.000e+00 -7.000e+00 -7.000e+00 -1.500e+01 -1.500e+01 -7.000e+00 -7.000e+00 -7.000e+00 -7.000e+00 -7.000e+00 -7.000e+00 -7.000e+00 -7.000e+00 -7.000e+00 -7.000e+00 -7.000e+00 -7.000e+00 -1.500e+01 -1.500e+01 -1.500e+01 -7.000e+00 -7.000e+00 -7.000e+00 -7.000e+00 -7.000e+00 -7.000e+00 -7.000e+00 -1.500e+01 -1.500e+01 -7.000e+00 -7.000e+00 -7.000e+00 -7.000e+00 -7.000e+00 -7.000e+00 -1.500e+01 -1.500e+01 -1.500e+01 -7.000e+00 -7.000e+00 -7.000e+00 -7.000e+00 -7.000e+00 -7.000e+00 -7.000e+00 -1.500e+01 -1.500e+01 -1.500e+01 -7.000e+00 -7.000e+00 -7.000e+00 -7.000e+00 -7.000e+00 -7.000e+00 -7.000e+00 -1.500e+01 -7.000e+00 -7.000e+00 -7.000e+00 -7.000e+00 -7.000e+00 -7.000e+00 -1.500e+01 -1.500e+01 -7.000e+00 -7.000e+00 -7.000e+00 -7.000e+00 -7.000e+00 -7.000e+00 -7.000e+00 -1.500e+01 -1.500e+01 -7.000e+00 -7.000e+00 -7.000e+00 -7.000e+00 -7.000e+00 -7.000e+00 -1.500e+01 -1.500e+01 -7.000e+00 -7.000e+00 -7.000e+00 -7.000e+00 -7.000e+00 -7.000e+00 -1.500e+01 -7.000e+00 -7.000e+00 -7.000e+00 -7.000e+00 -7.000e+00 -7.000e+00 -1.500e+01 -1.500e+01 -7.000e+00 -7.000e+00 -7.000e+00 -7.000e+00 -7.000e+00 -7.000e+00 -7.000e+00 -1.500e+01 -1.500e+01 -1.500e+01 -7.000e+00 -7.000e+00 -7.000e+00 -7.000e+00 -7.000e+00 -7.000e+00 -7.000e+00 -1.500e+01 -1.500e+01 -7.000e+00 -7.000e+00 -7.000e+00 -7.000e+00 -7.000e+00 -7.000e+00 -1.500e+01 -1.500e+01 -7.000e+00 -7.000e+00 -7.000e+00 -7.000e+00 -7.000e+00