<?xml version="1.0"?>
<VTKFile type="UnstructuredGrid" version="0.1" byte_order="LittleEndian">
   <UnstructuredGrid>
      <Piece NumberOfPoints="330" NumberOfCells="31">
         <Points>
            <DataArray type="Float32" Name="Position" NumberOfComponents="3" format="ascii">
-0.144	-5.000	0.144
-0.032	-5.000	0.201
0.092	-5.000	0.181
0.181	-5.000	0.092
0.201	-5.000	-0.032
0.144	-5.000	-0.144
0.032	-5.000	-0.201
-0.092	-5.000	-0.181
-0.181	-5.000	-0.092
-0.201	-5.000	0.032
-0.143	-4.040	0.144
-0.031	-4.041	0.201
0.092	-4.041	0.181
0.181	-4.041	0.093
0.200	-4.040	-0.031
0.143	-4.040	-0.142
0.032	-4.040	-0.199
-0.092	-4.040	-0.179
-0.180	-4.040	-0.091
-0.200	-4.040	0.033
-0.141	-3.561	0.147
-0.030	-3.561	0.203
0.093	-3.561	0.183
0.182	-3.561	0.095
0.201	-3.560	-0.029
0.144	-3.560	-0.140
0.032	-3.559	-0.197
-0.091	-3.559	-0.177
-0.179	-3.560	-0.088
-0.198	-3.560	0.035
-0.142	-3.001	0.149
-0.031	-3.001	0.205
0.093	-3.000	0.185
0.181	-3.000	0.097
0.200	-2.999	-0.027
0.143	-2.999	-0.138
0.031	-3.000	-0.194
-0.092	-3.000	-0.174
-0.180	-3.000	-0.086
-0.199	-3.001	0.038
-0.144	-2.401	0.149
-0.033	-2.401	0.206
0.090	-2.400	0.186
0.178	-2.400	0.097
0.197	-2.399	-0.026
0.140	-2.399	-0.137
0.029	-2.400	-0.193
-0.094	-2.400	-0.173
-0.182	-2.401	-0.085
-0.201	-2.401	0.039
-0.147	-1.800	0.151
-0.036	-1.800	0.207
0.087	-1.800	0.188
0.175	-1.800	0.100
0.194	-1.800	-0.023
0.138	-1.800	-0.134
0.027	-1.800	-0.191
-0.096	-1.800	-0.171
-0.184	-1.800	-0.083
-0.204	-1.800	0.040
-0.146	-1.200	0.149
-0.035	-1.200	0.205
0.088	-1.200	0.186
0.176	-1.200	0.098
0.196	-1.201	-0.024
0.139	-1.201	-0.135
0.029	-1.201	-0.192
-0.094	-1.200	-0.173
-0.182	-1.200	-0.085
-0.202	-1.200	0.038
-0.145	-0.600	0.148
-0.034	-0.600	0.205
0.089	-0.600	0.186
0.177	-0.600	0.098
0.196	-0.601	-0.025
0.140	-0.601	-0.136
0.030	-0.601	-0.192
-0.093	-0.600	-0.173
-0.181	-0.600	-0.085
-0.201	-0.600	0.037
-0.144	0.001	0.145
-0.033	0.001	0.202
0.089	-0.000	0.183
0.177	-0.001	0.096
0.197	-0.001	-0.027
0.142	-0.001	-0.138
0.031	-0.001	-0.195
-0.091	-0.000	-0.176
-0.180	0.001	-0.088
-0.200	0.001	0.034
-0.138	0.562	0.144
-0.028	0.561	0.201
0.095	0.560	0.182
0.183	0.559	0.095
0.203	0.558	-0.027
0.147	0.558	-0.138
0.037	0.559	-0.195
-0.085	0.560	-0.176
-0.174	0.561	-0.089
-0.194	0.562	0.033
-0.135	1.041	0.140
-0.025	1.041	0.197
0.098	1.040	0.178
0.186	1.039	0.091
0.206	1.039	-0.031
0.150	1.038	-0.142
0.040	1.039	-0.199
-0.083	1.039	-0.180
-0.171	1.040	-0.093
-0.191	1.041	0.030
-0.132	1.760	0.140
-0.022	1.760	0.196
0.101	1.760	0.177
0.188	1.760	0.089
0.208	1.760	-0.033
0.152	1.759	-0.143
0.041	1.759	-0.200
-0.081	1.759	-0.180
-0.169	1.760	-0.093
-0.188	1.760	0.029
-0.133	2.476	0.138
-0.023	2.476	0.194
0.099	2.477	0.175
0.187	2.477	0.087
0.206	2.476	-0.035
0.150	2.476	-0.145
0.040	2.475	-0.201
-0.082	2.475	-0.182
-0.170	2.475	-0.095
-0.189	2.476	0.028
0.027	-4.990	-0.037
0.044	-4.993	-0.014
0.045	-4.999	0.014
0.028	-5.005	0.037
0.001	-5.010	0.046
-0.027	-5.010	0.037
-0.044	-5.007	0.014
-0.045	-5.001	-0.014
-0.028	-4.995	-0.037
-0.001	-4.990	-0.046
0.107	-5.904	-0.230
0.124	-5.908	-0.207
0.125	-5.914	-0.179
0.108	-5.921	-0.156
0.081	-5.925	-0.147
0.054	-5.925	-0.156
0.036	-5.921	-0.179
0.036	-5.915	-0.207
0.052	-5.909	-0.230
0.079	-5.905	-0.238
0.143	-6.363	-0.334
0.160	-6.367	-0.311
0.160	-6.373	-0.283
0.144	-6.379	-0.260
0.117	-6.383	-0.252
0.089	-6.383	-0.260
0.072	-6.379	-0.283
0.072	-6.373	-0.311
0.088	-6.367	-0.334
0.115	-6.363	-0.343
0.172	-6.825	-0.430
0.189	-6.828	-0.407
0.189	-6.833	-0.379
0.172	-6.839	-0.356
0.145	-6.843	-0.348
0.118	-6.843	-0.357
0.101	-6.839	-0.380
0.101	-6.834	-0.408
0.118	-6.828	-0.431
0.145	-6.825	-0.439
0.208	-7.288	-0.514
0.224	-7.290	-0.491
0.224	-7.295	-0.462
0.207	-7.300	-0.440
0.180	-7.304	-0.432
0.153	-7.304	-0.442
0.137	-7.302	-0.465
0.137	-7.297	-0.493
0.154	-7.292	-0.515
0.181	-7.288	-0.523
0.254	-7.752	-0.582
0.270	-7.754	-0.559
0.269	-7.758	-0.531
0.252	-7.763	-0.509
0.225	-7.767	-0.501
0.198	-7.768	-0.511
0.182	-7.766	-0.534
0.183	-7.762	-0.562
0.200	-7.757	-0.584
0.228	-7.753	-0.592
0.295	-8.219	-0.647
0.310	-8.220	-0.624
0.309	-8.223	-0.595
0.291	-8.227	-0.574
0.263	-8.230	-0.567
0.237	-8.231	-0.577
0.222	-8.230	-0.601
0.224	-8.227	-0.629
0.241	-8.224	-0.651
0.269	-8.220	-0.658
0.339	-8.689	-0.674
0.354	-8.690	-0.650
0.351	-8.692	-0.622
0.333	-8.695	-0.600
0.306	-8.697	-0.594
0.280	-8.698	-0.605
0.265	-8.698	-0.629
0.267	-8.696	-0.657
0.286	-8.693	-0.679
0.313	-8.691	-0.685
0.369	-9.158	-0.709
0.383	-9.159	-0.685
0.381	-9.162	-0.657
0.362	-9.164	-0.636
0.335	-9.167	-0.630
0.309	-9.168	-0.641
0.295	-9.167	-0.665
0.297	-9.164	-0.693
0.315	-9.162	-0.714
0.343	-9.159	-0.720
0.401	-9.627	-0.747
0.415	-9.628	-0.722
0.413	-9.629	-0.694
0.395	-9.632	-0.673
0.367	-9.635	-0.667
0.341	-9.636	-0.678
0.327	-9.636	-0.702
0.329	-9.634	-0.730
0.348	-9.631	-0.751
0.375	-9.629	-0.758
0.445	-10.096	-0.766
0.460	-10.095	-0.742
0.458	-10.096	-0.714
0.440	-10.099	-0.693
0.413	-10.103	-0.687
0.387	-10.106	-0.698
0.372	-10.106	-0.722
0.375	-10.105	-0.749
0.393	-10.102	-0.771
0.420	-10.098	-0.777
0.514	-10.561	-0.788
0.528	-10.559	-0.764
0.526	-10.561	-0.736
0.509	-10.564	-0.715
0.482	-10.569	-0.708
0.456	-10.572	-0.719
0.441	-10.574	-0.742
0.443	-10.572	-0.770
0.461	-10.569	-0.792
0.488	-10.564	-0.798
0.590	-11.026	-0.801
0.604	-11.024	-0.778
0.602	-11.025	-0.750
0.584	-11.028	-0.728
0.558	-11.033	-0.722
0.532	-11.037	-0.733
0.518	-11.039	-0.756
0.520	-11.038	-0.784
0.537	-11.035	-0.806
0.564	-11.030	-0.812
0.669	-11.490	-0.807
0.683	-11.488	-0.783
0.681	-11.489	-0.755
0.664	-11.493	-0.734
0.637	-11.498	-0.728
0.611	-11.502	-0.738
0.597	-11.504	-0.762
0.599	-11.503	-0.790
0.617	-11.500	-0.811
0.643	-11.495	-0.818
0.759	-11.952	-0.817
0.774	-11.950	-0.794
0.772	-11.951	-0.766
0.755	-11.955	-0.745
0.728	-11.960	-0.738
0.703	-11.965	-0.748
0.688	-11.967	-0.772
0.690	-11.966	-0.800
0.707	-11.962	-0.821
0.734	-11.957	-0.828
0.846	-12.415	-0.829
0.861	-12.413	-0.805
0.859	-12.414	-0.778
0.842	-12.418	-0.756
0.815	-12.423	-0.749
0.790	-12.428	-0.760
0.775	-12.431	-0.783
0.777	-12.430	-0.811
0.795	-12.426	-0.832
0.821	-12.420	-0.839
0.947	-12.875	-0.836
0.962	-12.873	-0.812
0.961	-12.874	-0.785
0.943	-12.878	-0.763
0.917	-12.884	-0.756
0.892	-12.889	-0.767
0.877	-12.891	-0.790
0.878	-12.890	-0.818
0.896	-12.886	-0.839
0.922	-12.880	-0.846
1.036	-13.337	-0.856
1.051	-13.336	-0.833
1.050	-13.338	-0.805
1.033	-13.342	-0.783
1.006	-13.348	-0.776
0.981	-13.352	-0.786
0.966	-13.353	-0.810
0.967	-13.351	-0.838
0.984	-13.347	-0.859
1.010	-13.342	-0.866
1.118	-13.801	-0.892
1.133	-13.800	-0.868
1.131	-13.802	-0.840
1.114	-13.806	-0.819
1.087	-13.811	-0.812
1.061	-13.814	-0.822
1.047	-13.815	-0.846
1.048	-13.813	-0.874
1.065	-13.809	-0.895
1.092	-13.804	-0.902
1.152	-14.306	-0.846
1.152	-14.281	-0.834
1.152	-14.254	-0.838
1.152	-14.234	-0.858
1.152	-14.230	-0.885
1.152	-14.243	-0.910
1.152	-14.267	-0.922
1.152	-14.295	-0.918
1.152	-14.315	-0.898
1.152	-14.319	-0.871
		    </DataArray>
         </Points>
         <Cells>
            <DataArray type="Int32" Name="connectivity" NumberOfComponents="1" format="ascii">
 0 10 1 11 2 12 3 13 4 14 5 15 6 16 7 17 8 18 9 19 0 10
 10 20 11 21 12 22 13 23 14 24 15 25 16 26 17 27 18 28 19 29 10 20
 20 30 21 31 22 32 23 33 24 34 25 35 26 36 27 37 28 38 29 39 20 30
 30 40 31 41 32 42 33 43 34 44 35 45 36 46 37 47 38 48 39 49 30 40
 40 50 41 51 42 52 43 53 44 54 45 55 46 56 47 57 48 58 49 59 40 50
 50 60 51 61 52 62 53 63 54 64 55 65 56 66 57 67 58 68 59 69 50 60
 60 70 61 71 62 72 63 73 64 74 65 75 66 76 67 77 68 78 69 79 60 70
 70 80 71 81 72 82 73 83 74 84 75 85 76 86 77 87 78 88 79 89 70 80
 80 90 81 91 82 92 83 93 84 94 85 95 86 96 87 97 88 98 89 99 80 90
 90 100 91 101 92 102 93 103 94 104 95 105 96 106 97 107 98 108 99 109 90 100
 100 110 101 111 102 112 103 113 104 114 105 115 106 116 107 117 108 118 109 119 100 110
 110 120 111 121 112 122 113 123 114 124 115 125 116 126 117 127 118 128 119 129 110 120
 130 140 131 141 132 142 133 143 134 144 135 145 136 146 137 147 138 148 139 149 130 140
 140 150 141 151 142 152 143 153 144 154 145 155 146 156 147 157 148 158 149 159 140 150
 150 160 151 161 152 162 153 163 154 164 155 165 156 166 157 167 158 168 159 169 150 160
 160 170 161 171 162 172 163 173 164 174 165 175 166 176 167 177 168 178 169 179 160 170
 170 180 171 181 172 182 173 183 174 184 175 185 176 186 177 187 178 188 179 189 170 180
 180 190 181 191 182 192 183 193 184 194 185 195 186 196 187 197 188 198 189 199 180 190
 190 200 191 201 192 202 193 203 194 204 195 205 196 206 197 207 198 208 199 209 190 200
 200 210 201 211 202 212 203 213 204 214 205 215 206 216 207 217 208 218 209 219 200 210
 210 220 211 221 212 222 213 223 214 224 215 225 216 226 217 227 218 228 219 229 210 220
 220 230 221 231 222 232 223 233 224 234 225 235 226 236 227 237 228 238 229 239 220 230
 230 240 231 241 232 242 233 243 234 244 235 245 236 246 237 247 238 248 239 249 230 240
 240 250 241 251 242 252 243 253 244 254 245 255 246 256 247 257 248 258 249 259 240 250
 250 260 251 261 252 262 253 263 254 264 255 265 256 266 257 267 258 268 259 269 250 260
 260 270 261 271 262 272 263 273 264 274 265 275 266 276 267 277 268 278 269 279 260 270
 270 280 271 281 272 282 273 283 274 284 275 285 276 286 277 287 278 288 279 289 270 280
 280 290 281 291 282 292 283 293 284 294 285 295 286 296 287 297 288 298 289 299 280 290
 290 300 291 301 292 302 293 303 294 304 295 305 296 306 297 307 298 308 299 309 290 300
 300 310 301 311 302 312 303 313 304 314 305 315 306 316 307 317 308 318 309 319 300 310
 310 320 311 321 312 322 313 323 314 324 315 325 316 326 317 327 318 328 319 329 310 320

            </DataArray>
            <DataArray type="Int32" Name="offsets" NumberOfComponents="1" format="ascii">
 22 44 66 88 110 132 154 176 198 220 242 264 286 308 330 352 374 396 418 440 462 484 506 528 550 572 594 616 638 660 682
            </DataArray>
            <DataArray type="UInt8"  Name="types" NumberOfComponents="1" format="ascii">
6 6 6 6 6 6 6 6 6 6 6 6 6 6 6 6 6 6 6 6 6 6 6 6 6 6 6 6 6 6 6
            </DataArray>
         </Cells>
         <CellData>
           <DataArray type="Float32" Name="combinedRootClassID" NumberOfComponents="1" format="ascii">
 -2.000e+00 -2.000e+00 -2.000e+00 -2.000e+00 -2.000e+00 -2.000e+00 -2.000e+00 -2.000e+00 -2.000e+00 -2.000e+00 -2.000e+00 -2.000e+00 -4.000e+00 -4.000e+00 -4.000e+00 -4.000e+00 -4.000e+00 -4.000e+00 -4.000e+00 -4.000e+00 -4.000e+00 -4.000e+00 -4.000e+00 -4.000e+00 -4.000e+00 -4.000e+00 -4.000e+00 -4.000e+00 -4.000e+00 -4.000e+00 -4.000e+00
           </DataArray>
           <DataArray type="Float32" Name="nitrate/minimalNutrientConcentration" NumberOfComponents="1" format="ascii">
 6.000e+02 6.000e+02 6.000e+02 6.000e+02 6.000e+02 6.000e+02 6.000e+02 6.000e+02 6.000e+02 6.000e+02 6.000e+02 6.000e+02 6.000e+02 6.000e+02 6.000e+02 6.000e+02 6.000e+02 6.000e+02 6.000e+02 6.000e+02 6.000e+02 6.000e+02 6.000e+02 6.000e+02 6.000e+02 6.000e+02 6.000e+02 6.000e+02 6.000e+02 6.000e+02 6.000e+02
           </DataArray>
           <DataArray type="Float32" Name="nitrate/optimalNutrientConcentration" NumberOfComponents="1" format="ascii">
 1.200e+03 1.200e+03 1.200e+03 1.200e+03 1.200e+03 1.200e+03 1.200e+03 1.200e+03 1.200e+03 1.200e+03 1.200e+03 1.200e+03 1.200e+03 1.200e+03 1.200e+03 1.200e+03 1.200e+03 1.200e+03 1.200e+03 1.200e+03 1.200e+03 1.200e+03 1.200e+03 1.200e+03 1.200e+03 1.200e+03 1.200e+03 1.200e+03 1.200e+03 1.200e+03 1.200e+03
           </DataArray>
           <DataArray type="Float32" Name="nitrate/radiusDepletionZone" NumberOfComponents="1" format="ascii">
 1.364e+00 2.169e+00 6.171e+00 4.420e+00 3.682e+00 3.156e+00 2.761e+00 2.167e+00 1.950e+00 2.004e-01 2.003e-01 2.001e-01 1.079e+00 1.001e+01 6.330e+00 4.747e+00 3.797e+00 2.733e+00 2.343e+00 2.049e+00 1.822e+00 1.381e+00 1.255e+00 1.151e+00 8.636e-01 8.018e-01 7.483e-01 5.402e-01 5.084e-01 3.367e-01 1.832e-01
           </DataArray>
           <DataArray type="Float32" Name="nitrate/rootSegmentMinimalNutrientContent" NumberOfComponents="1" format="ascii">
 7.044e+00 3.489e+00 4.058e+00 4.337e+00 4.326e+00 4.316e+00 4.306e+00 4.298e+00 4.004e+00 3.426e+00 5.132e+00 5.092e+00 3.690e-01 1.815e-01 1.802e-01 1.789e-01 1.777e-01 1.766e-01 1.756e-01 1.746e-01 1.737e-01 1.729e-01 1.722e-01 1.716e-01 1.710e-01 1.705e-01 1.701e-01 1.697e-01 1.695e-01 1.693e-01 1.692e-01
           </DataArray>
           <DataArray type="Float32" Name="nitrate/rootSegmentNutrientUptake" NumberOfComponents="1" format="ascii">
 3.367e+00 8.054e-01 1.486e+00 2.361e+00 3.605e+00 1.423e+00 9.471e-01 1.206e+00 7.951e-01 0.000e+00 0.000e+00 0.000e+00 7.097e-01 4.073e-01 3.512e-01 3.405e-01 3.295e-01 3.193e-01 3.091e-01 2.937e-01 2.789e-01 2.627e-01 2.466e-01 2.273e-01 2.069e-01 1.839e-01 1.567e-01 1.283e-01 9.648e-02 5.955e-02 1.662e-02
           </DataArray>
           <DataArray type="Float32" Name="nitrate/rootSegmentOptimalNutrientContent" NumberOfComponents="1" format="ascii">
 1.409e+01 6.977e+00 8.117e+00 8.673e+00 8.651e+00 8.631e+00 8.612e+00 8.595e+00 8.008e+00 6.852e+00 1.026e+01 1.018e+01 7.380e-01 3.631e-01 3.604e-01 3.578e-01 3.554e-01 3.532e-01 3.511e-01 3.492e-01 3.474e-01 3.458e-01 3.444e-01 3.431e-01 3.420e-01 3.410e-01 3.402e-01 3.395e-01 3.390e-01 3.386e-01 3.384e-01
           </DataArray>
           <DataArray type="Float32" Name="parentRootClassID" NumberOfComponents="1" format="ascii">
 -3.000e+00 -3.000e+00 -3.000e+00 -3.000e+00 -3.000e+00 -3.000e+00 -3.000e+00 -3.000e+00 -3.000e+00 -3.000e+00 -3.000e+00 -3.000e+00 -3.000e+00 -3.000e+00 -3.000e+00 -3.000e+00 -3.000e+00 -3.000e+00 -3.000e+00 -3.000e+00 -3.000e+00 -3.000e+00 -3.000e+00 -3.000e+00 -3.000e+00 -3.000e+00 -3.000e+00 -3.000e+00 -3.000e+00 -3.000e+00 -3.000e+00
           </DataArray>
           <DataArray type="Float32" Name="plantID" NumberOfComponents="1" format="ascii">
 5.000e+00 5.000e+00 5.000e+00 5.000e+00 5.000e+00 5.000e+00 5.000e+00 5.000e+00 5.000e+00 5.000e+00 5.000e+00 5.000e+00 5.000e+00 5.000e+00 5.000e+00 5.000e+00 5.000e+00 5.000e+00 5.000e+00 5.000e+00 5.000e+00 5.000e+00 5.000e+00 5.000e+00 5.000e+00 5.000e+00 5.000e+00 5.000e+00 5.000e+00 5.000e+00 5.000e+00
           </DataArray>
           <DataArray type="Float32" Name="plantTypeID" NumberOfComponents="1" format="ascii">
 0.000e+00 0.000e+00 0.000e+00 0.000e+00 0.000e+00 0.000e+00 0.000e+00 0.000e+00 0.000e+00 0.000e+00 0.000e+00 0.000e+00 0.000e+00 0.000e+00 0.000e+00 0.000e+00 0.000e+00 0.000e+00 0.000e+00 0.000e+00 0.000e+00 0.000e+00 0.000e+00 0.000e+00 0.000e+00 0.000e+00 0.000e+00 0.000e+00 0.000e+00 0.000e+00 0.000e+00
           </DataArray>
           <DataArray type="Float32" Name="rootCircumference" NumberOfComponents="1" format="ascii">
 1.279e+00 1.273e+00 1.271e+00 1.269e+00 1.267e+00 1.266e+00 1.265e+00 1.263e+00 1.262e+00 1.261e+00 1.260e+00 1.259e+00 2.953e-01 2.929e-01 2.918e-01 2.908e-01 2.898e-01 2.889e-01 2.881e-01 2.873e-01 2.865e-01 2.859e-01 2.853e-01 2.848e-01 2.843e-01 2.839e-01 2.835e-01 2.832e-01 2.830e-01 2.829e-01 2.828e-01
           </DataArray>
           <DataArray type="Float32" Name="rootClassID" NumberOfComponents="1" format="ascii">
 -2.000e+00 -2.000e+00 -2.000e+00 -2.000e+00 -2.000e+00 -2.000e+00 -2.000e+00 -2.000e+00 -2.000e+00 -2.000e+00 -2.000e+00 -2.000e+00 -4.000e+00 -4.000e+00 -4.000e+00 -4.000e+00 -4.000e+00 -4.000e+00 -4.000e+00 -4.000e+00 -4.000e+00 -4.000e+00 -4.000e+00 -4.000e+00 -4.000e+00 -4.000e+00 -4.000e+00 -4.000e+00 -4.000e+00 -4.000e+00 -4.000e+00
           </DataArray>
           <DataArray type="Float32" Name="rootDiameter" NumberOfComponents="1" format="ascii">
 4.070e-01 4.051e-01 4.045e-01 4.039e-01 4.034e-01 4.030e-01 4.025e-01 4.021e-01 4.018e-01 4.014e-01 4.011e-01 4.006e-01 9.400e-02 9.324e-02 9.289e-02 9.256e-02 9.225e-02 9.196e-02 9.169e-02 9.144e-02 9.121e-02 9.100e-02 9.081e-02 9.064e-02 9.049e-02 9.036e-02 9.025e-02 9.016e-02 9.009e-02 9.004e-02 9.001e-02
           </DataArray>
           <DataArray type="Float32" Name="rootLength2Base" NumberOfComponents="1" format="ascii">
 0.000e+00 9.600e-01 1.440e+00 2.000e+00 2.600e+00 3.200e+00 3.800e+00 4.400e+00 5.000e+00 5.560e+00 6.040e+00 6.760e+00 0.000e+00 9.428e-01 1.414e+00 1.886e+00 2.357e+00 2.828e+00 3.300e+00 3.771e+00 4.243e+00 4.714e+00 5.185e+00 5.657e+00 6.128e+00 6.600e+00 7.071e+00 7.542e+00 8.014e+00 8.485e+00 8.957e+00
           </DataArray>
           <DataArray type="Float32" Name="rootPotentialSecondaryGrowth" NumberOfComponents="1" format="ascii">
 4.070e-01 4.051e-01 4.045e-01 4.039e-01 4.034e-01 4.030e-01 4.025e-01 4.021e-01 4.018e-01 4.014e-01 4.011e-01 4.006e-01 9.400e-02 9.324e-02 9.289e-02 9.256e-02 9.225e-02 9.196e-02 9.169e-02 9.144e-02 9.121e-02 9.100e-02 9.081e-02 9.064e-02 9.049e-02 9.036e-02 9.025e-02 9.016e-02 9.009e-02 9.004e-02 9.001e-02
           </DataArray>
           <DataArray type="Float32" Name="rootSegmentAge" NumberOfComponents="1" format="ascii">
 4.000e+00 3.400e+00 3.200e+00 3.000e+00 2.800e+00 2.600e+00 2.400e+00 2.200e+00 2.000e+00 1.800e+00 1.600e+00 1.200e+00 4.000e+00 3.600e+00 3.400e+00 3.200e+00 3.000e+00 2.800e+00 2.600e+00 2.400e+00 2.200e+00 2.000e+00 1.800e+00 1.600e+00 1.400e+00 1.200e+00 1.000e+00 8.000e-01 6.000e-01 4.000e-01 2.000e-01
           </DataArray>
           <DataArray type="Float32" Name="rootSegmentDryWeight" NumberOfComponents="1" format="ascii">
 1.174e-02 5.814e-03 6.764e-03 7.228e-03 7.210e-03 7.193e-03 7.177e-03 7.163e-03 6.673e-03 5.710e-03 8.553e-03 8.487e-03 6.150e-04 3.026e-04 3.003e-04 2.982e-04 2.962e-04 2.943e-04 2.926e-04 2.910e-04 2.895e-04 2.882e-04 2.870e-04 2.859e-04 2.850e-04 2.842e-04 2.835e-04 2.829e-04 2.825e-04 2.821e-04 2.820e-04
           </DataArray>
           <DataArray type="Float32" Name="rootSegmentLength" NumberOfComponents="1" format="ascii">
 9.600e-01 4.800e-01 5.600e-01 6.000e-01 6.000e-01 6.000e-01 6.000e-01 6.000e-01 5.600e-01 4.800e-01 7.200e-01 7.162e-01 9.428e-01 4.714e-01 4.714e-01 4.714e-01 4.714e-01 4.714e-01 4.714e-01 4.714e-01 4.714e-01 4.714e-01 4.714e-01 4.714e-01 4.714e-01 4.714e-01 4.714e-01 4.714e-01 4.714e-01 4.714e-01 4.714e-01
           </DataArray>
           <DataArray type="Float32" Name="rootSegmentLengthDuration" NumberOfComponents="1" format="ascii">
 3.519e+00 1.584e+00 1.736e+00 1.740e+00 1.620e+00 1.500e+00 1.380e+00 1.260e+00 1.064e+00 8.160e-01 1.016e+00 5.587e-01 3.583e+00 1.650e+00 1.556e+00 1.461e+00 1.367e+00 1.273e+00 1.179e+00 1.084e+00 9.899e-01 8.957e-01 8.014e-01 7.071e-01 6.128e-01 5.185e-01 4.243e-01 3.300e-01 2.357e-01 1.414e-01 4.714e-02
           </DataArray>
           <DataArray type="Float32" Name="rootSegmentSurfaceArea" NumberOfComponents="1" format="ascii">
 1.227e+00 6.108e-01 7.116e-01 7.614e-01 7.604e-01 7.596e-01 7.587e-01 7.580e-01 7.068e-01 6.053e-01 9.073e-01 9.014e-01 2.784e-01 1.381e-01 1.376e-01 1.371e-01 1.366e-01 1.362e-01 1.358e-01 1.354e-01 1.351e-01 1.348e-01 1.345e-01 1.342e-01 1.340e-01 1.338e-01 1.337e-01 1.335e-01 1.334e-01 1.333e-01 1.333e-01
           </DataArray>
           <DataArray type="Float32" Name="rootSegmentVolume" NumberOfComponents="1" format="ascii">
 1.249e-01 6.185e-02 7.196e-02 7.689e-02 7.670e-02 7.652e-02 7.635e-02 7.620e-02 7.099e-02 6.075e-02 9.099e-02 9.028e-02 6.543e-03 3.219e-03 3.195e-03 3.172e-03 3.151e-03 3.131e-03 3.113e-03 3.096e-03 3.080e-03 3.066e-03 3.053e-03 3.042e-03 3.032e-03 3.023e-03 3.016e-03 3.010e-03 3.005e-03 3.002e-03 3.000e-03
           </DataArray>
           <DataArray type="Float32" Name="spatialRootDensity" NumberOfComponents="1" format="ascii">
 3.376e-01 2.251e-01 0.000e+00 0.000e+00 0.000e+00 0.000e+00 0.000e+00 0.000e+00 0.000e+00 0.000e+00 0.000e+00 0.000e+00 3.438e-01 2.292e-01 0.000e+00 0.000e+00 0.000e+00 0.000e+00 0.000e+00 0.000e+00 0.000e+00 0.000e+00 0.000e+00 0.000e+00 0.000e+00 0.000e+00 0.000e+00 0.000e+00 0.000e+00 0.000e+00 0.000e+00
           </DataArray>
         </CellData>
      </Piece>
   </UnstructuredGrid>
</VTKFile>
