<?xml version="1.0"?>
<VTKFile type="UnstructuredGrid" version="0.1" byte_order="LittleEndian">
   <UnstructuredGrid>
      <Piece NumberOfPoints="22380" NumberOfCells="1590">
         <Points>
            <DataArray type="Float32" Name="Position" NumberOfComponents="3" format="ascii">
-0.087	-5.026	0.101
-0.086	-5.017	0.102
-0.091	-5.009	0.105
-0.098	-5.007	0.110
-0.106	-5.010	0.115
-0.111	-5.017	0.117
-0.111	-5.027	0.116
-0.107	-5.034	0.113
-0.099	-5.037	0.108
-0.092	-5.034	0.104
0.348	-5.093	0.823
0.347	-5.084	0.825
0.342	-5.077	0.829
0.335	-5.076	0.835
0.329	-5.080	0.840
0.325	-5.088	0.842
0.326	-5.098	0.841
0.331	-5.104	0.836
0.338	-5.106	0.830
0.344	-5.101	0.826
0.969	-5.145	1.441
0.967	-5.137	1.444
0.962	-5.132	1.450
0.956	-5.132	1.457
0.951	-5.138	1.462
0.949	-5.147	1.463
0.951	-5.156	1.460
0.956	-5.161	1.454
0.962	-5.160	1.447
0.967	-5.154	1.442
1.055	-5.155	1.509
1.053	-5.147	1.513
1.048	-5.143	1.519
1.042	-5.144	1.526
1.038	-5.150	1.531
1.036	-5.159	1.532
1.038	-5.168	1.528
1.043	-5.172	1.522
1.049	-5.171	1.514
1.053	-5.164	1.510
-0.189	-5.078	0.220
-0.186	-5.071	0.224
-0.186	-5.062	0.225
-0.191	-5.054	0.222
-0.197	-5.051	0.216
-0.203	-5.054	0.209
-0.206	-5.061	0.205
-0.205	-5.070	0.204
-0.201	-5.078	0.207
-0.195	-5.081	0.213
-0.818	-5.181	0.821
-0.815	-5.174	0.825
-0.816	-5.165	0.827
-0.820	-5.157	0.824
-0.826	-5.154	0.818
-0.832	-5.157	0.811
-0.835	-5.164	0.806
-0.834	-5.173	0.805
-0.830	-5.181	0.808
-0.823	-5.184	0.814
-1.445	-5.365	1.409
-1.443	-5.358	1.414
-1.443	-5.348	1.415
-1.448	-5.341	1.411
-1.453	-5.338	1.405
-1.459	-5.340	1.398
-1.461	-5.348	1.393
-1.461	-5.357	1.392
-1.457	-5.364	1.395
-1.451	-5.368	1.402
-1.492	-5.367	1.442
-1.489	-5.360	1.447
-1.489	-5.350	1.447
-1.493	-5.343	1.443
-1.498	-5.340	1.436
-1.503	-5.343	1.428
-1.506	-5.350	1.424
-1.505	-5.359	1.423
-1.502	-5.367	1.428
-1.497	-5.370	1.435
-0.971	-5.737	1.063
-0.964	-5.738	1.069
-0.962	-5.741	1.078
-0.966	-5.745	1.085
-0.974	-5.748	1.089
-0.983	-5.750	1.087
-0.989	-5.748	1.081
-0.991	-5.745	1.072
-0.987	-5.742	1.065
-0.980	-5.738	1.061
-0.802	-6.539	0.741
-0.796	-6.541	0.747
-0.795	-6.544	0.756
-0.800	-6.547	0.764
-0.808	-6.548	0.767
-0.817	-6.548	0.765
-0.823	-6.546	0.758
-0.824	-6.543	0.749
-0.819	-6.540	0.742
-0.811	-6.539	0.739
-0.882	-7.286	0.547
-0.878	-7.287	0.556
-0.880	-7.288	0.565
-0.886	-7.288	0.571
-0.896	-7.287	0.573
-0.904	-7.286	0.569
-0.908	-7.284	0.560
-0.906	-7.283	0.551
-0.900	-7.283	0.545
-0.890	-7.284	0.543
-0.926	-7.544	0.544
-0.923	-7.544	0.552
-0.925	-7.544	0.561
-0.932	-7.543	0.567
-0.941	-7.541	0.568
-0.949	-7.540	0.563
-0.952	-7.539	0.554
-0.950	-7.540	0.545
-0.943	-7.541	0.539
-0.934	-7.542	0.539
-1.049	-5.838	1.151
-1.049	-5.829	1.152
-1.053	-5.822	1.156
-1.061	-5.820	1.161
-1.068	-5.823	1.165
-1.073	-5.831	1.168
-1.073	-5.840	1.167
-1.068	-5.847	1.163
-1.061	-5.849	1.158
-1.053	-5.846	1.153
-0.600	-5.912	1.832
-0.599	-5.903	1.834
-0.603	-5.896	1.837
-0.611	-5.893	1.842
-0.619	-5.896	1.846
-0.624	-5.903	1.848
-0.625	-5.912	1.846
-0.621	-5.920	1.843
-0.613	-5.922	1.838
-0.605	-5.920	1.834
-0.291	-6.085	2.498
-0.289	-6.076	2.500
-0.293	-6.068	2.504
-0.301	-6.065	2.508
-0.309	-6.067	2.511
-0.315	-6.074	2.512
-0.316	-6.083	2.511
-0.312	-6.091	2.507
-0.305	-6.094	2.502
-0.297	-6.092	2.499
-1.154	-5.930	1.254
-1.154	-5.921	1.253
-1.151	-5.914	1.247
-1.146	-5.911	1.240
-1.141	-5.915	1.234
-1.137	-5.923	1.230
-1.137	-5.932	1.232
-1.140	-5.939	1.237
-1.145	-5.941	1.244
-1.150	-5.938	1.251
-1.800	-6.027	0.766
-1.800	-6.018	0.764
-1.795	-6.012	0.758
-1.789	-6.011	0.751
-1.784	-6.016	0.746
-1.781	-6.024	0.743
-1.782	-6.033	0.745
-1.786	-6.039	0.751
-1.792	-6.040	0.758
-1.798	-6.035	0.764
-2.368	-6.046	0.167
-2.366	-6.038	0.164
-2.360	-6.033	0.159
-2.353	-6.034	0.153
-2.347	-6.040	0.149
-2.346	-6.049	0.148
-2.348	-6.058	0.150
-2.354	-6.063	0.156
-2.361	-6.062	0.162
-2.367	-6.055	0.166
-2.405	-6.047	0.120
-2.402	-6.039	0.117
-2.396	-6.035	0.112
-2.388	-6.036	0.106
-2.383	-6.043	0.102
-2.382	-6.052	0.102
-2.385	-6.060	0.105
-2.392	-6.064	0.110
-2.399	-6.063	0.115
-2.404	-6.056	0.119
-1.224	-6.013	1.313
-1.217	-6.013	1.320
-1.216	-6.015	1.329
-1.220	-6.019	1.336
-1.228	-6.022	1.339
-1.237	-6.024	1.337
-1.243	-6.023	1.331
-1.245	-6.021	1.322
-1.241	-6.017	1.314
-1.232	-6.014	1.311
-1.027	-6.772	1.080
-1.021	-6.772	1.087
-1.020	-6.775	1.096
-1.024	-6.778	1.103
-1.032	-6.781	1.107
-1.041	-6.782	1.105
-1.047	-6.782	1.098
-1.048	-6.779	1.089
-1.044	-6.776	1.082
-1.036	-6.773	1.078
-0.882	-7.579	0.826
-0.876	-7.580	0.833
-0.875	-7.583	0.841
-0.879	-7.586	0.849
-0.888	-7.588	0.852
-0.897	-7.589	0.850
-0.903	-7.588	0.843
-0.904	-7.585	0.835
-0.900	-7.582	0.827
-0.891	-7.579	0.824
-0.847	-7.916	0.714
-0.841	-7.917	0.720
-0.840	-7.920	0.729
-0.845	-7.923	0.737
-0.853	-7.925	0.740
-0.862	-7.925	0.738
-0.868	-7.924	0.731
-0.869	-7.921	0.723
-0.865	-7.918	0.715
-0.856	-7.916	0.712
-1.308	-6.109	1.390
-1.301	-6.110	1.396
-1.298	-6.113	1.404
-1.301	-6.118	1.412
-1.308	-6.122	1.415
-1.317	-6.125	1.414
-1.324	-6.125	1.408
-1.327	-6.122	1.400
-1.324	-6.117	1.393
-1.317	-6.112	1.389
-1.030	-6.847	1.009
-1.022	-6.849	1.014
-1.019	-6.853	1.021
-1.021	-6.858	1.029
-1.028	-6.862	1.033
-1.037	-6.864	1.033
-1.045	-6.863	1.028
-1.048	-6.859	1.020
-1.046	-6.854	1.013
-1.039	-6.849	1.008
-0.991	-7.490	0.524
-0.983	-7.492	0.528
-0.979	-7.497	0.535
-0.981	-7.503	0.542
-0.987	-7.507	0.547
-0.997	-7.508	0.548
-1.005	-7.505	0.544
-1.009	-7.500	0.538
-1.007	-7.495	0.530
-1.001	-7.491	0.525
-0.997	-7.649	0.398
-0.989	-7.652	0.402
-0.984	-7.657	0.408
-0.986	-7.662	0.415
-0.993	-7.666	0.421
-1.002	-7.667	0.422
-1.010	-7.664	0.419
-1.014	-7.659	0.412
-1.013	-7.653	0.405
-1.006	-7.649	0.400
-1.403	-6.220	1.489
-1.402	-6.211	1.488
-1.398	-6.204	1.482
-1.392	-6.203	1.475
-1.387	-6.208	1.469
-1.384	-6.216	1.467
-1.385	-6.225	1.468
-1.389	-6.232	1.474
-1.395	-6.233	1.481
-1.400	-6.228	1.487
-2.051	-6.279	0.938
-2.052	-6.270	0.937
-2.049	-6.262	0.932
-2.044	-6.260	0.925
-2.039	-6.263	0.918
-2.035	-6.271	0.914
-2.035	-6.280	0.915
-2.037	-6.287	0.920
-2.042	-6.290	0.927
-2.048	-6.287	0.934
-2.782	-6.397	0.484
-2.778	-6.397	0.492
-2.779	-6.397	0.501
-2.786	-6.397	0.508
-2.795	-6.397	0.509
-2.803	-6.397	0.505
-2.807	-6.397	0.497
-2.806	-6.397	0.488
-2.799	-6.397	0.481
-2.790	-6.397	0.480
-1.469	-6.312	1.542
-1.462	-6.312	1.548
-1.460	-6.314	1.557
-1.463	-6.319	1.565
-1.470	-6.323	1.568
-1.478	-6.327	1.566
-1.485	-6.327	1.560
-1.487	-6.325	1.551
-1.484	-6.320	1.543
-1.477	-6.316	1.540
-1.122	-7.040	1.250
-1.115	-7.039	1.257
-1.113	-7.042	1.265
-1.116	-7.046	1.273
-1.124	-7.051	1.276
-1.132	-7.054	1.274
-1.139	-7.055	1.268
-1.141	-7.053	1.259
-1.137	-7.048	1.252
-1.130	-7.043	1.248
-0.838	-7.609	1.040
-0.831	-7.608	1.047
-0.829	-7.611	1.056
-0.833	-7.615	1.063
-0.840	-7.620	1.067
-0.848	-7.623	1.065
-0.855	-7.624	1.058
-0.857	-7.622	1.049
-0.853	-7.617	1.042
-0.846	-7.613	1.038
-1.558	-6.431	1.638
-1.561	-6.423	1.638
-1.561	-6.415	1.633
-1.557	-6.411	1.625
-1.551	-6.413	1.618
-1.546	-6.419	1.614
-1.543	-6.428	1.615
-1.543	-6.435	1.620
-1.547	-6.439	1.627
-1.552	-6.438	1.634
-2.253	-6.724	1.146
-2.258	-6.717	1.144
-2.259	-6.709	1.138
-2.256	-6.706	1.130
-2.250	-6.707	1.123
-2.244	-6.713	1.120
-2.239	-6.721	1.122
-2.238	-6.728	1.127
-2.241	-6.731	1.136
-2.247	-6.730	1.143
-2.427	-6.950	0.996
-2.429	-6.953	1.005
-2.435	-6.952	1.012
-2.443	-6.947	1.014
-2.449	-6.941	1.012
-2.451	-6.935	1.005
-2.449	-6.932	0.997
-2.443	-6.933	0.990
-2.435	-6.938	0.987
-2.429	-6.944	0.989
-1.624	-6.527	1.682
-1.617	-6.526	1.689
-1.615	-6.529	1.697
-1.618	-6.533	1.705
-1.625	-6.538	1.708
-1.633	-6.542	1.707
-1.640	-6.542	1.700
-1.642	-6.540	1.692
-1.640	-6.535	1.684
-1.633	-6.530	1.681
-1.266	-7.265	1.361
-1.259	-7.264	1.367
-1.257	-7.267	1.376
-1.259	-7.272	1.383
-1.266	-7.277	1.387
-1.275	-7.281	1.385
-1.281	-7.281	1.379
-1.284	-7.278	1.370
-1.281	-7.274	1.363
-1.274	-7.268	1.359
-0.933	-7.881	1.061
-0.926	-7.881	1.067
-0.924	-7.883	1.076
-0.927	-7.888	1.083
-0.934	-7.893	1.087
-0.942	-7.896	1.085
-0.949	-7.897	1.079
-0.951	-7.895	1.070
-0.948	-7.890	1.062
-0.941	-7.885	1.059
-0.769	-8.208	0.948
-0.763	-8.207	0.954
-0.761	-8.209	0.963
-0.765	-8.213	0.971
-0.772	-8.218	0.974
-0.780	-8.221	0.972
-0.786	-8.222	0.965
-0.788	-8.220	0.956
-0.785	-8.216	0.949
-0.778	-8.211	0.946
-1.700	-6.637	1.751
-1.693	-6.637	1.757
-1.692	-6.639	1.766
-1.695	-6.643	1.774
-1.702	-6.647	1.777
-1.711	-6.650	1.775
-1.718	-6.650	1.768
-1.719	-6.648	1.760
-1.716	-6.644	1.752
-1.708	-6.640	1.749
-1.378	-7.419	1.476
-1.371	-7.420	1.482
-1.369	-7.422	1.491
-1.373	-7.426	1.499
-1.381	-7.430	1.502
-1.390	-7.432	1.500
-1.396	-7.431	1.494
-1.398	-7.428	1.485
-1.395	-7.424	1.478
-1.387	-7.421	1.474
-1.252	-8.159	1.171
-1.246	-8.161	1.178
-1.245	-8.164	1.187
-1.249	-8.167	1.194
-1.257	-8.169	1.198
-1.267	-8.170	1.196
-1.273	-8.168	1.189
-1.274	-8.165	1.181
-1.270	-8.162	1.173
-1.261	-8.160	1.170
-1.249	-8.225	1.151
-1.243	-8.227	1.158
-1.243	-8.230	1.167
-1.248	-8.232	1.175
-1.256	-8.233	1.178
-1.265	-8.233	1.175
-1.271	-8.231	1.169
-1.272	-8.228	1.160
-1.267	-8.226	1.152
-1.258	-8.224	1.149
-0.280	-5.116	0.308
-0.275	-5.116	0.315
-0.275	-5.116	0.325
-0.281	-5.118	0.332
-0.290	-5.119	0.334
-0.298	-5.121	0.331
-0.303	-5.122	0.323
-0.303	-5.121	0.314
-0.297	-5.120	0.307
-0.288	-5.118	0.304
-0.116	-5.904	0.271
-0.111	-5.903	0.279
-0.111	-5.904	0.288
-0.117	-5.905	0.295
-0.126	-5.907	0.298
-0.134	-5.908	0.294
-0.139	-5.909	0.287
-0.139	-5.908	0.277
-0.133	-5.907	0.270
-0.124	-5.905	0.268
0.014	-6.727	0.224
0.020	-6.728	0.232
0.020	-6.729	0.241
0.014	-6.731	0.248
0.006	-6.733	0.251
-0.003	-6.734	0.248
-0.008	-6.734	0.241
-0.009	-6.732	0.231
-0.003	-6.730	0.224
0.005	-6.728	0.221
0.102	-7.325	0.057
0.108	-7.326	0.064
0.109	-7.328	0.073
0.105	-7.331	0.080
0.096	-7.333	0.083
0.087	-7.334	0.081
0.081	-7.333	0.074
0.080	-7.330	0.065
0.085	-7.327	0.058
0.093	-7.325	0.054
-1.790	-6.757	1.843
-1.791	-6.747	1.842
-1.788	-6.740	1.837
-1.783	-6.738	1.830
-1.778	-6.741	1.823
-1.774	-6.749	1.819
-1.774	-6.758	1.820
[...]
         <CellData>
           <DataArray type="Float32" Name="combinedRootClassID" NumberOfComponents="1" format="ascii">
 -1.300e+01 -1.300e+01 -1.300e+01 -1.300e+01 -1.300e+01 -1.300e+01 -1.300e+01 -1.300e+01 -1.300e+01 -1.300e+01 -1.300e+01 -1.300e+01 -1.300e+01 -1.300e+01 -1.300e+01 -1.300e+01 -1.300e+01 -1.300e+01 -1.300e+01 -1.300e+01 -1.300e+01 -1.300e+01 -1.300e+01 -1.300e+01 -1.300e+01 -1.300e+01 -1.300e+01 -1.300e+01 -1.300e+01 -1.300e+01 -1.300e+01 -1.300e+01 -1.300e+01 -1.300e+01 -1.300e+01 -1.300e+01 -1.300e+01 -1.300e+01 -1.300e+01 -1.300e+01 -1.300e+01 -1.300e+01 -1.300e+01 -1.300e+01 -1.300e+01 -1.300e+01 -1.300e+01 -1.300e+01 -1.300e+01 -1.300e+01 -1.300e+01 -1.300e+01 -1.300e+01 -1.300e+01 -1.300e+01 -1.300e+01 -1.300e+01 -1.300e+01 -1.300e+01 -1.300e+01 -1.300e+01 -1.300e+01 -1.300e+01 -1.300e+01 -1.300e+01 -1.300e+01 -1.300e+01 -1.300e+01 -1.300e+01 -1.300e+01 -1.300e+01 -1.300e+01 -1.300e+01 -1.300e+01 -1.300e+01 -1.300e+01 -1.300e+01 -1.300e+01 -1.300e+01 -1.300e+01 -1.300e+01 -1.300e+01 -1.300e+01 -1.300e+01 -1.300e+01 -1.300e+01 -1.300e+01 -1.300e+01 -1.300e+01 -1.300e+01 -1.300e+01 -1.300e+01 -1.300e+01 -1.300e+01 -1.300e+01 -1.300e+01 -1.300e+01 -1.300e+01 -1.300e+01 -1.300e+01 -1.300e+01 -1.300e+01 -1.300e+01 -1.300e+01 -1.300e+01 -1.300e+01 -1.300e+01 -1.300e+01 -1.300e+01 -1.300e+01 -1.300e+01 -1.300e+01 -1.300e+01 -1.300e+01 -1.300e+01 -1.300e+01 -1.300e+01 -1.300e+01 -1.300e+01 -1.300e+01 -1.300e+01 -1.300e+01 -1.300e+01 -1.300e+01 -1.300e+01 -1.300e+01 -1.300e+01 -1.300e+01 -1.300e+01 -1.300e+01 -1.300e+01 -1.300e+01 -1.300e+01 -1.300e+01 -1.300e+01 -1.300e+01 -1.300e+01 -1.300e+01 -1.300e+01 -1.300e+01 -1.300e+01 -1.300e+01 -1.300e+01 -1.300e+01 -1.300e+01 -1.300e+01 -1.300e+01 -1.300e+01 -1.300e+01 -1.300e+01 -1.300e+01 -1.300e+01 -1.300e+01 -1.300e+01 -1.300e+01 -1.300e+01 -5.000e+00 -5.000e+00 -5.000e+00 -5.000e+00 -5.000e+00 -5.000e+00 -5.000e+00 -5.000e+00 -5.000e+00 -5.000e+00 -5.000e+00 -5.000e+00 -5.000e+00 -5.000e+00 -5.000e+00 -5.000e+00 -5.000e+00 -5.000e+00 -5.000e+00 -5.000e+00 -5.000e+00 -5.000e+00 -5.000e+00 -5.000e+00 -5.000e+00 -5.000e+00 -5.000e+00 -5.000e+00 -1.300e+01 -1.300e+01 -1.300e+01 -1.300e+01 -1.300e+01 -1.300e+01 -1.300e+01 -1.300e+01 -1.300e+01 -1.300e+01 -1.300e+01 -1.300e+01 -1.300e+01 -1.300e+01 -1.300e+01 -1.300e+01 -1.300e+01 -1.300e+01 -1.300e+01 -1.300e+01 -1.300e+01 -1.300e+01 -1.300e+01 -1.300e+01 -1.300e+01 -1.300e+01 -1.300e+01 -1.300e+01 -1.300e+01 -1.300e+01 -1.300e+01 -1.300e+01 -1.300e+01 -1.300e+01 -1.300e+01 -1.300e+01 -1.300e+01 -1.300e+01 -1.300e+01 -1.300e+01 -1.300e+01 -1.300e+01 -1.300e+01 -1.300e+01 -1.300e+01 -1.300e+01 -1.300e+01 -1.300e+01 -1.300e+01 -1.300e+01 -1.300e+01 -1.300e+01 -1.300e+01 -1.300e+01 -1.300e+01 -1.300e+01 -1.300e+01 -1.300e+01 -1.300e+01 -1.300e+01 -1.300e+01 -1.300e+01 -1.300e+01 -1.300e+01 -1.300e+01 -1.300e+01 -1.300e+01 -1.300e+01 -1.300e+01 -1.300e+01 -1.300e+01 -1.300e+01 -1.300e+01 -1.300e+01 -1.300e+01 -1.300e+01 -1.300e+01 -1.300e+01 -1.300e+01 -1.300e+01 -1.300e+01 -1.300e+01 -1.300e+01 -1.300e+01 -1.300e+01 -1.300e+01 -1.300e+01 -1.300e+01 -1.300e+01 -1.300e+01 -1.300e+01 -1.300e+01 -1.300e+01 -1.300e+01 -1.300e+01 -1.300e+01 -1.300e+01 -1.300e+01 -1.300e+01 -1.300e+01 -1.300e+01 -1.300e+01 -1.300e+01 -1.300e+01 -1.300e+01 -1.300e+01 -1.300e+01 -1.300e+01 -1.300e+01 -1.300e+01 -1.300e+01 -1.300e+01 -1.300e+01 -1.300e+01 -1.300e+01 -1.300e+01 -1.300e+01 -1.300e+01 -1.300e+01 -1.300e+01 -1.300e+01 -1.300e+01 -1.300e+01 -1.300e+01 -1.300e+01 -1.300e+01 -1.300e+01 -1.300e+01 -1.300e+01 -1.300e+01 -1.300e+01 -1.300e+01 -1.300e+01 -1.300e+01 -1.300e+01 -1.300e+01 -1.300e+01 -1.300e+01 -1.300e+01 -1.300e+01 -1.300e+01 -1.300e+01 -1.300e+01 -1.300e+01 -1.300e+01 -1.300e+01 -1.300e+01 -1.300e+01 -1.300e+01 -1.300e+01 -1.300e+01 -5.000e+00 -5.000e+00 -5.000e+00 -5.000e+00 -5.000e+00 -5.000e+00 -5.000e+00 -5.000e+00 -5.000e+00 -5.000e+00 -5.000e+00 -5.000e+00 -5.000e+00 -5.000e+00 -5.000e+00 -5.000e+00 -5.000e+00 -5.000e+00 -5.000e+00 -5.000e+00 -5.000e+00 -5.000e+00 -5.000e+00 -5.000e+00 -5.000e+00 -5.000e+00 -5.000e+00 -5.000e+00 -1.300e+01 -1.300e+01 -1.300e+01 -1.300e+01 -1.300e+01 -1.300e+01 -1.300e+01 -1.300e+01 -1.300e+01 -1.300e+01 -1.300e+01 -1.300e+01 -1.300e+01 -1.300e+01 -1.300e+01 -1.300e+01 -1.300e+01 -1.300e+01 -1.300e+01 -1.300e+01 -1.300e+01 -1.300e+01 -1.300e+01 -1.300e+01 -1.300e+01 -1.300e+01 -1.300e+01 -1.300e+01 -1.300e+01 -1.300e+01 -1.300e+01 -1.300e+01 -1.300e+01 -1.300e+01 -1.300e+01 -1.300e+01 -1.300e+01 -1.300e+01 -1.300e+01 -1.300e+01 -1.300e+01 -1.300e+01 -1.300e+01 -1.300e+01 -1.300e+01 -1.300e+01 -1.300e+01 -1.300e+01 -1.300e+01 -1.300e+01 -1.300e+01 -1.300e+01 -1.300e+01 -1.300e+01 -1.300e+01 -1.300e+01 -1.300e+01 -1.300e+01 -1.300e+01 -1.300e+01 -1.300e+01 -1.300e+01 -1.300e+01 -1.300e+01 -1.300e+01 -1.300e+01 -1.300e+01 -1.300e+01 -1.300e+01 -1.300e+01 -1.300e+01 -1.300e+01 -1.300e+01 -1.300e+01 -1.300e+01 -1.300e+01 -1.300e+01 -1.300e+01 -1.300e+01 -1.300e+01 -1.300e+01 -1.300e+01 -1.300e+01 -1.300e+01 -1.300e+01 -1.300e+01 -1.300e+01 -1.300e+01 -1.300e+01 -1.300e+01 -1.300e+01 -1.300e+01 -1.300e+01 -1.300e+01 -1.300e+01 -1.300e+01 -1.300e+01 -1.300e+01 -1.300e+01 -1.300e+01 -1.300e+01 -1.300e+01 -1.300e+01 -1.300e+01 -1.300e+01 -1.300e+01 -1.300e+01 -1.300e+01 -1.300e+01 -1.300e+01 -1.300e+01 -1.300e+01 -1.300e+01 -1.300e+01 -1.300e+01 -1.300e+01 -1.300e+01 -1.300e+01 -1.300e+01 -1.300e+01 -1.300e+01 -1.300e+01 -1.300e+01 -1.300e+01 -1.300e+01 -1.300e+01 -1.300e+01 -1.300e+01 -1.300e+01 -1.300e+01 -1.300e+01 -1.300e+01 -1.300e+01 -1.300e+01 -1.300e+01 -1.300e+01 -1.300e+01 -1.300e+01 -1.300e+01 -1.300e+01 -1.300e+01 -1.300e+01 -1.300e+01 -1.300e+01 -1.300e+01 -1.300e+01 -1.300e+01 -1.300e+01 -1.300e+01 -1.300e+01 -1.300e+01 -1.300e+01 -1.300e+01 -1.300e+01 -1.300e+01 -5.000e+00 -5.000e+00 -5.000e+00 -5.000e+00 -5.000e+00 -5.000e+00 -5.000e+00 -5.000e+00 -5.000e+00 -5.000e+00 -5.000e+00 -5.000e+00 -5.000e+00 -5.000e+00 -5.000e+00 -5.000e+00 -5.000e+00 -5.000e+00 -5.000e+00 -5.000e+00 -5.000e+00 -5.000e+00 -5.000e+00 -5.000e+00 -5.000e+00 -5.000e+00 -5.000e+00 -5.000e+00 -1.300e+01 -1.300e+01 -1.300e+01 -1.300e+01 -1.300e+01 -1.300e+01 -1.300e+01 -1.300e+01 -1.300e+01 -1.300e+01 -1.300e+01 -1.300e+01 -1.300e+01 -1.300e+01 -1.300e+01 -1.300e+01 -1.300e+01 -1.300e+01 -1.300e+01 -1.300e+01 -1.300e+01 -1.300e+01 -1.300e+01 -1.300e+01 -1.300e+01 -1.300e+01 -1.300e+01 -1.300e+01 -1.300e+01 -1.300e+01 -1.300e+01 -1.300e+01 -1.300e+01 -1.300e+01 -1.300e+01 -1.300e+01 -1.300e+01 -1.300e+01 -1.300e+01 -1.300e+01 -1.300e+01 -1.300e+01 -1.300e+01 -1.300e+01 -1.300e+01 -1.300e+01 -1.300e+01 -1.300e+01 -1.300e+01 -1.300e+01 -1.300e+01 -1.300e+01 -1.300e+01 -1.300e+01 -1.300e+01 -1.300e+01 -1.300e+01 -1.300e+01 -1.300e+01 -1.300e+01 -1.300e+01 -1.300e+01 -1.300e+01 -1.300e+01 -1.300e+01 -1.300e+01 -1.300e+01 -1.300e+01 -1.300e+01 -1.300e+01 -1.300e+01 -1.300e+01 -1.300e+01 -1.300e+01 -1.300e+01 -1.300e+01 -1.300e+01 -1.300e+01 -1.300e+01 -1.300e+01 -1.300e+01 -1.300e+01 -1.300e+01 -1.300e+01 -1.300e+01 -1.300e+01 -1.300e+01 -1.300e+01 -1.300e+01 -1.300e+01 -1.300e+01 -1.300e+01 -1.300e+01 -1.300e+01 -1.300e+01 -1.300e+01 -1.300e+01 -1.300e+01 -1.300e+01 -1.300e+01 -1.300e+01 -1.300e+01 -1.300e+01 -1.300e+01 -1.300e+01 -1.300e+01 -1.300e+01 -1.300e+01 -1.300e+01 -1.300e+01 -1.300e+01 -1.300e+01 -1.300e+01 -1.300e+01 -1.300e+01 -1.300e+01 -1.300e+01 -1.300e+01 -1.300e+01 -1.300e+01 -1.300e+01 -1.300e+01 -1.300e+01 -1.300e+01 -1.300e+01 -1.300e+01 -1.300e+01 -1.300e+01 -1.300e+01 -1.300e+01 -1.300e+01 -1.300e+01 -1.300e+01 -1.300e+01 -1.300e+01 -1.300e+01 -1.300e+01 -1.300e+01 -1.300e+01 -1.300e+01 -1.300e+01 -1.300e+01 -1.300e+01 -1.300e+01 -1.300e+01 -1.300e+01 -1.300e+01 -1.300e+01 -1.300e+01 -1.300e+01 -1.300e+01 -1.300e+01 -1.300e+01 -1.300e+01 -5.000e+00 -5.000e+00 -5.000e+00 -5.000e+00 -5.000e+00 -5.000e+00 -5.000e+00 -5.000e+00 -5.000e+00 -5.000e+00 -5.000e+00 -5.000e+00 -5.000e+00 -5.000e+00 -5.000e+00 -5.000e+00 -5.000e+00 -5.000e+00 -5.000e+00 -5.000e+00 -5.000e+00 -5.000e+00 -5.000e+00 -5.000e+00 -5.000e+00 -5.000e+00 -5.000e+00 -5.000e+00 -1.700e+01 -1.700e+01 -1.700e+01 -1.700e+01 -1.700e+01 -1.700e+01 -1.700e+01 -1.700e+01 -1.700e+01 -1.700e+01 -1.700e+01 -1.700e+01 -1.700e+01 -1.700e+01 -1.700e+01 -1.700e+01 -1.700e+01 -1.700e+01 -1.700e+01 -1.700e+01 -9.000e+00 -9.000e+00 -9.000e+00 -9.000e+00 -9.000e+00 -9.000e+00 -9.000e+00 -9.000e+00 -9.000e+00 -9.000e+00 -9.000e+00 -9.000e+00 -9.000e+00 -9.000e+00 -9.000e+00 -9.000e+00 -9.000e+00 -9.000e+00 -1.700e+01 -1.700e+01 -1.700e+01 -1.700e+01 -1.700e+01 -1.700e+01 -1.700e+01 -1.700e+01 -1.700e+01 -1.700e+01 -1.700e+01 -1.700e+01 -1.700e+01 -1.700e+01 -1.700e+01 -1.700e+01 -1.700e+01 -1.700e+01 -1.700e+01 -1.700e+01 -9.000e+00 -9.000e+00 -9.000e+00 -9.000e+00 -9.000e+00 -9.000e+00 -9.000e+00 -9.000e+00 -9.000e+00 -9.000e+00 -9.000e+00 -9.000e+00 -9.000e+00 -9.000e+00 -9.000e+00 -9.000e+00 -9.000e+00 -9.000e+00 -1.700e+01 -1.700e+01 -1.700e+01 -1.700e+01 -1.700e+01 -1.700e+01 -1.700e+01 -1.700e+01 -1.700e+01 -1.700e+01 -1.700e+01 -1.700e+01 -1.700e+01 -1.700e+01 -1.700e+01 -1.700e+01 -1.700e+01 -1.700e+01 -1.700e+01 -1.700e+01 -9.000e+00 -9.000e+00 -9.000e+00 -9.000e+00 -9.000e+00 -9.000e+00 -9.000e+00 -9.000e+00 -9.000e+00 -9.000e+00 -9.000e+00 -9.000e+00 -9.000e+00 -9.000e+00 -9.000e+00 -9.000e+00 -9.000e+00 -9.000e+00 -1.700e+01 -1.700e+01 -1.700e+01 -1.700e+01 -1.700e+01 -1.700e+01 -1.700e+01 -1.700e+01 -1.700e+01 -1.700e+01 -1.700e+01 -1.700e+01 -1.700e+01 -1.700e+01 -1.700e+01 -1.700e+01 -1.700e+01 -1.700e+01 -1.700e+01 -1.700e+01 -9.000e+00 -9.000e+00 -9.000e+00 -9.000e+00 -9.000e+00 -9.000e+00 -9.000e+00 -9.000e+00 -9.000e+00 -9.000e+00 -9.000e+00 -9.000e+00 -9.000e+00 -9.000e+00 -9.000e+00 -9.000e+00 -9.000e+00 -9.000e+00 -1.800e+01 -1.800e+01 -1.800e+01 -1.800e+01 -1.800e+01 -1.800e+01 -1.800e+01 -1.800e+01 -1.800e+01 -1.800e+01 -1.800e+01 -1.800e+01 -1.800e+01 -1.800e+01 -1.800e+01 -1.800e+01 -1.800e+01 -1.800e+01 -1.800e+01 -2.000e+00 -2.000e+00 -2.000e+00 -2.000e+00 -2.000e+00 -2.000e+00 -2.000e+00 -2.000e+00 -2.000e+00 -2.000e+00 -2.000e+00 -2.000e+00 -7.000e+00 -7.000e+00 -7.000e+00 -7.000e+00 -7.000e+00 -1.500e+01 -1.500e+01 -7.000e+00 -7.000e+00 -7.000e+00 -7.000e+00 -7.000e+00 -7.000e+00 -7.000e+00 -1.500e+01 -1.500e+01 -7.000e+00 -7.000e+00 -7.000e+00 -7.000e+00 -7.000e+00 -7.000e+00 -7.000e+00 -7.000e+00 -7.000e+00 -7.000e+00 -7.000e+00 -7.000e+00 -7.000e+00 -7.000e+00 -7.000e+00 -7.000e+00 -7.000e+00 -7.000e+00 -7.000e+00 -7.000e+00 -7.000e+00 -7.000e+00 -7.000e+00 -7.000e+00 -7.000e+00 -7.000e+00 -7.000e+00 -7.000e+00 -7.000e+00 -7.000e+00 -7.000e+00 -7.000e+00 -7.000e+00 -7.000e+00 -7.000e+00 -7.000e+00 -7.000e+00 -1.500e+01 -7.000e+00 -7.000e+00 -7.000e+00 -7.000e+00 -7.000e+00 -7.000e+00 -7.000e+00 -7.000e+00 -7.000e+00 -7.000e+00 -7.000e+00 -7.000e+00 -7.000e+00 -7.000e+00 -7.000e+00 -7.000e+00 -7.000e+00 -7.000e+00 -7.000e+00 -7.000e+00 -7.000e+00 -7.000e+00 -7.000e+00 -7.000e+00 -7.000e+00 -7.000e+00 -7.000e+00 -7.000e+00 -7.000e+00 -7.000e+00 -7.000e+00 -7.000e+00 -7.000e+00 -7.000e+00 -7.000e+00 -7.000e+00 -7.000e+00 -7.000e+00 -7.000e+00 -7.000e+00 -7.000e+00 -7.000e+00 -7.000e+00 -7.000e+00 -7.000e+00 -7.000e+00 -7.000e+00 -7.000e+00 -7.000e+00 -7.000e+00 -7.000e+00 -1.500e+01 -7.000e+00 -7.000e+00 -7.000e+00 -7.000e+00 -7.000e+00 -7.000e+00 -7.000e+00 -7.000e+00 -7.000e+00 -7.000e+00 -7.000e+00 -7.000e+00 -7.000e+00 -7.000e+00 -7.000e+00 -7.000e+00 -7.000e+00 -7.000e+00 -7.000e+00 -1.500e+01 -7.000e+00 -7.000e+00 -7.000e+00 -7.000e+00 -7.000e+00 -7.000e+00 -7.000e+00 -7.000e+00 -7.000e+00 -7.000e+00 -7.000e+00 -7.000e+00 -7.000e+00 -7.000e+00 -7.000e+00 -7.000e+00 -7.000e+00 -7.000e+00 -7.000e+00 -7.000e+00 -7.000e+00 -7.000e+00 -7.000e+00 -7.000e+00 -7.000e+00 -7.000e+00 -7.000e+00 -7.000e+00 -7.000e+00 -7.000e+00 -7.000e+00 -1.500e+01 -7.000e+00 -7.000e+00 -7.000e+00 -7.000e+00 -7.000e+00 -7.000e+00 -7.000e+00 -7.000e+00 -7.000e+00 -7.000e+00 -7.000e+00 -7.000e+00 -7.000e+00 -7.000e+00 -7.000e+00 -7.000e+00 -7.000e+00 -7.000e+00 -7.000e+00 -7.000e+00 -7.000e+00 -7.000e+00 -1.500e+01 -1.500e+01 -7.000e+00 -7.000e+00 -7.000e+00 -7.000e+00 -7.000e+00 -7.000e+00 -7.000e+00 -7.000e+00 -7.000e+00 -7.000e+00 -7.000e+00 -7.000e+00 -7.000e+00 -7.000e+00 -7.000e+00 -7.000e+00 -7.000e+00 -1.500e+01 -1.500e+01 -7.000e+00 -7.000e+00 -7.000e+00 -7.000e+00 -7.000e+00 -7.000e+00 -7.000e+00 -7.000e+00 -7.000e+00 -7.000e+00 -7.000e+00 -7.000e+00 -7.000e+00 -7.000e+00 -7.000e+00 -7.000e+00 -7.000e+00 -7.000e+00 -7.000e+00 -7.000e+00 -7.000e+00 -7.000e+00 -7.000e+00 -7.000e+00 -7.000e+00 -7.000e+00 -1.500e+01 -1.500e+01 -7.000e+00 -7.000e+00 -7.000e+00 -7.000e+00 -7.000e+00 -7.000e+00 -7.000e+00 -1.500e+01 -7.000e+00 -7.000e+00 -7.000e+00 -7.000e+00 -7.000e+00 -7.000e+00 -7.000e+00 -7.000e+00 -7.000e+00 -7.000e+00 -7.000e+00 -1.500e+01 -1.500e+01 -7.000e+00 -7.000e+00 -7.000e+00 -7.000e+00 -7.000e+00 -7.000e+00 -7.000e+00 -7.000e+00 -7.000e+00 -7.000e+00 -7.000e+00 -7.000e+00 -7.000e+00 -7.000e+00 -7.000e+00 -7.000e+00 -7.000e+00 -7.000e+00 -7.000e+00 -7.000e+00 -7.000e+00 -7.000e+00 -7.000e+00 -7.000e+00 -7.000e+00 -7.000e+00 -7.000e+00 -7.000e+00 -7.000e+00 -7.000e+00 -7.000e+00 -7.000e+00 -7.000e+00 -7.000e+00 -7.000e+00 -7.000e+00 -7.000e+00 -7.000e+00 -7.000e+00 -7.000e+00 -7.000e+00 -7.000e+00 -7.000e+00 -7.000e+00 -7.000e+00 -7.000e+00 -7.000e+00 -7.000e+00 -7.000e+00 -7.000e+00 -7.000e+00 -7.000e+00 -7.000e+00 -7.000e+00 -7.000e+00 -7.000e+00 -7.000e+00 -7.000e+00 -7.000e+00 -7.000e+00 -7.000e+00 -7.000e+00 -7.000e+00 -7.000e+00 -7.000e+00 -1.500e+01 -1.500e+01 -7.000e+00 -7.000e+00 -7.000e+00 -7.000e+00 -7.000e+00 -7.000e+00 -7.000e+00 -7.000e+00 -7.000e+00 -7.000e+00 -7.000e+00 -7.000e+00 -7.000e+00 -7.000e+00 -7.000e+00 -7.000e+00 -7.000e+00 -7.000e+00 -7.000e+00 -7.000e+00 -7.000e+00 -7.000e+00 -7.000e+00 -7.000e+00 -7.000e+00 -7.000e+00 -7.000e+00 -7.000e+00 -7.000e+00 -7.000e+00 -7.000e+00 -7.000e+00 -7.000e+00 -7.000e+00 -7.000e+00 -7.000e+00 -7.000e+00 -7.000e+00 -7.000e+00 -7.000e+00 -7.000e+00 -7.000e+00 -7.000e+00 -7.000e+00 -7.000e+00 -7.000e+00 -7.000e+00 -7.000e+00 -7.000e+00 -7.000e+00 -7.000e+00 -7.000e+00 -7.000e+00 -7.000e+00 -7.000e+00 -7.000e+00 -7.000e+00 -1.500e+01 -7.000e+00 -7.000e+00 -7.000e+00 -7.000e+00 -7.000e+00 -7.000e+00 -7.000e+00 -7.000e+00 -7.000e+00 -7.000e+00 -7.000e+00 -7.000e+00 -7.000e+00 -7.000e+00 -7.000e+00 -7.000e+00 -7.000e+00 -7.000e+00 -7.000e+00 -7.000e+00 -7.000e+00 -7.000e+00 -7.000e+00 -7.000e+00 -7.000e+00 -7.000e+00 -7.000e+00 -7.000e+00 -7.000e+00 -7.000e+00 -7.000e+00 -7.000e+00 -7.000e+00 -7.000e+00 -7.000e+00 -7.000e+00 -7.000e+00 -7.000e+00 -7.000e+00 -7.000e+00 -7.000e+00 -7.000e+00 -7.000e+00 -7.000e+00 -7.000e+00 -7.000e+00 -7.000e+00 -7.000e+00 -7.000e+00 -7.000e+00 -7.000e+00 -7.000e+00 -7.000e+00 -7.000e+00 -7.000e+00 -7.000e+00 -1.500e+01 -1.500e+01 -7.000e+00 -7.000e+00 -7.000e+00 -7.000e+00 -7.000e+00 -7.000e+00 -7.000e+00 -7.000e+00 -7.000e+00 -7.000e+00 -7.000e+00 -7.000e+00 -7.000e+00 -7.000e+00 -7.000e+00 -7.000e+00 -7.000e+00 -7.000e+00 -7.000e+00 -7.000e+00 -7.000e+00 -7.000e+00 -7.000e+00 -7.000e+00 -7.000e+00 -7.000e+00 -7.000e+00 -7.000e+00 -7.000e+00 -7.000e+00 -7.000e+00 -7.000e+00 -7.000e+00 -7.000e+00 -7.000e+00 -7.000e+00 -7.000e+00 -7.000e+00 -7.000e+00 -7.000e+00 -7.000e+00 -7.000e+00 -7.000e+00 -7.000e+00 -7.000e+00 -7.000e+00 -7.000e+00 -7.000e+00 -1.500e+01 -1.500e+01 -1.500e+01 -7.000e+00 -7.000e+00 -7.000e+00 -7.000e+00 -7.000e+00 -7.000e+00 -7.000e+00 -7.000e+00 -7.000e+00 -7.000e+00 -7.000e+00 -7.000e+00 -7.000e+00 -7.000e+00 -7.000e+00 -7.000e+00 -7.000e+00 -7.000e+00 -7.000e+00 -7.000e+00 -7.000e+00 -7.000e+00 -7.000e+00 -7.000e+00 -7.000e+00 -7.000e+00 -7.000e+00 -7.000e+00 -7.000e+00 -7.000e+00 -7.000e+00 -7.000e+00 -7.000e+00 -7.000e+00 -7.000e+00 -7.000e+00 -7.000e+00 -7.000e+00 -7.000e+00 -7.000e+00 -7.000e+00 -7.000e+00 -7.000e+00 -7.000e+00 -7.000e+00 -7.000e+00 -7.000e+00 -7.000e+00 -7.000e+00 -7.000e+00 -7.000e+00 -7.000e+00 -7.000e+00 -7.000e+00 -7.000e+00 -7.000e+00 -7.000e+00 -7.000e+00 -7.000e+00 -7.000e+00 -7.000e+00 -7.000e+00 -7.000e+00 -7.000e+00 -7.000e+00 -7.000e+00 -7.000e+00 -7.000e+00 -7.000e+00 -7.000e+00 -7.000e+00 -7.000e+00 -7.000e+00 -7.000e+00 -7.000e+00 -7.000e+00 -7.000e+00 -7.000e+00 -7.000e+00 -7.000e+00 -7.000e+00 -7.000e+00 -7.000e+00 -7.000e+00 -7.000e+00 -7.000e+00 -7.000e+00 -1.500e+01 -1.500e+01 -7.000e+00 -7.000e+00 -7.000e+00 -7.000e+00 -7.000e+00 -7.000e+00 -7.000e+00 -7.000e+00 -7.000e+00 -7.000e+00 -7.000e+00 -7.000e+00 -7.000e+00 -7.000e+00 -7.000e+00 -7.000e+00 -7.000e+00 -7.000e+00 -7.000e+00 -7.000e+00 -7.000e+00 -7.000e+00 -7.000e+00 -7.000e+00 -7.000e+00 -7.000e+00 -7.000e+00 -7.000e+00 -7.000e+00 -7.000e+00 -7.000e+00 -7.000e+00 -7.000e+00 -7.000e+00 -2.000e+01 -2.000e+01 -1.100e+01 -1.100e+01 -1.100e+01 -1.100e+01 -1.100e+01 -1.100e+01 -1.100e+01 -1.100e+01 -1.100e+01 -1.100e+01 -1.100e+01 -1.100e+01 -1.100e+01 -1.100e+01 -1.100e+01 -1.100e+01 -4.000e+00 -4.000e+00 -4.000e+00 -4.000e+00 -4.000e+00 -4.000e+00 -4.000e+00 -4.000e+00 -4.000e+00 -4.000e+00 -4.000e+00 -4.000e+00 -4.000e+00 -4.000e+00 -4.000e+00 -4.000e+00 -4.000e+00 -4.000e+00 -4.000e+00 -4.000e+00 -4.000e+00 -4.000e+00 -4.000e+00 -4.000e+00 -4.000e+00 -4.000e+00 -4.000e+00 -4.000e+00 -4.000e+00 -4.000e+00 -4.000e+00 -4.000e+00 -4.000e+00 -4.000e+00 -4.000e+00 -4.000e+00 -4.000e+00 -4.000e+00 -4.000e+00 -4.000e+00 -4.000e+00 -4.000e+00 -4.000e+00 -4.000e+00 -4.000e+00 -4.000e+00 -4.000e+00 -4.000e+00 -4.000e+00 -4.000e+00 -4.000e+00 -4.000e+00 -4.000e+00 -4.000e+00
           </DataArray>
           <DataArray type="Float32" Name="nitrate/minimalNutrientConcentration" NumberOfComponents="1" format="ascii">