<?xml version="1.0"?>
<VTKFile type="UnstructuredGrid" version="0.1" byte_order="LittleEndian">
   <UnstructuredGrid>
      <Piece NumberOfPoints="14060" NumberOfCells="1004">
         <Points>
            <DataArray type="Float32" Name="Position" NumberOfComponents="3" format="ascii">
-0.087	-5.026	0.101
-0.086	-5.017	0.102
-0.091	-5.009	0.105
-0.098	-5.007	0.110
-0.106	-5.010	0.115
-0.111	-5.017	0.117
-0.111	-5.027	0.116
-0.107	-5.034	0.113
-0.099	-5.037	0.108
-0.092	-5.034	0.104
0.348	-5.094	0.824
0.348	-5.085	0.825
0.343	-5.078	0.829
0.336	-5.076	0.834
0.329	-5.079	0.839
0.325	-5.087	0.841
0.325	-5.097	0.840
0.330	-5.104	0.836
0.337	-5.106	0.831
0.344	-5.102	0.826
0.625	-5.112	1.168
0.624	-5.103	1.169
0.619	-5.096	1.174
0.612	-5.095	1.179
0.606	-5.099	1.184
0.602	-5.108	1.187
0.603	-5.117	1.185
0.608	-5.123	1.181
0.615	-5.124	1.175
0.622	-5.120	1.170
-0.189	-5.078	0.220
-0.186	-5.071	0.224
-0.186	-5.062	0.225
-0.191	-5.054	0.222
-0.197	-5.051	0.216
-0.203	-5.054	0.209
-0.206	-5.061	0.205
-0.205	-5.070	0.204
-0.201	-5.078	0.207
-0.195	-5.081	0.213
-0.817	-5.181	0.820
-0.814	-5.174	0.825
-0.815	-5.165	0.827
-0.820	-5.157	0.824
-0.827	-5.154	0.818
-0.833	-5.157	0.811
-0.836	-5.164	0.806
-0.834	-5.173	0.805
-0.830	-5.181	0.808
-0.823	-5.184	0.813
-1.077	-5.291	1.083
-1.074	-5.284	1.088
-1.076	-5.275	1.090
-1.081	-5.268	1.088
-1.088	-5.265	1.083
-1.094	-5.267	1.076
-1.097	-5.274	1.071
-1.095	-5.283	1.068
-1.090	-5.290	1.071
-1.083	-5.293	1.076
-0.971	-5.737	1.063
-0.964	-5.738	1.069
-0.962	-5.741	1.078
-0.966	-5.745	1.085
-0.974	-5.748	1.089
-0.983	-5.750	1.087
-0.989	-5.748	1.081
-0.991	-5.745	1.072
-0.987	-5.742	1.065
-0.980	-5.738	1.061
-0.803	-6.538	0.741
-0.796	-6.540	0.747
-0.795	-6.543	0.755
-0.799	-6.547	0.763
-0.807	-6.549	0.767
-0.816	-6.549	0.765
-0.823	-6.547	0.759
-0.824	-6.543	0.750
-0.820	-6.540	0.743
-0.812	-6.538	0.739
-0.821	-6.901	0.597
-0.815	-6.903	0.603
-0.814	-6.907	0.612
-0.819	-6.910	0.619
-0.827	-6.911	0.623
-0.836	-6.909	0.621
-0.842	-6.907	0.615
-0.843	-6.903	0.606
-0.839	-6.900	0.599
-0.830	-6.899	0.595
-1.049	-5.838	1.151
-1.049	-5.829	1.152
-1.053	-5.822	1.156
-1.061	-5.820	1.161
-1.068	-5.823	1.165
-1.073	-5.831	1.168
-1.073	-5.840	1.167
-1.068	-5.847	1.163
-1.061	-5.849	1.158
-1.053	-5.846	1.153
-0.600	-5.912	1.832
-0.599	-5.902	1.833
-0.604	-5.895	1.837
-0.611	-5.893	1.842
-0.619	-5.896	1.846
-0.624	-5.904	1.848
-0.625	-5.913	1.846
-0.620	-5.920	1.842
-0.613	-5.922	1.837
-0.605	-5.919	1.833
-0.501	-5.965	2.016
-0.500	-5.957	2.018
-0.504	-5.949	2.022
-0.512	-5.947	2.027
-0.520	-5.950	2.030
-0.525	-5.957	2.031
-0.526	-5.966	2.029
-0.522	-5.973	2.025
-0.515	-5.976	2.020
-0.507	-5.973	2.017
-1.154	-5.930	1.254
-1.154	-5.921	1.253
-1.151	-5.914	1.247
-1.146	-5.911	1.240
-1.141	-5.915	1.234
-1.137	-5.923	1.230
-1.137	-5.932	1.232
-1.140	-5.939	1.237
-1.145	-5.941	1.244
-1.150	-5.938	1.251
-1.800	-6.028	0.766
-1.799	-6.019	0.765
-1.796	-6.013	0.760
-1.790	-6.011	0.752
-1.785	-6.015	0.746
-1.782	-6.023	0.743
-1.782	-6.032	0.744
-1.785	-6.039	0.750
-1.791	-6.040	0.757
-1.796	-6.037	0.763
-2.031	-6.027	0.568
-2.023	-6.023	0.569
-2.013	-6.024	0.569
-2.007	-6.030	0.568
-2.005	-6.039	0.568
-2.009	-6.048	0.567
-2.017	-6.052	0.567
-2.026	-6.051	0.567
-2.033	-6.045	0.567
-2.035	-6.035	0.568
-1.224	-6.013	1.313
-1.217	-6.013	1.320
-1.216	-6.015	1.329
-1.220	-6.019	1.336
-1.228	-6.022	1.339
-1.237	-6.024	1.337
-1.243	-6.023	1.331
-1.245	-6.021	1.322
-1.241	-6.017	1.314
-1.232	-6.014	1.311
-1.027	-6.772	1.080
-1.021	-6.772	1.087
-1.020	-6.775	1.096
-1.024	-6.778	1.104
-1.032	-6.781	1.107
-1.041	-6.782	1.105
-1.047	-6.782	1.098
-1.048	-6.779	1.089
-1.044	-6.776	1.082
-1.036	-6.773	1.078
-0.933	-7.243	0.939
-0.927	-7.244	0.946
-0.926	-7.247	0.954
-0.930	-7.250	0.962
-0.938	-7.252	0.965
-0.947	-7.253	0.963
-0.953	-7.253	0.956
-0.955	-7.250	0.947
-0.950	-7.247	0.940
-0.942	-7.244	0.937
-1.308	-6.109	1.390
-1.301	-6.110	1.396
-1.298	-6.113	1.404
-1.301	-6.118	1.412
-1.308	-6.122	1.415
-1.317	-6.125	1.414
-1.324	-6.125	1.408
-1.327	-6.122	1.400
-1.324	-6.117	1.393
-1.317	-6.112	1.389
-1.030	-6.847	1.009
-1.022	-6.848	1.014
-1.019	-6.852	1.022
-1.021	-6.857	1.029
-1.028	-6.862	1.033
-1.037	-6.864	1.033
-1.044	-6.863	1.028
-1.048	-6.859	1.020
-1.046	-6.854	1.013
-1.039	-6.850	1.008
-0.978	-7.112	0.808
-0.970	-7.114	0.812
-0.965	-7.118	0.819
-0.967	-7.124	0.826
-0.973	-7.129	0.831
-0.982	-7.131	0.831
-0.991	-7.129	0.827
-0.995	-7.125	0.820
-0.993	-7.119	0.813
-0.987	-7.114	0.808
-1.403	-6.220	1.489
-1.402	-6.211	1.488
-1.398	-6.204	1.482
-1.392	-6.203	1.475
-1.387	-6.208	1.469
-1.384	-6.216	1.467
-1.385	-6.225	1.468
-1.389	-6.232	1.474
-1.395	-6.233	1.481
-1.400	-6.228	1.487
-2.052	-6.278	0.938
-2.052	-6.269	0.936
-2.049	-6.262	0.931
-2.043	-6.260	0.924
-2.038	-6.264	0.917
-2.034	-6.272	0.914
-2.034	-6.281	0.916
-2.037	-6.288	0.921
-2.043	-6.290	0.928
-2.048	-6.286	0.935
-2.252	-6.318	0.794
-2.253	-6.309	0.793
-2.250	-6.302	0.787
-2.245	-6.299	0.780
-2.240	-6.302	0.773
-2.236	-6.310	0.770
-2.235	-6.319	0.771
-2.237	-6.326	0.776
-2.242	-6.329	0.783
-2.248	-6.326	0.790
-1.469	-6.312	1.542
-1.462	-6.312	1.548
-1.460	-6.314	1.557
-1.463	-6.319	1.565
-1.470	-6.323	1.568
-1.478	-6.327	1.566
-1.485	-6.327	1.560
-1.487	-6.325	1.551
-1.484	-6.320	1.543
-1.477	-6.316	1.540
-1.123	-7.039	1.250
-1.116	-7.039	1.256
-1.113	-7.042	1.265
-1.116	-7.047	1.272
-1.123	-7.052	1.276
-1.131	-7.055	1.274
-1.138	-7.055	1.268
-1.141	-7.052	1.260
-1.138	-7.047	1.252
-1.131	-7.043	1.248
-1.083	-7.131	1.200
-1.076	-7.131	1.206
-1.073	-7.134	1.214
-1.075	-7.139	1.222
-1.082	-7.144	1.225
-1.091	-7.148	1.224
-1.098	-7.147	1.218
-1.101	-7.144	1.210
-1.099	-7.139	1.203
-1.092	-7.134	1.199
-1.559	-6.430	1.638
-1.561	-6.422	1.637
-1.560	-6.414	1.632
-1.556	-6.411	1.624
-1.550	-6.413	1.618
-1.545	-6.420	1.614
-1.543	-6.429	1.615
-1.544	-6.436	1.620
-1.548	-6.439	1.628
-1.554	-6.437	1.635
-2.164	-6.629	1.195
-2.156	-6.625	1.195
-2.147	-6.627	1.195
-2.140	-6.633	1.195
-2.139	-6.642	1.195
-2.143	-6.651	1.195
-2.151	-6.655	1.195
-2.160	-6.653	1.195
-2.167	-6.647	1.195
-2.168	-6.638	1.195
-1.624	-6.527	1.682
-1.617	-6.526	1.689
-1.615	-6.529	1.697
-1.618	-6.533	1.705
-1.625	-6.538	1.708
-1.633	-6.542	1.707
-1.640	-6.542	1.700
-1.642	-6.540	1.692
-1.640	-6.535	1.684
-1.633	-6.530	1.681
-1.266	-7.265	1.361
-1.259	-7.264	1.367
-1.257	-7.267	1.376
-1.259	-7.272	1.383
-1.266	-7.277	1.387
-1.274	-7.281	1.385
-1.281	-7.281	1.379
-1.284	-7.278	1.370
-1.281	-7.273	1.363
-1.274	-7.268	1.359
-1.109	-7.573	1.203
-1.102	-7.573	1.209
-1.099	-7.576	1.217
-1.101	-7.581	1.224
-1.108	-7.586	1.228
-1.117	-7.589	1.227
-1.124	-7.590	1.220
-1.126	-7.587	1.212
-1.124	-7.582	1.205
-1.117	-7.577	1.201
-1.700	-6.637	1.751
-1.693	-6.637	1.757
-1.692	-6.639	1.766
-1.695	-6.643	1.774
-1.702	-6.647	1.777
-1.711	-6.650	1.775
-1.718	-6.650	1.768
-1.719	-6.648	1.760
-1.716	-6.644	1.752
-1.708	-6.640	1.749
-1.378	-7.419	1.476
-1.371	-7.419	1.482
-1.370	-7.422	1.491
-1.373	-7.426	1.499
-1.381	-7.430	1.502
-1.390	-7.432	1.500
-1.396	-7.432	1.494
-1.398	-7.429	1.485
-1.395	-7.425	1.478
-1.387	-7.421	1.474
-1.330	-7.603	1.404
-1.324	-7.603	1.411
-1.322	-7.606	1.419
-1.326	-7.610	1.427
-1.333	-7.614	1.430
-1.342	-7.615	1.429
-1.349	-7.614	1.422
-1.351	-7.612	1.414
-1.347	-7.608	1.406
-1.339	-7.604	1.403
-0.280	-5.116	0.308
-0.275	-5.116	0.315
-0.275	-5.116	0.325
-0.281	-5.118	0.332
-0.290	-5.119	0.334
-0.298	-5.121	0.331
-0.303	-5.122	0.323
-0.303	-5.121	0.314
-0.297	-5.120	0.307
-0.288	-5.118	0.304
-0.116	-5.904	0.271
-0.111	-5.903	0.279
-0.111	-5.904	0.288
-0.117	-5.905	0.295
-0.126	-5.907	0.298
-0.134	-5.908	0.294
-0.139	-5.909	0.287
-0.139	-5.908	0.277
-0.133	-5.907	0.270
-0.124	-5.905	0.268
-0.003	-6.651	0.230
-0.003	-6.647	0.239
-0.003	-6.648	0.248
-0.003	-6.655	0.254
-0.003	-6.664	0.256
-0.003	-6.672	0.252
-0.003	-6.676	0.243
-0.003	-6.675	0.234
-0.003	-6.668	0.228
-0.003	-6.659	0.226
-1.790	-6.757	1.843
-1.791	-6.747	1.842
-1.788	-6.740	1.837
-1.783	-6.738	1.830
-1.778	-6.741	1.823
-1.774	-6.749	1.819
-1.774	-6.758	1.820
-1.776	-6.765	1.825
-1.781	-6.768	1.833
-1.787	-6.764	1.840
-2.459	-6.849	1.362
-2.460	-6.840	1.361
-2.457	-6.832	1.357
-2.452	-6.830	1.349
-2.447	-6.833	1.342
-2.444	-6.841	1.338
-2.443	-6.850	1.338
-2.446	-6.857	1.343
-2.451	-6.860	1.351
-2.456	-6.857	1.358
-2.561	-6.851	1.298
-2.561	-6.842	1.297
-2.558	-6.834	1.293
-2.553	-6.832	1.285
-2.548	-6.835	1.278
-2.545	-6.842	1.273
-2.545	-6.851	1.274
-2.548	-6.859	1.278
-2.553	-6.862	1.286
-2.558	-6.859	1.293
-1.847	-6.868	1.889
-1.846	-6.859	1.891
-1.850	-6.852	1.895
-1.858	-6.849	1.900
-1.865	-6.852	1.904
-1.871	-6.860	1.905
-1.871	-6.869	1.903
-1.867	-6.876	1.898
-1.860	-6.879	1.893
-1.852	-6.875	1.890
-1.443	-7.050	2.577
-1.442	-7.041	2.579
-1.446	-7.035	2.585
-1.453	-7.033	2.590
-1.461	-7.037	2.594
-1.466	-7.045	2.594
-1.467	-7.053	2.592
-1.463	-7.060	2.586
-1.455	-7.062	2.581
-1.448	-7.058	2.577
-1.279	-7.153	2.787
-1.278	-7.144	2.790
-1.282	-7.138	2.796
-1.289	-7.137	2.802
-1.297	-7.141	2.806
-1.302	-7.149	2.806
-1.302	-7.158	2.802
-1.298	-7.164	2.796
-1.291	-7.165	2.790
-1.284	-7.160	2.787
-1.930	-6.968	1.949
-1.924	-6.968	1.956
-1.921	-6.970	1.965
-1.925	-6.975	1.972
-1.932	-6.979	1.976
-1.940	-6.983	1.974
-1.947	-6.983	1.967
-1.949	-6.981	1.959
-1.946	-6.976	1.951
-1.939	-6.972	1.948
-1.591	-7.695	1.663
-1.585	-7.694	1.670
-1.582	-7.696	1.678
-1.585	-7.701	1.686
-1.592	-7.707	1.689
-1.600	-7.711	1.687
-1.606	-7.712	1.681
-1.609	-7.710	1.672
-1.606	-7.705	1.665
-1.599	-7.699	1.661
-1.517	-7.791	1.616
-1.510	-7.789	1.623
-1.508	-7.791	1.632
-1.510	-7.796	1.639
-1.516	-7.803	1.642
-1.524	-7.808	1.640
-1.530	-7.809	1.634
-1.532	-7.807	1.625
-1.530	-7.802	1.618
-1.524	-7.796	1.614
-1.999	-7.092	2.019
-1.999	-7.083	2.020
-2.003	-7.075	2.024
-2.010	-7.072	2.028
-2.018	-7.075	2.032
-2.024	-7.082	2.034
-2.024	-7.091	2.033
-2.020	-7.099	2.029
-2.013	-7.102	2.025
-2.005	-7.099	2.021
-1.619	-7.195	2.726
-1.619	-7.186	2.727
-1.623	-7.178	2.731
-1.630	-7.175	2.735
-1.638	-7.178	2.739
-1.644	-7.186	2.741
[...]
         <CellData>
           <DataArray type="Float32" Name="combinedRootClassID" NumberOfComponents="1" format="ascii">
 -1.300e+01 -1.300e+01 -1.300e+01 -1.300e+01 -1.300e+01 -1.300e+01 -1.300e+01 -1.300e+01 -1.300e+01 -1.300e+01 -1.300e+01 -1.300e+01 -1.300e+01 -1.300e+01 -1.300e+01 -1.300e+01 -1.300e+01 -1.300e+01 -1.300e+01 -1.300e+01 -1.300e+01 -1.300e+01 -1.300e+01 -1.300e+01 -1.300e+01 -1.300e+01 -1.300e+01 -1.300e+01 -1.300e+01 -1.300e+01 -1.300e+01 -1.300e+01 -1.300e+01 -1.300e+01 -1.300e+01 -1.300e+01 -1.300e+01 -1.300e+01 -1.300e+01 -1.300e+01 -1.300e+01 -1.300e+01 -1.300e+01 -1.300e+01 -1.300e+01 -1.300e+01 -1.300e+01 -1.300e+01 -1.300e+01 -1.300e+01 -1.300e+01 -1.300e+01 -1.300e+01 -1.300e+01 -1.300e+01 -1.300e+01 -1.300e+01 -1.300e+01 -1.300e+01 -1.300e+01 -1.300e+01 -1.300e+01 -1.300e+01 -1.300e+01 -1.300e+01 -1.300e+01 -1.300e+01 -1.300e+01 -1.300e+01 -1.300e+01 -1.300e+01 -1.300e+01 -1.300e+01 -1.300e+01 -1.300e+01 -1.300e+01 -1.300e+01 -1.300e+01 -1.300e+01 -1.300e+01 -1.300e+01 -1.300e+01 -1.300e+01 -1.300e+01 -1.300e+01 -1.300e+01 -1.300e+01 -1.300e+01 -1.300e+01 -5.000e+00 -5.000e+00 -5.000e+00 -5.000e+00 -5.000e+00 -5.000e+00 -5.000e+00 -5.000e+00 -5.000e+00 -5.000e+00 -5.000e+00 -5.000e+00 -5.000e+00 -5.000e+00 -5.000e+00 -5.000e+00 -5.000e+00 -5.000e+00 -5.000e+00 -5.000e+00 -5.000e+00 -5.000e+00 -5.000e+00 -1.300e+01 -1.300e+01 -1.300e+01 -1.300e+01 -1.300e+01 -1.300e+01 -1.300e+01 -1.300e+01 -1.300e+01 -1.300e+01 -1.300e+01 -1.300e+01 -1.300e+01 -1.300e+01 -1.300e+01 -1.300e+01 -1.300e+01 -1.300e+01 -1.300e+01 -1.300e+01 -1.300e+01 -1.300e+01 -1.300e+01 -1.300e+01 -1.300e+01 -1.300e+01 -1.300e+01 -1.300e+01 -1.300e+01 -1.300e+01 -1.300e+01 -1.300e+01 -1.300e+01 -1.300e+01 -1.300e+01 -1.300e+01 -1.300e+01 -1.300e+01 -1.300e+01 -1.300e+01 -1.300e+01 -1.300e+01 -1.300e+01 -1.300e+01 -1.300e+01 -1.300e+01 -1.300e+01 -1.300e+01 -1.300e+01 -1.300e+01 -1.300e+01 -1.300e+01 -1.300e+01 -1.300e+01 -1.300e+01 -1.300e+01 -1.300e+01 -1.300e+01 -1.300e+01 -1.300e+01 -1.300e+01 -1.300e+01 -1.300e+01 -1.300e+01 -1.300e+01 -1.300e+01 -1.300e+01 -1.300e+01 -1.300e+01 -1.300e+01 -1.300e+01 -1.300e+01 -1.300e+01 -1.300e+01 -1.300e+01 -1.300e+01 -1.300e+01 -1.300e+01 -1.300e+01 -1.300e+01 -1.300e+01 -1.300e+01 -1.300e+01 -1.300e+01 -1.300e+01 -1.300e+01 -1.300e+01 -1.300e+01 -5.000e+00 -5.000e+00 -5.000e+00 -5.000e+00 -5.000e+00 -5.000e+00 -5.000e+00 -5.000e+00 -5.000e+00 -5.000e+00 -5.000e+00 -5.000e+00 -5.000e+00 -5.000e+00 -5.000e+00 -5.000e+00 -5.000e+00 -5.000e+00 -5.000e+00 -5.000e+00 -5.000e+00 -5.000e+00 -5.000e+00 -1.300e+01 -1.300e+01 -1.300e+01 -1.300e+01 -1.300e+01 -1.300e+01 -1.300e+01 -1.300e+01 -1.300e+01 -1.300e+01 -1.300e+01 -1.300e+01 -1.300e+01 -1.300e+01 -1.300e+01 -1.300e+01 -1.300e+01 -1.300e+01 -1.300e+01 -1.300e+01 -1.300e+01 -1.300e+01 -1.300e+01 -1.300e+01 -1.300e+01 -1.300e+01 -1.300e+01 -1.300e+01 -1.300e+01 -1.300e+01 -1.300e+01 -1.300e+01 -1.300e+01 -1.300e+01 -1.300e+01 -1.300e+01 -1.300e+01 -1.300e+01 -1.300e+01 -1.300e+01 -1.300e+01 -1.300e+01 -1.300e+01 -1.300e+01 -1.300e+01 -1.300e+01 -1.300e+01 -1.300e+01 -1.300e+01 -1.300e+01 -1.300e+01 -1.300e+01 -1.300e+01 -1.300e+01 -1.300e+01 -1.300e+01 -1.300e+01 -1.300e+01 -1.300e+01 -1.300e+01 -1.300e+01 -1.300e+01 -1.300e+01 -1.300e+01 -1.300e+01 -1.300e+01 -1.300e+01 -1.300e+01 -1.300e+01 -1.300e+01 -1.300e+01 -1.300e+01 -1.300e+01 -1.300e+01 -1.300e+01 -1.300e+01 -1.300e+01 -1.300e+01 -1.300e+01 -1.300e+01 -1.300e+01 -1.300e+01 -1.300e+01 -1.300e+01 -1.300e+01 -1.300e+01 -1.300e+01 -1.300e+01 -1.300e+01 -5.000e+00 -5.000e+00 -5.000e+00 -5.000e+00 -5.000e+00 -5.000e+00 -5.000e+00 -5.000e+00 -5.000e+00 -5.000e+00 -5.000e+00 -5.000e+00 -5.000e+00 -5.000e+00 -5.000e+00 -5.000e+00 -5.000e+00 -5.000e+00 -5.000e+00 -5.000e+00 -5.000e+00 -5.000e+00 -5.000e+00 -1.300e+01 -1.300e+01 -1.300e+01 -1.300e+01 -1.300e+01 -1.300e+01 -1.300e+01 -1.300e+01 -1.300e+01 -1.300e+01 -1.300e+01 -1.300e+01 -1.300e+01 -1.300e+01 -1.300e+01 -1.300e+01 -1.300e+01 -1.300e+01 -1.300e+01 -1.300e+01 -1.300e+01 -1.300e+01 -1.300e+01 -1.300e+01 -1.300e+01 -1.300e+01 -1.300e+01 -1.300e+01 -1.300e+01 -1.300e+01 -1.300e+01 -1.300e+01 -1.300e+01 -1.300e+01 -1.300e+01 -1.300e+01 -1.300e+01 -1.300e+01 -1.300e+01 -1.300e+01 -1.300e+01 -1.300e+01 -1.300e+01 -1.300e+01 -1.300e+01 -1.300e+01 -1.300e+01 -1.300e+01 -1.300e+01 -1.300e+01 -1.300e+01 -1.300e+01 -1.300e+01 -1.300e+01 -1.300e+01 -1.300e+01 -1.300e+01 -1.300e+01 -1.300e+01 -1.300e+01 -1.300e+01 -1.300e+01 -1.300e+01 -1.300e+01 -1.300e+01 -1.300e+01 -1.300e+01 -1.300e+01 -1.300e+01 -1.300e+01 -1.300e+01 -1.300e+01 -1.300e+01 -1.300e+01 -1.300e+01 -1.300e+01 -1.300e+01 -1.300e+01 -1.300e+01 -1.300e+01 -1.300e+01 -1.300e+01 -1.300e+01 -1.300e+01 -1.300e+01 -1.300e+01 -1.300e+01 -5.000e+00 -5.000e+00 -5.000e+00 -5.000e+00 -5.000e+00 -5.000e+00 -5.000e+00 -5.000e+00 -5.000e+00 -5.000e+00 -5.000e+00 -5.000e+00 -5.000e+00 -5.000e+00 -5.000e+00 -5.000e+00 -5.000e+00 -5.000e+00 -5.000e+00 -5.000e+00 -5.000e+00 -5.000e+00 -5.000e+00 -9.000e+00 -9.000e+00 -9.000e+00 -9.000e+00 -9.000e+00 -9.000e+00 -9.000e+00 -9.000e+00 -9.000e+00 -9.000e+00 -9.000e+00 -9.000e+00 -9.000e+00 -9.000e+00 -9.000e+00 -9.000e+00 -9.000e+00 -9.000e+00 -9.000e+00 -9.000e+00 -9.000e+00 -9.000e+00 -9.000e+00 -9.000e+00 -9.000e+00 -9.000e+00 -9.000e+00 -9.000e+00 -9.000e+00 -9.000e+00 -9.000e+00 -9.000e+00 -9.000e+00 -9.000e+00 -9.000e+00 -9.000e+00 -9.000e+00 -9.000e+00 -9.000e+00 -9.000e+00 -9.000e+00 -9.000e+00 -9.000e+00 -9.000e+00 -9.000e+00 -9.000e+00 -9.000e+00 -9.000e+00 -9.000e+00 -9.000e+00 -9.000e+00 -9.000e+00 -2.000e+00 -2.000e+00 -2.000e+00 -2.000e+00 -2.000e+00 -2.000e+00 -2.000e+00 -2.000e+00 -2.000e+00 -2.000e+00 -2.000e+00 -2.000e+00 -7.000e+00 -7.000e+00 -7.000e+00 -7.000e+00 -7.000e+00 -7.000e+00 -7.000e+00 -7.000e+00 -7.000e+00 -7.000e+00 -7.000e+00 -7.000e+00 -7.000e+00 -7.000e+00 -7.000e+00 -7.000e+00 -7.000e+00 -7.000e+00 -7.000e+00 -7.000e+00 -7.000e+00 -7.000e+00 -7.000e+00 -7.000e+00 -7.000e+00 -7.000e+00 -7.000e+00 -7.000e+00 -7.000e+00 -7.000e+00 -7.000e+00 -7.000e+00 -7.000e+00 -7.000e+00 -7.000e+00 -7.000e+00 -7.000e+00 -7.000e+00 -7.000e+00 -7.000e+00 -7.000e+00 -7.000e+00 -7.000e+00 -7.000e+00 -7.000e+00 -7.000e+00 -7.000e+00 -7.000e+00 -7.000e+00 -7.000e+00 -7.000e+00 -7.000e+00 -7.000e+00 -7.000e+00 -7.000e+00 -7.000e+00 -7.000e+00 -7.000e+00 -7.000e+00 -7.000e+00 -7.000e+00 -7.000e+00 -7.000e+00 -7.000e+00 -7.000e+00 -7.000e+00 -7.000e+00 -7.000e+00 -7.000e+00 -7.000e+00 -7.000e+00 -7.000e+00 -7.000e+00 -7.000e+00 -7.000e+00 -7.000e+00 -7.000e+00 -7.000e+00 -7.000e+00 -7.000e+00 -7.000e+00 -7.000e+00 -7.000e+00 -7.000e+00 -7.000e+00 -7.000e+00 -7.000e+00 -7.000e+00 -7.000e+00 -7.000e+00 -7.000e+00 -7.000e+00 -7.000e+00 -7.000e+00 -7.000e+00 -7.000e+00 -7.000e+00 -7.000e+00 -7.000e+00 -7.000e+00 -7.000e+00 -7.000e+00 -7.000e+00 -7.000e+00 -7.000e+00 -7.000e+00 -7.000e+00 -7.000e+00 -7.000e+00 -7.000e+00 -7.000e+00 -7.000e+00 -7.000e+00 -7.000e+00 -7.000e+00 -7.000e+00 -7.000e+00 -7.000e+00 -7.000e+00 -7.000e+00 -7.000e+00 -7.000e+00 -7.000e+00 -7.000e+00 -7.000e+00 -7.000e+00 -7.000e+00 -7.000e+00 -7.000e+00 -7.000e+00 -7.000e+00 -7.000e+00 -7.000e+00 -7.000e+00 -7.000e+00 -7.000e+00 -7.000e+00 -7.000e+00 -7.000e+00 -7.000e+00 -7.000e+00 -7.000e+00 -7.000e+00 -7.000e+00 -7.000e+00 -7.000e+00 -7.000e+00 -7.000e+00 -7.000e+00 -7.000e+00 -7.000e+00 -7.000e+00 -7.000e+00 -7.000e+00 -7.000e+00 -7.000e+00 -7.000e+00 -7.000e+00 -7.000e+00 -7.000e+00 -7.000e+00 -1.500e+01 -7.000e+00 -7.000e+00 -7.000e+00 -7.000e+00 -7.000e+00 -7.000e+00 -7.000e+00 -7.000e+00 -7.000e+00 -7.000e+00 -7.000e+00 -7.000e+00 -7.000e+00 -7.000e+00 -7.000e+00 -7.000e+00 -7.000e+00 -7.000e+00 -7.000e+00 -7.000e+00 -7.000e+00 -7.000e+00 -7.000e+00 -7.000e+00 -7.000e+00 -7.000e+00 -7.000e+00 -7.000e+00 -7.000e+00 -7.000e+00 -7.000e+00 -7.000e+00 -7.000e+00 -7.000e+00 -7.000e+00 -7.000e+00 -7.000e+00 -7.000e+00 -7.000e+00 -7.000e+00 -7.000e+00 -7.000e+00 -7.000e+00 -7.000e+00 -7.000e+00 -7.000e+00 -7.000e+00 -7.000e+00 -7.000e+00 -7.000e+00 -7.000e+00 -7.000e+00 -7.000e+00 -7.000e+00 -7.000e+00 -7.000e+00 -7.000e+00 -7.000e+00 -7.000e+00 -7.000e+00 -7.000e+00 -7.000e+00 -7.000e+00 -7.000e+00 -7.000e+00 -7.000e+00 -7.000e+00 -7.000e+00 -7.000e+00 -7.000e+00 -7.000e+00 -7.000e+00 -7.000e+00 -7.000e+00 -7.000e+00 -7.000e+00 -7.000e+00 -7.000e+00 -7.000e+00 -7.000e+00 -7.000e+00 -7.000e+00 -7.000e+00 -7.000e+00 -7.000e+00 -7.000e+00 -7.000e+00 -7.000e+00 -7.000e+00 -7.000e+00 -7.000e+00 -7.000e+00 -7.000e+00 -7.000e+00 -7.000e+00 -7.000e+00 -7.000e+00 -7.000e+00 -7.000e+00 -7.000e+00 -7.000e+00 -7.000e+00 -7.000e+00 -7.000e+00 -7.000e+00 -7.000e+00 -7.000e+00 -7.000e+00 -7.000e+00 -7.000e+00 -7.000e+00 -7.000e+00 -7.000e+00 -7.000e+00 -7.000e+00 -7.000e+00 -7.000e+00 -7.000e+00 -7.000e+00 -7.000e+00 -7.000e+00 -7.000e+00 -7.000e+00 -7.000e+00 -7.000e+00 -7.000e+00 -7.000e+00 -7.000e+00 -7.000e+00 -7.000e+00 -7.000e+00 -7.000e+00 -7.000e+00 -7.000e+00 -7.000e+00 -7.000e+00 -7.000e+00 -7.000e+00 -7.000e+00 -7.000e+00 -7.000e+00 -7.000e+00 -7.000e+00 -7.000e+00 -7.000e+00 -7.000e+00 -7.000e+00 -7.000e+00 -7.000e+00 -7.000e+00 -7.000e+00 -7.000e+00 -7.000e+00 -7.000e+00 -7.000e+00 -7.000e+00 -7.000e+00 -7.000e+00 -7.000e+00 -7.000e+00 -7.000e+00 -7.000e+00 -7.000e+00 -7.000e+00 -7.000e+00 -7.000e+00 -7.000e+00 -7.000e+00 -7.000e+00 -7.000e+00 -7.000e+00 -7.000e+00 -7.000e+00 -7.000e+00 -7.000e+00 -7.000e+00 -7.000e+00 -7.000e+00 -7.000e+00 -7.000e+00 -7.000e+00 -1.500e+01 -7.000e+00 -7.000e+00 -7.000e+00 -7.000e+00 -7.000e+00 -7.000e+00 -7.000e+00 -7.000e+00 -7.000e+00 -7.000e+00 -7.000e+00 -7.000e+00 -7.000e+00 -7.000e+00 -7.000e+00 -7.000e+00 -7.000e+00 -7.000e+00 -7.000e+00 -7.000e+00 -7.000e+00 -7.000e+00 -7.000e+00 -7.000e+00 -7.000e+00 -7.000e+00 -7.000e+00 -7.000e+00 -7.000e+00 -7.000e+00 -7.000e+00 -7.000e+00 -7.000e+00 -7.000e+00 -7.000e+00 -7.000e+00 -7.000e+00 -7.000e+00 -7.000e+00 -7.000e+00 -7.000e+00 -7.000e+00 -7.000e+00 -7.000e+00 -7.000e+00 -7.000e+00 -7.000e+00 -7.000e+00 -7.000e+00 -7.000e+00 -7.000e+00 -7.000e+00 -7.000e+00 -7.000e+00 -7.000e+00 -7.000e+00 -7.000e+00 -7.000e+00 -7.000e+00 -7.000e+00 -7.000e+00 -7.000e+00 -7.000e+00 -7.000e+00 -7.000e+00 -7.000e+00 -7.000e+00 -7.000e+00 -7.000e+00 -7.000e+00 -7.000e+00 -7.000e+00 -7.000e+00 -7.000e+00 -7.000e+00 -7.000e+00 -7.000e+00 -7.000e+00 -7.000e+00 -7.000e+00 -7.000e+00 -7.000e+00 -7.000e+00 -7.000e+00 -7.000e+00 -7.000e+00 -7.000e+00 -7.000e+00 -7.000e+00 -7.000e+00 -7.000e+00 -7.000e+00 -1.100e+01 -1.100e+01 -1.100e+01 -1.100e+01 -1.100e+01 -1.100e+01 -1.100e+01 -1.100e+01 -1.100e+01 -1.100e+01 -4.000e+00 -4.000e+00 -4.000e+00 -4.000e+00 -4.000e+00 -4.000e+00 -4.000e+00 -4.000e+00 -4.000e+00 -4.000e+00 -4.000e+00 -4.000e+00 -4.000e+00 -4.000e+00 -4.000e+00 -4.000e+00 -4.000e+00 -4.000e+00 -4.000e+00 -4.000e+00 -4.000e+00 -4.000e+00 -4.000e+00 -4.000e+00 -4.000e+00 -4.000e+00 -4.000e+00 -4.000e+00 -4.000e+00 -4.000e+00 -4.000e+00 -4.000e+00 -4.000e+00 -4.000e+00 -4.000e+00 -4.000e+00 -4.000e+00 -4.000e+00 -4.000e+00 -4.000e+00 -4.000e+00 -4.000e+00 -4.000e+00 -4.000e+00 -4.000e+00 -4.000e+00 -4.000e+00 -4.000e+00 -4.000e+00
           </DataArray>
           <DataArray type="Float32" Name="nitrate/minimalNutrientConcentration" NumberOfComponents="1" format="ascii">