<?xml version="1.0"?>
<VTKFile type="UnstructuredGrid" version="0.1" byte_order="LittleEndian">
   <UnstructuredGrid>
      <Piece NumberOfPoints="190" NumberOfCells="17">
         <Points>
            <DataArray type="Float32" Name="Position" NumberOfComponents="3" format="ascii">
-0.142	-5.000	0.142
-0.031	-5.000	0.198
0.091	-5.000	0.179
0.179	-5.000	0.091
0.198	-5.000	-0.032
0.142	-5.000	-0.142
0.031	-5.000	-0.198
-0.091	-5.000	-0.179
-0.179	-5.000	-0.091
-0.198	-5.000	0.032
-0.142	-4.040	0.143
-0.031	-4.041	0.199
0.091	-4.041	0.179
0.179	-4.041	0.092
0.198	-4.040	-0.031
0.142	-4.040	-0.141
0.031	-4.040	-0.197
-0.091	-4.040	-0.178
-0.179	-4.040	-0.090
-0.198	-4.040	0.032
-0.140	-3.561	0.145
-0.030	-3.561	0.201
0.093	-3.561	0.182
0.180	-3.561	0.094
0.199	-3.560	-0.028
0.143	-3.560	-0.139
0.032	-3.559	-0.195
-0.090	-3.559	-0.175
-0.177	-3.560	-0.087
-0.197	-3.560	0.035
-0.141	-3.001	0.147
-0.030	-3.001	0.203
0.092	-3.000	0.184
0.179	-3.000	0.096
0.198	-2.999	-0.026
0.141	-2.999	-0.136
0.031	-3.000	-0.192
-0.091	-3.000	-0.173
-0.178	-3.000	-0.085
-0.197	-3.001	0.037
-0.143	-2.401	0.148
-0.033	-2.401	0.204
0.089	-2.400	0.184
0.176	-2.400	0.097
0.195	-2.399	-0.026
0.139	-2.399	-0.136
0.028	-2.400	-0.191
-0.094	-2.400	-0.172
-0.181	-2.401	-0.084
-0.200	-2.401	0.038
-0.146	-1.800	0.150
-0.036	-1.800	0.206
0.086	-1.800	0.187
0.174	-1.800	0.099
0.193	-1.800	-0.023
0.137	-1.800	-0.133
0.027	-1.800	-0.189
-0.095	-1.800	-0.170
-0.183	-1.800	-0.082
-0.202	-1.800	0.040
-0.145	-1.200	0.148
-0.035	-1.200	0.204
0.087	-1.200	0.185
0.175	-1.200	0.098
0.194	-1.201	-0.024
0.139	-1.201	-0.135
0.029	-1.201	-0.191
-0.094	-1.200	-0.172
-0.181	-1.200	-0.085
-0.201	-1.200	0.038
-0.144	-0.600	0.147
-0.034	-0.600	0.204
0.088	-0.600	0.185
0.176	-0.600	0.097
0.195	-0.601	-0.025
0.139	-0.601	-0.135
0.029	-0.601	-0.191
-0.093	-0.600	-0.172
-0.180	-0.600	-0.085
-0.200	-0.600	0.037
-0.143	0.001	0.145
-0.033	0.001	0.201
0.089	0.000	0.182
0.177	-0.000	0.095
0.197	-0.001	-0.027
0.141	-0.001	-0.137
0.031	-0.001	-0.194
-0.091	-0.001	-0.175
-0.179	-0.000	-0.088
-0.199	0.000	0.034
0.026	-4.990	-0.036
0.043	-4.993	-0.014
0.043	-4.999	0.014
0.027	-5.005	0.036
0.001	-5.009	0.045
-0.026	-5.010	0.036
-0.043	-5.007	0.014
-0.043	-5.001	-0.014
-0.027	-4.995	-0.036
-0.001	-4.991	-0.045
0.106	-5.905	-0.229
0.123	-5.908	-0.207
0.124	-5.914	-0.179
0.108	-5.920	-0.157
0.081	-5.924	-0.149
0.054	-5.925	-0.157
0.038	-5.921	-0.179
0.037	-5.915	-0.206
0.053	-5.909	-0.229
0.079	-5.905	-0.237
0.142	-6.363	-0.333
0.159	-6.367	-0.311
0.159	-6.373	-0.283
0.143	-6.379	-0.261
0.117	-6.383	-0.253
0.090	-6.383	-0.261
0.073	-6.379	-0.284
0.073	-6.373	-0.311
0.089	-6.367	-0.333
0.115	-6.363	-0.341
0.172	-6.825	-0.429
0.188	-6.828	-0.407
0.188	-6.833	-0.379
0.171	-6.839	-0.357
0.145	-6.842	-0.349
0.118	-6.842	-0.358
0.102	-6.839	-0.381
0.102	-6.834	-0.408
0.119	-6.828	-0.430
0.145	-6.825	-0.438
0.208	-7.288	-0.513
0.223	-7.290	-0.490
0.223	-7.295	-0.463
0.206	-7.300	-0.441
0.180	-7.303	-0.433
0.153	-7.304	-0.443
0.138	-7.302	-0.465
0.138	-7.297	-0.493
0.155	-7.292	-0.515
0.181	-7.289	-0.522
0.254	-7.753	-0.582
0.269	-7.754	-0.559
0.269	-7.759	-0.531
0.252	-7.763	-0.509
0.225	-7.767	-0.502
0.199	-7.768	-0.512
0.183	-7.766	-0.535
0.184	-7.762	-0.562
0.201	-7.757	-0.584
0.228	-7.754	-0.591
0.295	-8.219	-0.647
0.310	-8.220	-0.623
0.308	-8.223	-0.596
0.290	-8.227	-0.574
0.264	-8.230	-0.568
0.238	-8.231	-0.578
0.223	-8.230	-0.601
0.224	-8.227	-0.629
0.242	-8.224	-0.650
0.269	-8.221	-0.657
0.339	-8.689	-0.673
0.353	-8.690	-0.649
0.351	-8.692	-0.622
0.333	-8.695	-0.601
0.306	-8.697	-0.595
0.280	-8.698	-0.606
0.266	-8.698	-0.629
0.268	-8.696	-0.657
0.286	-8.693	-0.678
0.313	-8.691	-0.684
0.368	-9.158	-0.709
0.383	-9.159	-0.685
0.380	-9.162	-0.657
0.362	-9.164	-0.637
0.335	-9.167	-0.630
0.310	-9.168	-0.641
0.295	-9.167	-0.665
0.297	-9.164	-0.693
0.316	-9.162	-0.713
0.343	-9.159	-0.720
0.400	-9.627	-0.746
0.415	-9.628	-0.722
0.413	-9.630	-0.695
0.394	-9.633	-0.674
0.368	-9.636	-0.668
0.342	-9.637	-0.678
0.327	-9.636	-0.702
0.330	-9.633	-0.730
0.348	-9.630	-0.751
0.375	-9.628	-0.757
		    </DataArray>
         </Points>
         <Cells>
            <DataArray type="Int32" Name="connectivity" NumberOfComponents="1" format="ascii">
 0 10 1 11 2 12 3 13 4 14 5 15 6 16 7 17 8 18 9 19 0 10
 10 20 11 21 12 22 13 23 14 24 15 25 16 26 17 27 18 28 19 29 10 20
 20 30 21 31 22 32 23 33 24 34 25 35 26 36 27 37 28 38 29 39 20 30
 30 40 31 41 32 42 33 43 34 44 35 45 36 46 37 47 38 48 39 49 30 40
 40 50 41 51 42 52 43 53 44 54 45 55 46 56 47 57 48 58 49 59 40 50
 50 60 51 61 52 62 53 63 54 64 55 65 56 66 57 67 58 68 59 69 50 60
 60 70 61 71 62 72 63 73 64 74 65 75 66 76 67 77 68 78 69 79 60 70
 70 80 71 81 72 82 73 83 74 84 75 85 76 86 77 87 78 88 79 89 70 80
 90 100 91 101 92 102 93 103 94 104 95 105 96 106 97 107 98 108 99 109 90 100
 100 110 101 111 102 112 103 113 104 114 105 115 106 116 107 117 108 118 109 119 100 110
 110 120 111 121 112 122 113 123 114 124 115 125 116 126 117 127 118 128 119 129 110 120
 120 130 121 131 122 132 123 133 124 134 125 135 126 136 127 137 128 138 129 139 120 130
 130 140 131 141 132 142 133 143 134 144 135 145 136 146 137 147 138 148 139 149 130 140
 140 150 141 151 142 152 143 153 144 154 145 155 146 156 147 157 148 158 149 159 140 150
 150 160 151 161 152 162 153 163 154 164 155 165 156 166 157 167 158 168 159 169 150 160
 160 170 161 171 162 172 163 173 164 174 165 175 166 176 167 177 168 178 169 179 160 170
 170 180 171 181 172 182 173 183 174 184 175 185 176 186 177 187 178 188 179 189 170 180

            </DataArray>
            <DataArray type="Int32" Name="offsets" NumberOfComponents="1" format="ascii">
 22 44 66 88 110 132 154 176 198 220 242 264 286 308 330 352 374
            </DataArray>
            <DataArray type="UInt8"  Name="types" NumberOfComponents="1" format="ascii">
6 6 6 6 6 6 6 6 6 6 6 6 6 6 6 6 6
            </DataArray>
         </Cells>
         <CellData>
           <DataArray type="Float32" Name="combinedRootClassID" NumberOfComponents="1" format="ascii">
 -2.000e+00 -2.000e+00 -2.000e+00 -2.000e+00 -2.000e+00 -2.000e+00 -2.000e+00 -2.000e+00 -4.000e+00 -4.000e+00 -4.000e+00 -4.000e+00 -4.000e+00 -4.000e+00 -4.000e+00 -4.000e+00 -4.000e+00
           </DataArray>
           <DataArray type="Float32" Name="nitrate/minimalNutrientConcentration" NumberOfComponents="1" format="ascii">
 6.000e+02 6.000e+02 6.000e+02 6.000e+02 6.000e+02 6.000e+02 6.000e+02 6.000e+02 6.000e+02 6.000e+02 6.000e+02 6.000e+02 6.000e+02 6.000e+02 6.000e+02 6.000e+02 6.000e+02
           </DataArray>
           <DataArray type="Float32" Name="nitrate/optimalNutrientConcentration" NumberOfComponents="1" format="ascii">
 1.200e+03 1.200e+03 1.200e+03 1.200e+03 1.200e+03 1.200e+03 1.200e+03 1.200e+03 1.200e+03 1.200e+03 1.200e+03 1.200e+03 1.200e+03 1.200e+03 1.200e+03 1.200e+03 1.200e+03
           </DataArray>
           <DataArray type="Float32" Name="nitrate/radiusDepletionZone" NumberOfComponents="1" format="ascii">
 9.749e-01 1.078e+00 2.113e+00 1.433e+00 1.194e+00 8.388e-01 7.339e-01 5.090e-01 6.906e-01 3.263e+00 1.871e+00 1.403e+00 1.122e+00 7.202e-01 6.173e-01 3.788e-01 3.367e-01
           </DataArray>
           <DataArray type="Float32" Name="nitrate/rootSegmentMinimalNutrientContent" NumberOfComponents="1" format="ascii">
 6.864e+00 3.417e+00 3.981e+00 4.262e+00 4.258e+00 4.256e+00 4.254e+00 4.253e+00 3.458e-01 1.716e-01 1.710e-01 1.705e-01 1.701e-01 1.697e-01 1.695e-01 1.693e-01 1.692e-01
           </DataArray>
           <DataArray type="Float32" Name="nitrate/rootSegmentNutrientUptake" NumberOfComponents="1" format="ascii">
 8.668e-01 3.139e-01 4.941e-01 2.803e-01 2.406e-01 1.928e-01 1.304e-01 5.264e-02 3.732e-01 2.015e-01 1.595e-01 1.422e-01 1.235e-01 1.025e-01 7.854e-02 5.057e-02 1.665e-02
           </DataArray>
           <DataArray type="Float32" Name="nitrate/rootSegmentOptimalNutrientContent" NumberOfComponents="1" format="ascii">
 1.373e+01 6.833e+00 7.963e+00 8.524e+00 8.517e+00 8.512e+00 8.508e+00 8.506e+00 6.917e-01 3.431e-01 3.420e-01 3.410e-01 3.402e-01 3.395e-01 3.390e-01 3.386e-01 3.384e-01
           </DataArray>
           <DataArray type="Float32" Name="parentRootClassID" NumberOfComponents="1" format="ascii">
 -3.000e+00 -3.000e+00 -3.000e+00 -3.000e+00 -3.000e+00 -3.000e+00 -3.000e+00 -3.000e+00 -3.000e+00 -3.000e+00 -3.000e+00 -3.000e+00 -3.000e+00 -3.000e+00 -3.000e+00 -3.000e+00 -3.000e+00
           </DataArray>
           <DataArray type="Float32" Name="plantID" NumberOfComponents="1" format="ascii">
 3.000e+00 3.000e+00 3.000e+00 3.000e+00 3.000e+00 3.000e+00 3.000e+00 3.000e+00 3.000e+00 3.000e+00 3.000e+00 3.000e+00 3.000e+00 3.000e+00 3.000e+00 3.000e+00 3.000e+00
           </DataArray>
           <DataArray type="Float32" Name="plantTypeID" NumberOfComponents="1" format="ascii">
 0.000e+00 0.000e+00 0.000e+00 0.000e+00 0.000e+00 0.000e+00 0.000e+00 0.000e+00 0.000e+00 0.000e+00 0.000e+00 0.000e+00 0.000e+00 0.000e+00 0.000e+00 0.000e+00 0.000e+00
           </DataArray>
           <DataArray type="Float32" Name="rootCircumference" NumberOfComponents="1" format="ascii">
 1.262e+00 1.259e+00 1.259e+00 1.258e+00 1.258e+00 1.257e+00 1.257e+00 1.257e+00 2.859e-01 2.848e-01 2.843e-01 2.839e-01 2.835e-01 2.832e-01 2.830e-01 2.829e-01 2.828e-01
           </DataArray>
           <DataArray type="Float32" Name="rootClassID" NumberOfComponents="1" format="ascii">
 -2.000e+00 -2.000e+00 -2.000e+00 -2.000e+00 -2.000e+00 -2.000e+00 -2.000e+00 -2.000e+00 -4.000e+00 -4.000e+00 -4.000e+00 -4.000e+00 -4.000e+00 -4.000e+00 -4.000e+00 -4.000e+00 -4.000e+00
           </DataArray>
           <DataArray type="Float32" Name="rootDiameter" NumberOfComponents="1" format="ascii">
 4.018e-01 4.009e-01 4.006e-01 4.004e-01 4.003e-01 4.002e-01 4.001e-01 4.000e-01 9.100e-02 9.064e-02 9.049e-02 9.036e-02 9.025e-02 9.016e-02 9.009e-02 9.004e-02 9.001e-02
           </DataArray>
           <DataArray type="Float32" Name="rootLength2Base" NumberOfComponents="1" format="ascii">
 0.000e+00 9.600e-01 1.440e+00 2.000e+00 2.600e+00 3.200e+00 3.800e+00 4.400e+00 0.000e+00 9.428e-01 1.414e+00 1.886e+00 2.357e+00 2.828e+00 3.300e+00 3.771e+00 4.243e+00
           </DataArray>
           <DataArray type="Float32" Name="rootPotentialSecondaryGrowth" NumberOfComponents="1" format="ascii">
 4.018e-01 4.009e-01 4.006e-01 4.004e-01 4.003e-01 4.002e-01 4.001e-01 4.000e-01 9.100e-02 9.064e-02 9.049e-02 9.036e-02 9.025e-02 9.016e-02 9.009e-02 9.004e-02 9.001e-02
           </DataArray>
           <DataArray type="Float32" Name="rootSegmentAge" NumberOfComponents="1" format="ascii">
 2.000e+00 1.400e+00 1.200e+00 1.000e+00 8.000e-01 6.000e-01 4.000e-01 2.000e-01 2.000e+00 1.600e+00 1.400e+00 1.200e+00 1.000e+00 8.000e-01 6.000e-01 4.000e-01 2.000e-01
           </DataArray>
           <DataArray type="Float32" Name="rootSegmentDryWeight" NumberOfComponents="1" format="ascii">
 1.144e-02 5.694e-03 6.636e-03 7.103e-03 7.097e-03 7.093e-03 7.090e-03 7.088e-03 5.764e-04 2.859e-04 2.850e-04 2.842e-04 2.835e-04 2.829e-04 2.825e-04 2.821e-04 2.820e-04
           </DataArray>
           <DataArray type="Float32" Name="rootSegmentLength" NumberOfComponents="1" format="ascii">
 9.600e-01 4.800e-01 5.600e-01 6.000e-01 6.000e-01 6.000e-01 6.000e-01 6.000e-01 9.428e-01 4.714e-01 4.714e-01 4.714e-01 4.714e-01 4.714e-01 4.714e-01 4.714e-01 4.714e-01
           </DataArray>
           <DataArray type="Float32" Name="rootSegmentLengthDuration" NumberOfComponents="1" format="ascii">
 1.599e+00 6.240e-01 6.160e-01 5.400e-01 4.200e-01 3.000e-01 1.800e-01 6.000e-02 1.697e+00 7.071e-01 6.128e-01 5.185e-01 4.243e-01 3.300e-01 2.357e-01 1.414e-01 4.714e-02
           </DataArray>
           <DataArray type="Float32" Name="rootSegmentSurfaceArea" NumberOfComponents="1" format="ascii">
 1.212e+00 6.045e-01 7.048e-01 7.548e-01 7.545e-01 7.543e-01 7.541e-01 7.540e-01 2.695e-01 1.342e-01 1.340e-01 1.338e-01 1.337e-01 1.335e-01 1.334e-01 1.333e-01 1.333e-01
           </DataArray>
           <DataArray type="Float32" Name="rootSegmentVolume" NumberOfComponents="1" format="ascii">
 1.217e-01 6.058e-02 7.059e-02 7.556e-02 7.550e-02 7.546e-02 7.542e-02 7.540e-02 6.132e-03 3.042e-03 3.032e-03 3.023e-03 3.016e-03 3.010e-03 3.005e-03 3.002e-03 3.000e-03
           </DataArray>
           <DataArray type="Float32" Name="spatialRootDensity" NumberOfComponents="1" format="ascii">
 3.376e-01 2.251e-01 0.000e+00 0.000e+00 0.000e+00 0.000e+00 0.000e+00 0.000e+00 3.438e-01 2.292e-01 0.000e+00 0.000e+00 0.000e+00 0.000e+00 0.000e+00 0.000e+00 0.000e+00
           </DataArray>
         </CellData>
      </Piece>
   </UnstructuredGrid>
</VTKFile>
