<?xml version="1.0"?>
<VTKFile type="UnstructuredGrid" version="0.1" byte_order="LittleEndian">
   <UnstructuredGrid>
      <Piece NumberOfPoints="46220" NumberOfCells="3350">
         <Points>
            <DataArray type="Float32" Name="Position" NumberOfComponents="3" format="ascii">
-0.087	-5.026	0.101
-0.086	-5.017	0.102
-0.091	-5.009	0.105
-0.098	-5.007	0.110
-0.106	-5.010	0.115
-0.111	-5.017	0.117
-0.111	-5.027	0.116
-0.107	-5.034	0.113
-0.099	-5.037	0.108
-0.092	-5.034	0.104
0.348	-5.093	0.823
0.347	-5.084	0.825
0.342	-5.077	0.829
0.335	-5.076	0.835
0.329	-5.080	0.840
0.325	-5.088	0.842
0.326	-5.098	0.841
0.331	-5.104	0.836
0.338	-5.106	0.830
0.344	-5.101	0.826
0.969	-5.146	1.441
0.968	-5.137	1.444
0.963	-5.132	1.450
0.957	-5.132	1.457
0.951	-5.138	1.462
0.949	-5.147	1.463
0.950	-5.155	1.460
0.955	-5.160	1.453
0.961	-5.160	1.447
0.967	-5.154	1.442
1.573	-5.328	1.975
1.572	-5.320	1.979
1.568	-5.315	1.986
1.562	-5.315	1.993
1.556	-5.321	1.997
1.552	-5.329	1.997
1.553	-5.338	1.993
1.557	-5.343	1.987
1.564	-5.342	1.980
1.570	-5.337	1.976
1.715	-5.391	2.110
1.714	-5.383	2.114
1.710	-5.378	2.121
1.704	-5.378	2.127
1.697	-5.383	2.132
1.694	-5.392	2.132
1.694	-5.400	2.128
1.698	-5.405	2.121
1.704	-5.405	2.114
1.711	-5.399	2.110
-0.189	-5.078	0.220
-0.186	-5.071	0.224
-0.186	-5.062	0.225
-0.191	-5.054	0.222
-0.197	-5.051	0.216
-0.203	-5.054	0.209
-0.206	-5.061	0.205
-0.205	-5.070	0.204
-0.201	-5.078	0.207
-0.195	-5.081	0.213
-0.818	-5.181	0.821
-0.815	-5.174	0.825
-0.816	-5.165	0.827
-0.820	-5.157	0.824
-0.826	-5.154	0.818
-0.832	-5.157	0.811
-0.835	-5.164	0.806
-0.834	-5.173	0.805
-0.830	-5.181	0.808
-0.823	-5.184	0.814
-1.445	-5.365	1.409
-1.443	-5.358	1.414
-1.443	-5.348	1.415
-1.448	-5.341	1.412
-1.453	-5.338	1.405
-1.459	-5.340	1.398
-1.462	-5.348	1.393
-1.461	-5.357	1.392
-1.457	-5.364	1.395
-1.451	-5.367	1.402
-2.115	-5.411	1.878
-2.113	-5.404	1.883
-2.114	-5.395	1.883
-2.116	-5.387	1.878
-2.120	-5.384	1.871
-2.124	-5.387	1.863
-2.127	-5.395	1.858
-2.126	-5.404	1.858
-2.124	-5.411	1.862
-2.119	-5.414	1.870
-2.276	-5.414	1.936
-2.275	-5.406	1.941
-2.275	-5.397	1.941
-2.277	-5.389	1.936
-2.280	-5.387	1.927
-2.283	-5.390	1.919
-2.285	-5.398	1.914
-2.284	-5.407	1.914
-2.282	-5.414	1.920
-2.279	-5.417	1.928
-0.971	-5.737	1.063
-0.964	-5.738	1.069
-0.962	-5.741	1.078
-0.966	-5.745	1.085
-0.974	-5.748	1.089
-0.983	-5.750	1.087
-0.989	-5.748	1.081
-0.991	-5.745	1.072
-0.987	-5.742	1.065
-0.980	-5.738	1.061
-0.802	-6.539	0.741
-0.796	-6.541	0.747
-0.795	-6.544	0.756
-0.800	-6.547	0.764
-0.808	-6.548	0.767
-0.817	-6.548	0.765
-0.823	-6.546	0.758
-0.824	-6.543	0.749
-0.819	-6.540	0.742
-0.811	-6.539	0.739
-0.883	-7.285	0.547
-0.878	-7.287	0.555
-0.880	-7.288	0.564
-0.886	-7.288	0.571
-0.895	-7.288	0.573
-0.903	-7.286	0.569
-0.908	-7.285	0.561
-0.906	-7.283	0.552
-0.900	-7.283	0.545
-0.891	-7.284	0.543
-0.954	-8.061	0.514
-0.951	-8.062	0.522
-0.953	-8.061	0.532
-0.960	-8.060	0.538
-0.969	-8.059	0.538
-0.977	-8.059	0.534
-0.980	-8.059	0.525
-0.978	-8.059	0.516
-0.971	-8.060	0.510
-0.962	-8.061	0.509
-1.025	-8.724	0.577
-1.021	-8.723	0.585
-1.024	-8.722	0.594
-1.031	-8.721	0.600
-1.040	-8.720	0.601
-1.048	-8.719	0.596
-1.051	-8.720	0.587
-1.049	-8.721	0.578
-1.042	-8.722	0.572
-1.032	-8.723	0.572
-5.586	-17.287	5.798
-5.581	-17.280	5.800
-5.582	-17.271	5.801
-5.588	-17.263	5.800
-5.596	-17.261	5.797
-5.604	-17.264	5.793
-5.609	-17.272	5.791
-5.608	-17.281	5.790
-5.602	-17.288	5.792
-5.594	-17.291	5.794
-5.876	-17.370	6.569
-5.872	-17.362	6.572
-5.873	-17.353	6.572
-5.878	-17.345	6.571
-5.887	-17.343	6.568
-5.895	-17.346	6.565
-5.899	-17.354	6.562
-5.899	-17.363	6.561
-5.893	-17.371	6.563
-5.884	-17.373	6.566
-5.607	-17.432	5.835
-5.602	-17.425	5.838
-5.603	-17.415	5.838
-5.608	-17.408	5.836
-5.616	-17.405	5.832
-5.623	-17.408	5.828
-5.628	-17.416	5.825
-5.628	-17.425	5.824
-5.622	-17.433	5.827
-5.614	-17.435	5.831
-6.011	-17.479	6.610
-6.007	-17.471	6.613
-6.008	-17.462	6.614
-6.013	-17.455	6.612
-6.021	-17.452	6.608
-6.029	-17.455	6.604
-6.033	-17.463	6.601
-6.032	-17.472	6.600
-6.027	-17.479	6.602
-6.019	-17.482	6.606
-6.161	-17.515	6.892
-6.153	-17.515	6.896
-6.143	-17.515	6.894
-6.137	-17.515	6.888
-6.135	-17.515	6.879
-6.140	-17.515	6.870
-6.148	-17.515	6.866
-6.157	-17.515	6.868
-6.164	-17.515	6.874
-6.165	-17.515	6.883
-5.637	-17.553	5.857
-5.629	-17.552	5.862
-5.623	-17.555	5.868
-5.622	-17.563	5.874
-5.626	-17.570	5.877
-5.633	-17.576	5.876
-5.641	-17.577	5.872
-5.647	-17.574	5.866
-5.648	-17.567	5.860
-5.644	-17.559	5.857
-5.249	-17.974	5.259
-5.241	-17.973	5.263
-5.235	-17.977	5.269
-5.233	-17.984	5.275
-5.237	-17.991	5.278
-5.244	-17.997	5.277
-5.253	-17.998	5.273
-5.259	-17.994	5.267
-5.260	-17.987	5.261
-5.256	-17.980	5.258
-5.198	-18.040	5.162
-5.190	-18.039	5.166
-5.184	-18.043	5.172
-5.182	-18.050	5.178
-5.186	-18.058	5.181
-5.193	-18.063	5.181
-5.202	-18.064	5.177
-5.208	-18.060	5.171
-5.209	-18.053	5.166
-5.206	-18.046	5.162
-5.649	-17.705	5.890
-5.650	-17.697	5.895
-5.654	-17.694	5.903
-5.659	-17.697	5.910
-5.663	-17.704	5.914
-5.665	-17.713	5.914
-5.664	-17.720	5.908
-5.660	-17.723	5.901
-5.655	-17.721	5.893
-5.651	-17.714	5.889
-4.975	-17.878	6.285
-4.976	-17.871	6.291
-4.980	-17.868	6.299
-4.984	-17.871	6.306
-4.989	-17.878	6.310
-4.991	-17.887	6.309
-4.990	-17.894	6.303
-4.987	-17.897	6.295
-4.982	-17.894	6.288
-4.978	-17.887	6.284
-4.798	-17.940	6.367
-4.798	-17.933	6.373
-4.801	-17.931	6.381
-4.805	-17.934	6.389
-4.810	-17.941	6.392
-4.812	-17.950	6.391
-4.812	-17.957	6.385
-4.809	-17.959	6.376
-4.804	-17.956	6.369
-4.800	-17.949	6.365
-5.680	-17.842	5.926
-5.672	-17.841	5.931
-5.668	-17.844	5.939
-5.668	-17.851	5.945
-5.672	-17.858	5.948
-5.680	-17.864	5.947
-5.687	-17.865	5.942
-5.692	-17.862	5.935
-5.692	-17.855	5.928
-5.687	-17.848	5.925
-5.241	-18.336	5.425
-5.234	-18.335	5.430
-5.229	-18.338	5.437
-5.229	-18.345	5.444
-5.233	-18.352	5.447
-5.240	-18.358	5.445
-5.247	-18.360	5.440
-5.252	-18.357	5.432
-5.253	-18.350	5.426
-5.248	-18.342	5.423
-5.204	-18.366	5.385
-5.197	-18.364	5.391
-5.192	-18.368	5.398
-5.191	-18.374	5.404
-5.195	-18.383	5.407
-5.202	-18.389	5.405
-5.209	-18.391	5.399
-5.214	-18.387	5.392
-5.215	-18.380	5.386
-5.211	-18.372	5.383
-5.705	-17.985	5.963
-5.697	-17.984	5.967
-5.691	-17.987	5.973
-5.689	-17.995	5.978
-5.693	-18.003	5.981
-5.700	-18.009	5.980
-5.708	-18.010	5.976
-5.714	-18.007	5.970
-5.716	-17.999	5.965
-5.712	-17.991	5.962
-5.352	-18.320	5.403
-5.344	-18.319	5.407
-5.338	-18.322	5.413
-5.336	-18.330	5.419
-5.339	-18.338	5.422
-5.346	-18.344	5.421
-5.354	-18.345	5.416
-5.361	-18.342	5.410
-5.362	-18.335	5.405
-5.359	-18.326	5.402
-5.728	-18.129	5.998
-5.721	-18.127	6.002
-5.714	-18.131	6.008
-5.712	-18.138	6.014
-5.715	-18.147	6.016
-5.722	-18.153	6.015
-5.729	-18.155	6.010
-5.736	-18.152	6.004
-5.738	-18.144	5.999
-5.735	-18.136	5.997
-5.301	-18.446	5.384
-5.293	-18.444	5.389
-5.287	-18.447	5.395
-5.285	-18.454	5.400
-5.287	-18.463	5.403
-5.294	-18.469	5.401
-5.302	-18.471	5.397
-5.308	-18.468	5.391
-5.310	-18.460	5.386
-5.307	-18.452	5.383
-5.739	-18.297	6.045
-5.736	-18.290	6.049
-5.736	-18.281	6.050
-5.741	-18.273	6.048
-5.749	-18.270	6.043
-5.756	-18.273	6.037
-5.760	-18.281	6.033
-5.759	-18.290	6.032
-5.754	-18.297	6.035
-5.746	-18.300	6.040
-6.168	-18.396	6.637
-6.168	-18.387	6.641
-6.168	-18.378	6.640
-6.168	-18.372	6.633
-6.168	-18.370	6.624
-6.168	-18.374	6.616
-6.168	-18.383	6.611
-6.168	-18.392	6.613
-6.168	-18.398	6.619
-6.168	-18.400	6.629
-5.772	-18.418	6.066
-5.764	-18.417	6.070
-5.758	-18.420	6.077
-5.757	-18.428	6.082
-5.761	-18.435	6.085
-5.768	-18.441	6.085
-5.776	-18.442	6.080
-5.782	-18.439	6.074
-5.783	-18.432	6.068
-5.779	-18.424	6.065
-5.394	-18.822	5.492
-5.386	-18.820	5.496
-5.380	-18.824	5.503
-5.379	-18.831	5.509
-5.383	-18.839	5.512
-5.390	-18.845	5.511
-5.398	-18.846	5.507
-5.404	-18.842	5.500
-5.405	-18.835	5.494
-5.401	-18.827	5.491
-5.799	-18.580	6.121
-5.801	-18.571	6.121
-5.799	-18.563	6.116
-5.795	-18.560	6.108
-5.790	-18.562	6.101
-5.786	-18.568	6.096
-5.784	-18.578	6.097
-5.785	-18.585	6.101
-5.789	-18.589	6.109
-5.794	-18.587	6.116
-6.464	-18.725	5.698
-6.464	-18.716	5.696
-6.461	-18.709	5.691
-6.455	-18.707	5.683
-6.450	-18.711	5.677
-6.446	-18.719	5.674
-6.446	-18.728	5.676
-6.449	-18.735	5.681
-6.454	-18.737	5.689
-6.460	-18.733	5.695
-6.515	-18.728	5.648
-6.513	-18.719	5.646
-6.508	-18.714	5.640
-6.502	-18.714	5.634
-6.496	-18.719	5.628
-6.494	-18.728	5.626
-6.496	-18.737	5.628
-6.502	-18.742	5.634
-6.508	-18.742	5.640
-6.513	-18.737	5.646
-1.049	-5.838	1.151
-1.049	-5.829	1.152
-1.053	-5.822	1.156
-1.061	-5.820	1.161
-1.068	-5.823	1.165
-1.073	-5.831	1.168
-1.073	-5.840	1.167
-1.068	-5.847	1.163
-1.061	-5.849	1.158
-1.053	-5.846	1.153
-0.600	-5.912	1.832
-0.599	-5.903	1.834
-0.603	-5.896	1.837
-0.611	-5.893	1.842
-0.619	-5.896	1.846
-0.624	-5.903	1.847
-0.625	-5.912	1.846
-0.621	-5.920	1.843
-0.613	-5.922	1.838
-0.605	-5.920	1.834
-0.253	-6.103	2.598
-0.252	-6.094	2.599
-0.256	-6.086	2.603
-0.263	-6.083	2.607
-0.271	-6.085	2.610
-0.277	-6.092	2.612
-0.279	-6.101	2.610
-0.275	-6.109	2.607
-0.267	-6.112	2.603
-0.259	-6.110	2.599
0.136	-6.214	3.379
0.140	-6.214	3.387
0.138	-6.214	3.396
0.132	-6.214	3.403
0.123	-6.214	3.404
0.114	-6.214	3.400
0.110	-6.214	3.392
0.112	-6.214	3.383
0.118	-6.214	3.376
0.127	-6.214	3.375
-5.805	-18.716	6.130
-5.807	-18.708	6.134
-5.811	-18.704	6.141
-5.817	-18.706	6.149
-5.822	-18.712	6.153
-5.824	-18.721	6.153
-5.822	-18.729	6.149
-5.818	-18.733	6.142
-5.812	-18.732	6.135
-5.807	-18.725	6.130
-5.301	-18.818	6.503
-5.302	-18.810	6.508
-5.307	-18.806	6.515
-5.313	-18.807	6.522
-5.317	-18.814	6.526
-5.319	-18.823	6.527
-5.318	-18.831	6.522
-5.313	-18.835	6.515
-5.308	-18.833	6.508
-5.303	-18.827	6.504
-5.843	-18.869	6.187
-5.845	-18.860	6.187
-5.844	-18.852	6.182
-5.840	-18.849	6.175
-5.835	-18.851	6.167
-5.830	-18.858	6.163
-5.828	-18.867	6.163
-5.830	-18.874	6.168
-5.834	-18.878	6.175
-5.839	-18.876	6.183
-6.528	-19.010	5.759
-6.530	-19.001	5.759
-6.528	-18.993	5.754
[...]
         <CellData>
           <DataArray type="Float32" Name="combinedRootClassID" NumberOfComponents="1" format="ascii">
 -1.300e+01 -1.300e+01 -1.300e+01 -1.300e+01 -1.300e+01 -1.300e+01 -1.300e+01 -1.300e+01 -1.300e+01 -1.300e+01 -1.300e+01 -1.300e+01 -1.300e+01 -1.300e+01 -1.300e+01 -1.300e+01 -1.300e+01 -1.300e+01 -1.300e+01 -1.300e+01 -1.300e+01 -1.300e+01 -1.300e+01 -1.300e+01 -1.300e+01 -1.300e+01 -1.300e+01 -1.300e+01 -1.300e+01 -1.300e+01 -1.300e+01 -1.300e+01 -1.300e+01 -1.300e+01 -1.300e+01 -1.300e+01 -1.300e+01 -1.300e+01 -1.300e+01 -1.300e+01 -1.300e+01 -1.300e+01 -1.300e+01 -1.300e+01 -1.300e+01 -1.300e+01 -1.300e+01 -1.300e+01 -1.300e+01 -1.300e+01 -1.300e+01 -1.300e+01 -1.300e+01 -1.300e+01 -1.300e+01 -1.300e+01 -1.300e+01 -1.300e+01 -1.300e+01 -1.300e+01 -1.300e+01 -1.300e+01 -1.300e+01 -1.300e+01 -1.300e+01 -1.300e+01 -1.300e+01 -1.300e+01 -1.300e+01 -1.300e+01 -1.300e+01 -1.300e+01 -1.300e+01 -1.300e+01 -1.300e+01 -1.300e+01 -1.300e+01 -1.300e+01 -1.300e+01 -1.300e+01 -1.300e+01 -1.300e+01 -1.300e+01 -1.300e+01 -1.300e+01 -1.300e+01 -1.300e+01 -1.300e+01 -1.300e+01 -1.300e+01 -1.300e+01 -1.300e+01 -1.300e+01 -1.300e+01 -1.300e+01 -1.300e+01 -1.300e+01 -1.300e+01 -1.300e+01 -1.300e+01 -1.300e+01 -1.300e+01 -1.300e+01 -1.300e+01 -1.300e+01 -1.300e+01 -1.300e+01 -1.300e+01 -1.300e+01 -1.300e+01 -1.300e+01 -1.300e+01 -1.300e+01 -1.300e+01 -1.300e+01 -1.300e+01 -1.300e+01 -1.300e+01 -1.300e+01 -1.300e+01 -1.300e+01 -1.300e+01 -1.300e+01 -1.300e+01 -1.300e+01 -1.300e+01 -1.300e+01 -1.300e+01 -1.300e+01 -1.300e+01 -1.300e+01 -1.300e+01 -1.300e+01 -1.300e+01 -1.300e+01 -1.300e+01 -1.300e+01 -1.300e+01 -1.300e+01 -1.300e+01 -1.300e+01 -1.300e+01 -1.300e+01 -1.300e+01 -1.300e+01 -1.300e+01 -1.300e+01 -1.300e+01 -1.300e+01 -1.300e+01 -1.300e+01 -1.300e+01 -1.300e+01 -1.300e+01 -1.300e+01 -1.300e+01 -1.300e+01 -1.300e+01 -1.300e+01 -1.300e+01 -1.300e+01 -1.300e+01 -1.300e+01 -1.300e+01 -1.300e+01 -1.300e+01 -1.300e+01 -1.300e+01 -1.300e+01 -1.300e+01 -1.300e+01 -1.300e+01 -1.300e+01 -1.300e+01 -1.300e+01 -1.300e+01 -1.300e+01 -1.300e+01 -1.300e+01 -1.300e+01 -1.300e+01 -1.300e+01 -1.300e+01 -1.300e+01 -1.300e+01 -1.300e+01 -1.300e+01 -1.300e+01 -1.300e+01 -1.300e+01 -1.300e+01 -1.300e+01 -1.300e+01 -1.300e+01 -1.300e+01 -1.300e+01 -1.300e+01 -1.300e+01 -1.300e+01 -1.300e+01 -1.300e+01 -1.300e+01 -1.300e+01 -1.300e+01 -1.300e+01 -1.300e+01 -1.300e+01 -1.300e+01 -1.300e+01 -1.300e+01 -1.300e+01 -1.300e+01 -1.300e+01 -1.300e+01 -1.300e+01 -1.300e+01 -1.300e+01 -1.300e+01 -1.300e+01 -1.300e+01 -1.300e+01 -1.300e+01 -1.300e+01 -1.300e+01 -1.300e+01 -1.300e+01 -1.300e+01 -1.300e+01 -1.300e+01 -1.300e+01 -1.300e+01 -1.300e+01 -1.300e+01 -1.300e+01 -1.300e+01 -1.300e+01 -1.300e+01 -1.300e+01 -1.300e+01 -1.300e+01 -1.300e+01 -1.300e+01 -1.300e+01 -1.300e+01 -1.300e+01 -1.300e+01 -1.300e+01 -1.300e+01 -1.300e+01 -1.300e+01 -1.300e+01 -1.300e+01 -1.300e+01 -1.300e+01 -1.300e+01 -1.300e+01 -1.300e+01 -1.300e+01 -1.300e+01 -1.300e+01 -1.300e+01 -1.300e+01 -1.300e+01 -1.300e+01 -1.300e+01 -1.300e+01 -1.300e+01 -1.300e+01 -1.300e+01 -1.300e+01 -1.300e+01 -1.300e+01 -1.300e+01 -1.300e+01 -1.300e+01 -1.300e+01 -1.300e+01 -1.300e+01 -1.300e+01 -1.300e+01 -1.300e+01 -1.300e+01 -1.300e+01 -1.300e+01 -1.300e+01 -1.300e+01 -1.300e+01 -1.300e+01 -1.300e+01 -1.300e+01 -1.300e+01 -1.300e+01 -1.300e+01 -1.300e+01 -1.300e+01 -1.300e+01 -1.300e+01 -1.300e+01 -1.300e+01 -1.300e+01 -1.300e+01 -1.300e+01 -1.300e+01 -1.300e+01 -1.300e+01 -1.300e+01 -1.300e+01 -1.300e+01 -1.300e+01 -1.300e+01 -1.300e+01 -1.300e+01 -1.300e+01 -1.300e+01 -1.300e+01 -1.300e+01 -1.300e+01 -1.300e+01 -1.300e+01 -1.300e+01 -1.300e+01 -1.300e+01 -1.300e+01 -1.300e+01 -1.300e+01 -1.300e+01 -1.300e+01 -1.300e+01 -1.300e+01 -1.300e+01 -1.300e+01 -1.300e+01 -1.300e+01 -1.300e+01 -1.300e+01 -1.300e+01 -1.300e+01 -1.300e+01 -1.300e+01 -1.300e+01 -1.300e+01 -1.300e+01 -1.300e+01 -1.300e+01 -1.300e+01 -1.300e+01 -1.300e+01 -5.000e+00 -5.000e+00 -5.000e+00 -5.000e+00 -5.000e+00 -5.000e+00 -5.000e+00 -5.000e+00 -5.000e+00 -5.000e+00 -5.000e+00 -5.000e+00 -5.000e+00 -5.000e+00 -5.000e+00 -5.000e+00 -5.000e+00 -5.000e+00 -5.000e+00 -5.000e+00 -5.000e+00 -5.000e+00 -5.000e+00 -5.000e+00 -5.000e+00 -5.000e+00 -5.000e+00 -5.000e+00 -5.000e+00 -5.000e+00 -5.000e+00 -5.000e+00 -5.000e+00 -5.000e+00 -5.000e+00 -5.000e+00 -5.000e+00 -5.000e+00 -1.300e+01 -1.300e+01 -1.300e+01 -1.300e+01 -1.300e+01 -1.300e+01 -1.300e+01 -1.300e+01 -1.300e+01 -1.300e+01 -1.300e+01 -1.300e+01 -1.300e+01 -1.300e+01 -1.300e+01 -1.300e+01 -1.300e+01 -1.300e+01 -1.300e+01 -1.300e+01 -1.300e+01 -1.300e+01 -1.300e+01 -1.300e+01 -1.300e+01 -1.300e+01 -1.300e+01 -1.300e+01 -1.300e+01 -1.300e+01 -1.300e+01 -1.300e+01 -1.300e+01 -1.300e+01 -1.300e+01 -1.300e+01 -1.300e+01 -1.300e+01 -1.300e+01 -1.300e+01 -1.300e+01 -1.300e+01 -1.300e+01 -1.300e+01 -1.300e+01 -1.300e+01 -1.300e+01 -1.300e+01 -1.300e+01 -1.300e+01 -1.300e+01 -1.300e+01 -1.300e+01 -1.300e+01 -1.300e+01 -1.300e+01 -1.300e+01 -1.300e+01 -1.300e+01 -1.300e+01 -1.300e+01 -1.300e+01 -1.300e+01 -1.300e+01 -1.300e+01 -1.300e+01 -1.300e+01 -1.300e+01 -1.300e+01 -1.300e+01 -1.300e+01 -1.300e+01 -1.300e+01 -1.300e+01 -1.300e+01 -1.300e+01 -1.300e+01 -1.300e+01 -1.300e+01 -1.300e+01 -1.300e+01 -1.300e+01 -1.300e+01 -1.300e+01 -1.300e+01 -1.300e+01 -1.300e+01 -1.300e+01 -1.300e+01 -1.300e+01 -1.300e+01 -1.300e+01 -1.300e+01 -1.300e+01 -1.300e+01 -1.300e+01 -1.300e+01 -1.300e+01 -1.300e+01 -1.300e+01 -1.300e+01 -1.300e+01 -1.300e+01 -1.300e+01 -1.300e+01 -1.300e+01 -1.300e+01 -1.300e+01 -1.300e+01 -1.300e+01 -1.300e+01 -1.300e+01 -1.300e+01 -1.300e+01 -1.300e+01 -1.300e+01 -1.300e+01 -1.300e+01 -1.300e+01 -1.300e+01 -1.300e+01 -1.300e+01 -1.300e+01 -1.300e+01 -1.300e+01 -1.300e+01 -1.300e+01 -1.300e+01 -1.300e+01 -1.300e+01 -1.300e+01 -1.300e+01 -1.300e+01 -1.300e+01 -1.300e+01 -1.300e+01 -1.300e+01 -1.300e+01 -1.300e+01 -1.300e+01 -1.300e+01 -1.300e+01 -1.300e+01 -1.300e+01 -1.300e+01 -1.300e+01 -1.300e+01 -1.300e+01 -1.300e+01 -1.300e+01 -1.300e+01 -1.300e+01 -1.300e+01 -1.300e+01 -1.300e+01 -1.300e+01 -1.300e+01 -1.300e+01 -1.300e+01 -1.300e+01 -1.300e+01 -1.300e+01 -1.300e+01 -1.300e+01 -1.300e+01 -1.300e+01 -1.300e+01 -1.300e+01 -1.300e+01 -1.300e+01 -1.300e+01 -1.300e+01 -1.300e+01 -1.300e+01 -1.300e+01 -1.300e+01 -1.300e+01 -1.300e+01 -1.300e+01 -1.300e+01 -1.300e+01 -1.300e+01 -1.300e+01 -1.300e+01 -1.300e+01 -1.300e+01 -1.300e+01 -1.300e+01 -1.300e+01 -1.300e+01 -1.300e+01 -1.300e+01 -1.300e+01 -1.300e+01 -1.300e+01 -1.300e+01 -1.300e+01 -1.300e+01 -1.300e+01 -1.300e+01 -1.300e+01 -1.300e+01 -1.300e+01 -1.300e+01 -1.300e+01 -1.300e+01 -1.300e+01 -1.300e+01 -1.300e+01 -1.300e+01 -1.300e+01 -1.300e+01 -1.300e+01 -1.300e+01 -1.300e+01 -1.300e+01 -1.300e+01 -1.300e+01 -1.300e+01 -1.300e+01 -1.300e+01 -1.300e+01 -1.300e+01 -1.300e+01 -1.300e+01 -1.300e+01 -1.300e+01 -1.300e+01 -1.300e+01 -1.300e+01 -1.300e+01 -1.300e+01 -1.300e+01 -1.300e+01 -1.300e+01 -1.300e+01 -1.300e+01 -1.300e+01 -1.300e+01 -1.300e+01 -1.300e+01 -1.300e+01 -1.300e+01 -1.300e+01 -1.300e+01 -1.300e+01 -1.300e+01 -1.300e+01 -1.300e+01 -1.300e+01 -1.300e+01 -1.300e+01 -1.300e+01 -1.300e+01 -1.300e+01 -1.300e+01 -1.300e+01 -1.300e+01 -1.300e+01 -1.300e+01 -1.300e+01 -1.300e+01 -1.300e+01 -1.300e+01 -1.300e+01 -1.300e+01 -1.300e+01 -1.300e+01 -1.300e+01 -1.300e+01 -1.300e+01 -1.300e+01 -1.300e+01 -1.300e+01 -1.300e+01 -1.300e+01 -1.300e+01 -1.300e+01 -1.300e+01 -1.300e+01 -1.300e+01 -1.300e+01 -1.300e+01 -1.300e+01 -1.300e+01 -1.300e+01 -1.300e+01 -1.300e+01 -1.300e+01 -1.300e+01 -1.300e+01 -1.300e+01 -1.300e+01 -1.300e+01 -1.300e+01 -1.300e+01 -1.300e+01 -1.300e+01 -1.300e+01 -1.300e+01 -1.300e+01 -1.300e+01 -1.300e+01 -1.300e+01 -1.300e+01 -1.300e+01 -1.300e+01 -1.300e+01 -1.300e+01 -1.300e+01 -1.300e+01 -1.300e+01 -1.300e+01 -1.300e+01 -1.300e+01 -1.300e+01 -1.300e+01 -1.300e+01 -1.300e+01 -1.300e+01 -1.300e+01 -1.300e+01 -1.300e+01 -1.300e+01 -1.300e+01 -1.300e+01 -1.300e+01 -1.300e+01 -1.300e+01 -1.300e+01 -1.300e+01 -1.300e+01 -1.300e+01 -1.300e+01 -1.300e+01 -1.300e+01 -1.300e+01 -1.300e+01 -1.300e+01 -1.300e+01 -1.300e+01 -1.300e+01 -1.300e+01 -1.300e+01 -1.300e+01 -1.300e+01 -1.300e+01 -1.300e+01 -1.300e+01 -1.300e+01 -1.300e+01 -1.300e+01 -1.300e+01 -1.300e+01 -1.300e+01 -5.000e+00 -5.000e+00 -5.000e+00 -5.000e+00 -5.000e+00 -5.000e+00 -5.000e+00 -5.000e+00 -5.000e+00 -5.000e+00 -5.000e+00 -5.000e+00 -5.000e+00 -5.000e+00 -5.000e+00 -5.000e+00 -5.000e+00 -5.000e+00 -5.000e+00 -5.000e+00 -5.000e+00 -5.000e+00 -5.000e+00 -5.000e+00 -5.000e+00 -5.000e+00 -5.000e+00 -5.000e+00 -5.000e+00 -5.000e+00 -5.000e+00 -5.000e+00 -5.000e+00 -5.000e+00 -5.000e+00 -5.000e+00 -5.000e+00 -5.000e+00 -1.300e+01 -1.300e+01 -1.300e+01 -1.300e+01 -1.300e+01 -1.300e+01 -1.300e+01 -1.300e+01 -1.300e+01 -1.300e+01 -1.300e+01 -1.300e+01 -1.300e+01 -1.300e+01 -1.300e+01 -1.300e+01 -1.300e+01 -1.300e+01 -1.300e+01 -1.300e+01 -1.300e+01 -1.300e+01 -1.300e+01 -1.300e+01 -1.300e+01 -1.300e+01 -1.300e+01 -1.300e+01 -1.300e+01 -1.300e+01 -1.300e+01 -1.300e+01 -1.300e+01 -1.300e+01 -1.300e+01 -1.300e+01 -1.300e+01 -1.300e+01 -1.300e+01 -1.300e+01 -1.300e+01 -1.300e+01 -1.300e+01 -1.300e+01 -1.300e+01 -1.300e+01 -1.300e+01 -1.300e+01 -1.300e+01 -1.300e+01 -1.300e+01 -1.300e+01 -1.300e+01 -1.300e+01 -1.300e+01 -1.300e+01 -1.300e+01 -1.300e+01 -1.300e+01 -1.300e+01 -1.300e+01 -1.300e+01 -1.300e+01 -1.300e+01 -1.300e+01 -1.300e+01 -1.300e+01 -1.300e+01 -1.300e+01 -1.300e+01 -1.300e+01 -1.300e+01 -1.300e+01 -1.300e+01 -1.300e+01 -1.300e+01 -1.300e+01 -1.300e+01 -1.300e+01 -1.300e+01 -1.300e+01 -1.300e+01 -1.300e+01 -1.300e+01 -1.300e+01 -1.300e+01 -1.300e+01 -1.300e+01 -1.300e+01 -1.300e+01 -1.300e+01 -1.300e+01 -1.300e+01 -1.300e+01 -1.300e+01 -1.300e+01 -1.300e+01 -1.300e+01 -1.300e+01 -1.300e+01 -1.300e+01 -1.300e+01 -1.300e+01 -1.300e+01 -1.300e+01 -1.300e+01 -1.300e+01 -1.300e+01 -1.300e+01 -1.300e+01 -1.300e+01 -1.300e+01 -1.300e+01 -1.300e+01 -1.300e+01 -1.300e+01 -1.300e+01 -1.300e+01 -1.300e+01 -1.300e+01 -1.300e+01 -1.300e+01 -1.300e+01 -1.300e+01 -1.300e+01 -1.300e+01 -1.300e+01 -1.300e+01 -1.300e+01 -1.300e+01 -1.300e+01 -1.300e+01 -1.300e+01 -1.300e+01 -1.300e+01 -1.300e+01 -1.300e+01 -1.300e+01 -1.300e+01 -1.300e+01 -1.300e+01 -1.300e+01 -1.300e+01 -1.300e+01 -1.300e+01 -1.300e+01 -1.300e+01 -1.300e+01 -1.300e+01 -1.300e+01 -1.300e+01 -1.300e+01 -1.300e+01 -1.300e+01 -1.300e+01 -1.300e+01 -1.300e+01 -1.300e+01 -1.300e+01 -1.300e+01 -1.300e+01 -1.300e+01 -1.300e+01 -1.300e+01 -1.300e+01 -1.300e+01 -1.300e+01 -1.300e+01 -1.300e+01 -1.300e+01 -1.300e+01 -1.300e+01 -1.300e+01 -1.300e+01 -1.300e+01 -1.300e+01 -1.300e+01 -1.300e+01 -1.300e+01 -1.300e+01 -1.300e+01 -1.300e+01 -1.300e+01 -1.300e+01 -1.300e+01 -1.300e+01 -1.300e+01 -1.300e+01 -1.300e+01 -1.300e+01 -1.300e+01 -1.300e+01 -1.300e+01 -1.300e+01 -1.300e+01 -1.300e+01 -1.300e+01 -1.300e+01 -1.300e+01 -1.300e+01 -1.300e+01 -1.300e+01 -1.300e+01 -1.300e+01 -1.300e+01 -1.300e+01 -1.300e+01 -1.300e+01 -1.300e+01 -1.300e+01 -1.300e+01 -1.300e+01 -1.300e+01 -1.300e+01 -1.300e+01 -1.300e+01 -1.300e+01 -1.300e+01 -1.300e+01 -1.300e+01 -1.300e+01 -1.300e+01 -1.300e+01 -1.300e+01 -1.300e+01 -1.300e+01 -1.300e+01 -1.300e+01 -1.300e+01 -1.300e+01 -1.300e+01 -1.300e+01 -1.300e+01 -1.300e+01 -1.300e+01 -1.300e+01 -1.300e+01 -1.300e+01 -1.300e+01 -1.300e+01 -1.300e+01 -1.300e+01 -1.300e+01 -1.300e+01 -1.300e+01 -1.300e+01 -1.300e+01 -1.300e+01 -1.300e+01 -1.300e+01 -1.300e+01 -1.300e+01 -1.300e+01 -1.300e+01 -1.300e+01 -1.300e+01 -1.300e+01 -1.300e+01 -1.300e+01 -1.300e+01 -1.300e+01 -1.300e+01 -1.300e+01 -1.300e+01 -1.300e+01 -1.300e+01 -1.300e+01 -1.300e+01 -1.300e+01 -1.300e+01 -1.300e+01 -1.300e+01 -1.300e+01 -1.300e+01 -1.300e+01 -1.300e+01 -1.300e+01 -1.300e+01 -1.300e+01 -1.300e+01 -1.300e+01 -1.300e+01 -1.300e+01 -1.300e+01 -1.300e+01 -1.300e+01 -1.300e+01 -1.300e+01 -1.300e+01 -1.300e+01 -1.300e+01 -1.300e+01 -1.300e+01 -1.300e+01 -1.300e+01 -1.300e+01 -1.300e+01 -1.300e+01 -1.300e+01 -1.300e+01 -1.300e+01 -1.300e+01 -1.300e+01 -1.300e+01 -1.300e+01 -1.300e+01 -1.300e+01 -1.300e+01 -1.300e+01 -1.300e+01 -1.300e+01 -1.300e+01 -1.300e+01 -1.300e+01 -1.300e+01 -1.300e+01 -1.300e+01 -1.300e+01 -1.300e+01 -1.300e+01 -1.300e+01 -1.300e+01 -1.300e+01 -1.300e+01 -1.300e+01 -1.300e+01 -1.300e+01 -1.300e+01 -1.300e+01 -1.300e+01 -1.300e+01 -1.300e+01 -1.300e+01 -1.300e+01 -1.300e+01 -1.300e+01 -1.300e+01 -1.300e+01 -1.300e+01 -1.300e+01 -1.300e+01 -1.300e+01 -1.300e+01 -1.300e+01 -1.300e+01 -5.000e+00 -5.000e+00 -5.000e+00 -5.000e+00 -5.000e+00 -5.000e+00 -5.000e+00 -5.000e+00 -5.000e+00 -5.000e+00 -5.000e+00 -5.000e+00 -5.000e+00 -5.000e+00 -5.000e+00 -5.000e+00 -5.000e+00 -5.000e+00 -5.000e+00 -5.000e+00 -5.000e+00 -5.000e+00 -5.000e+00 -5.000e+00 -5.000e+00 -5.000e+00 -5.000e+00 -5.000e+00 -5.000e+00 -5.000e+00 -5.000e+00 -5.000e+00 -5.000e+00 -5.000e+00 -5.000e+00 -5.000e+00 -5.000e+00 -5.000e+00 -1.300e+01 -1.300e+01 -1.300e+01 -1.300e+01 -1.300e+01 -1.300e+01 -1.300e+01 -1.300e+01 -1.300e+01 -1.300e+01 -1.300e+01 -1.300e+01 -1.300e+01 -1.300e+01 -1.300e+01 -1.300e+01 -1.300e+01 -1.300e+01 -1.300e+01 -1.300e+01 -1.300e+01 -1.300e+01 -1.300e+01 -1.300e+01 -1.300e+01 -1.300e+01 -1.300e+01 -1.300e+01 -1.300e+01 -1.300e+01 -1.300e+01 -1.300e+01 -1.300e+01 -1.300e+01 -1.300e+01 -1.300e+01 -1.300e+01 -1.300e+01 -1.300e+01 -1.300e+01 -1.300e+01 -1.300e+01 -1.300e+01 -1.300e+01 -1.300e+01 -1.300e+01 -1.300e+01 -1.300e+01 -1.300e+01 -1.300e+01 -1.300e+01 -1.300e+01 -1.300e+01 -1.300e+01 -1.300e+01 -1.300e+01 -1.300e+01 -1.300e+01 -1.300e+01 -1.300e+01 -1.300e+01 -1.300e+01 -1.300e+01 -1.300e+01 -1.300e+01 -1.300e+01 -1.300e+01 -1.300e+01 -1.300e+01 -1.300e+01 -1.300e+01 -1.300e+01 -1.300e+01 -1.300e+01 -1.300e+01 -1.300e+01 -1.300e+01 -1.300e+01 -1.300e+01 -1.300e+01 -1.300e+01 -1.300e+01 -1.300e+01 -1.300e+01 -1.300e+01 -1.300e+01 -1.300e+01 -1.300e+01 -1.300e+01 -1.300e+01 -1.300e+01 -1.300e+01 -1.300e+01 -1.300e+01 -1.300e+01 -1.300e+01 -1.300e+01 -1.300e+01 -1.300e+01 -1.300e+01 -1.300e+01 -1.300e+01 -1.300e+01 -1.300e+01 -1.300e+01 -1.300e+01 -1.300e+01 -1.300e+01 -1.300e+01 -1.300e+01 -1.300e+01 -1.300e+01 -1.300e+01 -1.300e+01 -1.300e+01 -1.300e+01 -1.300e+01 -1.300e+01 -1.300e+01 -1.300e+01 -1.300e+01 -1.300e+01 -1.300e+01 -1.300e+01 -1.300e+01 -1.300e+01 -1.300e+01 -1.300e+01 -1.300e+01 -1.300e+01 -1.300e+01 -1.300e+01 -1.300e+01 -1.300e+01 -1.300e+01 -1.300e+01 -1.300e+01 -1.300e+01 -1.300e+01 -1.300e+01 -1.300e+01 -1.300e+01 -1.300e+01 -1.300e+01 -1.300e+01 -1.300e+01 -1.300e+01 -1.300e+01 -1.300e+01 -1.300e+01 -1.300e+01 -1.300e+01 -1.300e+01 -1.300e+01 -1.300e+01 -1.300e+01 -1.300e+01 -1.300e+01 -1.300e+01 -1.300e+01 -1.300e+01 -1.300e+01 -1.300e+01 -1.300e+01 -1.300e+01 -1.300e+01 -1.300e+01 -1.300e+01 -1.300e+01 -1.300e+01 -1.300e+01 -1.300e+01 -1.300e+01 -1.300e+01 -1.300e+01 -1.300e+01 -1.300e+01 -1.300e+01 -1.300e+01 -1.300e+01 -1.300e+01 -1.300e+01 -1.300e+01 -1.300e+01 -1.300e+01 -1.300e+01 -1.300e+01 -1.300e+01 -1.300e+01 -1.300e+01 -1.300e+01 -1.300e+01 -1.300e+01 -1.300e+01 -1.300e+01 -1.300e+01 -1.300e+01 -1.300e+01 -1.300e+01 -1.300e+01 -1.300e+01 -1.300e+01 -1.300e+01 -1.300e+01 -1.300e+01 -1.300e+01 -1.300e+01 -1.300e+01 -1.300e+01 -1.300e+01 -1.300e+01 -1.300e+01 -1.300e+01 -1.300e+01 -1.300e+01 -1.300e+01 -1.300e+01 -1.300e+01 -1.300e+01 -1.300e+01 -1.300e+01 -1.300e+01 -1.300e+01 -1.300e+01 -1.300e+01 -1.300e+01 -1.300e+01 -1.300e+01 -1.300e+01 -1.300e+01 -1.300e+01 -1.300e+01 -1.300e+01 -1.300e+01 -1.300e+01 -1.300e+01 -1.300e+01 -1.300e+01 -1.300e+01 -1.300e+01 -1.300e+01 -1.300e+01 -1.300e+01 -1.300e+01 -1.300e+01 -1.300e+01 -1.300e+01 -1.300e+01 -1.300e+01 -1.300e+01 -1.300e+01 -1.300e+01 -1.300e+01 -1.300e+01 -1.300e+01 -1.300e+01 -1.300e+01 -1.300e+01 -1.300e+01 -1.300e+01 -1.300e+01 -1.300e+01 -1.300e+01 -1.300e+01 -1.300e+01 -1.300e+01 -1.300e+01 -1.300e+01 -1.300e+01 -1.300e+01 -1.300e+01 -1.300e+01 -1.300e+01 -1.300e+01 -1.300e+01 -1.300e+01 -1.300e+01 -1.300e+01 -1.300e+01 -1.300e+01 -1.300e+01 -1.300e+01 -1.300e+01 -1.300e+01 -1.300e+01 -1.300e+01 -1.300e+01 -1.300e+01 -1.300e+01 -1.300e+01 -1.300e+01 -1.300e+01 -1.300e+01 -1.300e+01 -1.300e+01 -1.300e+01 -1.300e+01 -1.300e+01 -1.300e+01 -1.300e+01 -1.300e+01 -1.300e+01 -1.300e+01 -1.300e+01 -1.300e+01 -1.300e+01 -1.300e+01 -1.300e+01 -1.300e+01 -1.300e+01 -1.300e+01 -1.300e+01 -1.300e+01 -1.300e+01 -1.300e+01 -1.300e+01 -1.300e+01 -1.300e+01 -1.300e+01 -1.300e+01 -1.300e+01 -1.300e+01 -1.300e+01 -1.300e+01 -1.300e+01 -1.300e+01 -1.300e+01 -1.300e+01 -1.300e+01 -1.300e+01 -1.300e+01 -1.300e+01 -1.300e+01 -1.300e+01 -1.300e+01 -1.300e+01 -1.300e+01 -1.300e+01 -1.300e+01 -1.300e+01 -1.300e+01 -1.300e+01 -1.300e+01 -1.300e+01 -1.300e+01 -5.000e+00 -5.000e+00 -5.000e+00 -5.000e+00 -5.000e+00 -5.000e+00 -5.000e+00 -5.000e+00 -5.000e+00 -5.000e+00 -5.000e+00 -5.000e+00 -5.000e+00 -5.000e+00 -5.000e+00 -5.000e+00 -5.000e+00 -5.000e+00 -5.000e+00 -5.000e+00 -5.000e+00 -5.000e+00 -5.000e+00 -5.000e+00 -5.000e+00 -5.000e+00 -5.000e+00 -5.000e+00 -5.000e+00 -5.000e+00 -5.000e+00 -5.000e+00 -5.000e+00 -5.000e+00 -5.000e+00 -5.000e+00 -5.000e+00 -5.000e+00 -1.700e+01 -1.700e+01 -1.700e+01 -1.700e+01 -1.700e+01 -1.700e+01 -1.700e+01 -1.700e+01 -1.700e+01 -1.700e+01 -1.700e+01 -1.700e+01 -1.700e+01 -1.700e+01 -1.700e+01 -1.700e+01 -1.700e+01 -1.700e+01 -1.700e+01 -1.700e+01 -1.700e+01 -1.700e+01 -1.700e+01 -1.700e+01 -1.700e+01 -1.700e+01 -1.700e+01 -1.700e+01 -1.700e+01 -1.700e+01 -1.700e+01 -1.700e+01 -1.700e+01 -1.700e+01 -1.700e+01 -1.700e+01 -1.700e+01 -1.700e+01 -1.700e+01 -1.700e+01 -1.700e+01 -1.700e+01 -1.700e+01 -1.700e+01 -1.700e+01 -1.700e+01 -1.700e+01 -1.700e+01 -1.700e+01 -1.700e+01 -1.700e+01 -1.700e+01 -1.700e+01 -1.700e+01 -1.700e+01 -1.700e+01 -1.700e+01 -1.700e+01 -1.700e+01 -1.700e+01 -1.700e+01 -1.700e+01 -1.700e+01 -1.700e+01 -1.700e+01 -1.700e+01 -1.700e+01 -1.700e+01 -1.700e+01 -1.700e+01 -1.700e+01 -1.700e+01 -1.700e+01 -1.700e+01 -1.700e+01 -1.700e+01 -1.700e+01 -1.700e+01 -1.700e+01 -1.700e+01 -1.700e+01 -1.700e+01 -1.700e+01 -1.700e+01 -1.700e+01 -1.700e+01 -1.700e+01 -1.700e+01 -1.700e+01 -1.700e+01 -1.700e+01 -1.700e+01 -1.700e+01 -1.700e+01 -1.700e+01 -1.700e+01 -1.700e+01 -1.700e+01 -1.700e+01 -1.700e+01 -1.700e+01 -1.700e+01 -1.700e+01 -1.700e+01 -1.700e+01 -1.700e+01 -1.700e+01 -1.700e+01 -1.700e+01 -1.700e+01 -1.700e+01 -1.700e+01 -1.700e+01 -1.700e+01 -1.700e+01 -1.700e+01 -9.000e+00 -9.000e+00 -9.000e+00 -9.000e+00 -9.000e+00 -9.000e+00 -9.000e+00 -9.000e+00 -9.000e+00 -9.000e+00 -9.000e+00 -9.000e+00 -9.000e+00 -9.000e+00 -9.000e+00 -9.000e+00 -9.000e+00 -9.000e+00 -9.000e+00 -9.000e+00 -9.000e+00 -9.000e+00 -9.000e+00 -9.000e+00 -9.000e+00 -9.000e+00 -9.000e+00 -9.000e+00 -1.700e+01 -1.700e+01 -1.700e+01 -1.700e+01 -1.700e+01 -1.700e+01 -1.700e+01 -1.700e+01 -1.700e+01 -1.700e+01 -1.700e+01 -1.700e+01 -1.700e+01 -1.700e+01 -1.700e+01 -1.700e+01 -1.700e+01 -1.700e+01 -1.700e+01 -1.700e+01 -1.700e+01 -1.700e+01 -1.700e+01 -1.700e+01 -1.700e+01 -1.700e+01 -1.700e+01 -1.700e+01 -1.700e+01 -1.700e+01 -1.700e+01 -1.700e+01 -1.700e+01 -1.700e+01 -1.700e+01 -1.700e+01 -1.700e+01 -1.700e+01 -1.700e+01 -1.700e+01 -1.700e+01 -1.700e+01 -1.700e+01 -1.700e+01 -1.700e+01 -1.700e+01 -1.700e+01 -1.700e+01 -1.700e+01 -1.700e+01 -1.700e+01 -1.700e+01 -1.700e+01 -1.700e+01 -1.700e+01 -1.700e+01 -1.700e+01 -1.700e+01 -1.700e+01 -1.700e+01 -1.700e+01 -1.700e+01 -1.700e+01 -1.700e+01 -1.700e+01 -1.700e+01 -1.700e+01 -1.700e+01 -1.700e+01 -1.700e+01 -1.700e+01 -1.700e+01 -1.700e+01 -1.700e+01 -1.700e+01 -1.700e+01 -1.700e+01 -1.700e+01 -1.700e+01 -1.700e+01 -1.700e+01 -1.700e+01 -1.700e+01 -1.700e+01 -1.700e+01 -1.700e+01 -1.700e+01 -1.700e+01 -1.700e+01 -1.700e+01 -1.700e+01 -1.700e+01 -1.700e+01 -1.700e+01 -1.700e+01 -1.700e+01 -1.700e+01 -1.700e+01 -1.700e+01 -1.700e+01 -1.700e+01 -1.700e+01 -1.700e+01 -1.700e+01 -1.700e+01 -1.700e+01 -1.700e+01 -1.700e+01 -1.700e+01 -1.700e+01 -9.000e+00 -9.000e+00 -9.000e+00 -9.000e+00 -9.000e+00 -9.000e+00 -9.000e+00 -9.000e+00 -9.000e+00