<?xml version="1.0"?>
<VTKFile type="UnstructuredGrid" version="0.1" byte_order="LittleEndian">
   <UnstructuredGrid>
      <Piece NumberOfPoints="4900" NumberOfCells="354">
         <Points>
            <DataArray type="Float32" Name="Position" NumberOfComponents="3" format="ascii">
-0.087	-5.027	0.102
-0.086	-5.018	0.102
-0.091	-5.010	0.105
-0.098	-5.007	0.109
-0.106	-5.009	0.114
-0.111	-5.017	0.116
-0.112	-5.026	0.116
-0.107	-5.034	0.113
-0.100	-5.037	0.109
-0.092	-5.034	0.104
0.003	-5.036	0.262
0.003	-5.027	0.262
-0.001	-5.019	0.265
-0.009	-5.016	0.270
-0.016	-5.019	0.274
-0.022	-5.026	0.276
-0.022	-5.035	0.276
-0.018	-5.043	0.273
-0.010	-5.046	0.269
-0.002	-5.044	0.264
-0.189	-5.078	0.220
-0.185	-5.071	0.223
-0.185	-5.061	0.223
-0.189	-5.054	0.220
-0.196	-5.051	0.215
-0.203	-5.054	0.209
-0.207	-5.061	0.206
-0.207	-5.070	0.206
-0.203	-5.078	0.209
-0.196	-5.081	0.214
-0.297	-5.077	0.353
-0.297	-5.068	0.357
-0.297	-5.059	0.355
-0.297	-5.053	0.349
-0.297	-5.051	0.340
-0.297	-5.056	0.331
-0.297	-5.064	0.327
-0.297	-5.073	0.329
-0.297	-5.080	0.335
-0.297	-5.081	0.344
-0.280	-5.117	0.308
-0.275	-5.117	0.316
-0.275	-5.117	0.325
-0.281	-5.118	0.332
-0.290	-5.120	0.334
-0.299	-5.121	0.331
-0.304	-5.121	0.323
-0.303	-5.120	0.314
-0.297	-5.119	0.307
-0.288	-5.118	0.304
-0.256	-5.294	0.297
-0.251	-5.294	0.305
-0.252	-5.295	0.314
-0.258	-5.296	0.321
-0.267	-5.297	0.324
-0.275	-5.298	0.320
-0.280	-5.298	0.312
-0.279	-5.298	0.303
-0.274	-5.297	0.296
-0.265	-5.295	0.294
-0.374	-5.195	0.426
-0.370	-5.188	0.430
-0.370	-5.178	0.430
-0.374	-5.171	0.427
-0.380	-5.168	0.420
-0.386	-5.171	0.414
-0.390	-5.178	0.410
-0.390	-5.187	0.409
-0.386	-5.195	0.413
-0.380	-5.198	0.420
-0.465	-5.197	0.513
-0.461	-5.190	0.517
-0.461	-5.180	0.517
-0.465	-5.173	0.513
-0.471	-5.170	0.507
-0.477	-5.173	0.500
-0.481	-5.180	0.496
-0.481	-5.189	0.496
-0.477	-5.197	0.500
-0.471	-5.200	0.506
-0.460	-5.250	0.506
-0.455	-5.250	0.514
-0.454	-5.252	0.523
-0.459	-5.254	0.530
-0.468	-5.256	0.533
-0.477	-5.257	0.530
-0.482	-5.257	0.523
-0.483	-5.255	0.514
-0.478	-5.253	0.506
-0.469	-5.251	0.504
-0.445	-5.343	0.487
-0.439	-5.344	0.494
-0.439	-5.346	0.503
-0.444	-5.348	0.511
-0.453	-5.350	0.514
-0.461	-5.351	0.511
-0.467	-5.350	0.504
-0.467	-5.349	0.494
-0.462	-5.346	0.487
-0.454	-5.344	0.484
-0.549	-5.338	0.622
-0.545	-5.331	0.626
-0.545	-5.322	0.626
-0.549	-5.314	0.623
-0.556	-5.311	0.617
-0.562	-5.314	0.611
-0.566	-5.321	0.607
-0.566	-5.331	0.607
-0.562	-5.338	0.610
-0.555	-5.341	0.616
-0.602	-5.341	0.682
-0.598	-5.334	0.686
-0.598	-5.325	0.686
-0.603	-5.317	0.683
-0.609	-5.314	0.677
-0.616	-5.317	0.671
-0.620	-5.324	0.667
-0.620	-5.333	0.667
-0.616	-5.341	0.670
-0.609	-5.344	0.676
-0.635	-5.400	0.699
-0.629	-5.401	0.706
-0.628	-5.403	0.715
-0.633	-5.405	0.722
-0.642	-5.407	0.725
-0.651	-5.408	0.723
-0.657	-5.407	0.715
-0.657	-5.405	0.706
-0.652	-5.403	0.699
-0.643	-5.401	0.696
-0.633	-5.456	0.686
-0.633	-5.452	0.694
-0.633	-5.453	0.704
-0.633	-5.460	0.710
-0.633	-5.469	0.712
-0.633	-5.477	0.707
-0.633	-5.481	0.699
-0.633	-5.480	0.690
-0.633	-5.473	0.683
-0.633	-5.464	0.682
-0.718	-5.486	0.794
-0.718	-5.477	0.796
-0.722	-5.471	0.801
-0.730	-5.469	0.806
-0.737	-5.473	0.811
-0.741	-5.481	0.812
-0.741	-5.490	0.810
-0.737	-5.496	0.805
-0.730	-5.498	0.800
-0.722	-5.494	0.796
-0.706	-5.501	0.847
-0.706	-5.493	0.851
-0.706	-5.484	0.850
-0.706	-5.477	0.843
-0.706	-5.476	0.834
-0.706	-5.480	0.826
-0.706	-5.488	0.821
-0.706	-5.498	0.823
-0.706	-5.504	0.829
-0.706	-5.506	0.839
-0.808	-5.561	0.882
-0.801	-5.562	0.889
-0.800	-5.564	0.898
-0.804	-5.567	0.906
-0.812	-5.570	0.909
-0.821	-5.572	0.907
-0.827	-5.572	0.900
-0.828	-5.570	0.891
-0.824	-5.566	0.884
-0.816	-5.563	0.880
-0.798	-5.587	0.878
-0.800	-5.578	0.880
-0.805	-5.572	0.886
-0.812	-5.572	0.892
-0.817	-5.578	0.897
-0.819	-5.587	0.900
-0.817	-5.595	0.897
-0.812	-5.601	0.892
-0.805	-5.601	0.886
-0.800	-5.595	0.880
0.021	-5.016	0.005
0.026	-5.001	0.019
0.021	-4.981	0.025
0.008	-4.965	0.022
-0.008	-4.958	0.011
-0.022	-4.964	-0.004
-0.027	-4.979	-0.018
-0.022	-4.999	-0.024
-0.009	-5.015	-0.021
0.007	-5.022	-0.010
-0.561	-5.375	0.650
-0.556	-5.360	0.664
-0.562	-5.342	0.673
-0.576	-5.326	0.671
-0.593	-5.319	0.661
-0.606	-5.324	0.645
-0.611	-5.339	0.630
-0.605	-5.357	0.622
-0.591	-5.373	0.624
-0.574	-5.379	0.634
-0.969	-5.785	1.093
-0.965	-5.773	1.109
-0.972	-5.756	1.120
-0.987	-5.741	1.120
-1.005	-5.734	1.111
-1.018	-5.738	1.094
-1.021	-5.750	1.078
-1.014	-5.767	1.067
-0.999	-5.782	1.067
-0.982	-5.789	1.076
-1.351	-6.218	1.458
-1.348	-6.207	1.476
-1.356	-6.192	1.488
-1.371	-6.178	1.490
-1.389	-6.171	1.481
-1.401	-6.173	1.464
-1.404	-6.184	1.447
-1.397	-6.200	1.434
-1.381	-6.213	1.433
-1.363	-6.221	1.442
-1.767	-6.789	1.836
-1.764	-6.779	1.854
-1.772	-6.765	1.868
-1.788	-6.752	1.871
-1.806	-6.745	1.862
-1.819	-6.746	1.845
-1.822	-6.756	1.827
-1.813	-6.770	1.814
-1.797	-6.783	1.811
-1.779	-6.791	1.819
-2.072	-7.235	2.095
-2.070	-7.226	2.114
-2.078	-7.213	2.128
-2.094	-7.200	2.131
-2.112	-7.192	2.123
-2.125	-7.194	2.106
-2.128	-7.203	2.087
-2.119	-7.216	2.074
-2.103	-7.229	2.070
-2.085	-7.236	2.078
-2.392	-7.728	2.377
-2.389	-7.719	2.395
-2.398	-7.706	2.410
-2.414	-7.694	2.414
-2.433	-7.687	2.406
-2.446	-7.688	2.390
-2.449	-7.696	2.371
-2.440	-7.709	2.357
-2.424	-7.722	2.353
-2.406	-7.729	2.360
-2.709	-8.279	2.676
-2.706	-8.271	2.695
-2.714	-8.258	2.710
-2.730	-8.247	2.715
-2.749	-8.240	2.708
-2.763	-8.241	2.692
-2.766	-8.250	2.673
-2.758	-8.262	2.659
-2.741	-8.274	2.654
-2.723	-8.280	2.661
-3.023	-8.884	3.002
-3.020	-8.876	3.021
-3.028	-8.864	3.036
-3.045	-8.853	3.042
-3.064	-8.847	3.036
-3.078	-8.848	3.020
-3.082	-8.856	3.001
-3.074	-8.867	2.986
-3.057	-8.878	2.980
-3.038	-8.885	2.986
-3.320	-9.545	3.314
-3.316	-9.538	3.334
-3.324	-9.527	3.350
-3.341	-9.517	3.356
-3.361	-9.511	3.351
-3.375	-9.512	3.336
-3.379	-9.519	3.316
-3.371	-9.530	3.300
-3.354	-9.540	3.294
-3.334	-9.546	3.299
-3.604	-10.224	3.628
-3.600	-10.217	3.647
-3.608	-10.207	3.664
-3.625	-10.197	3.670
-3.644	-10.191	3.665
-3.659	-10.191	3.650
-3.663	-10.198	3.630
-3.654	-10.208	3.614
-3.637	-10.219	3.607
-3.618	-10.225	3.612
-3.910	-10.909	3.904
-3.906	-10.903	3.924
-3.914	-10.893	3.941
-3.931	-10.883	3.948
-3.951	-10.877	3.943
-3.965	-10.877	3.928
-3.969	-10.883	3.908
-3.961	-10.892	3.891
-3.944	-10.902	3.884
-3.924	-10.909	3.889
-4.181	-11.614	4.162
-4.177	-11.609	4.182
-4.185	-11.600	4.199
-4.202	-11.590	4.207
-4.222	-11.584	4.203
-4.237	-11.584	4.188
-4.241	-11.590	4.168
-4.233	-11.599	4.151
-4.216	-11.608	4.143
-4.196	-11.614	4.147
-4.313	-11.970	4.287
-4.309	-11.965	4.307
-4.317	-11.956	4.324
-4.334	-11.947	4.332
-4.353	-11.941	4.328
-4.368	-11.941	4.313
-4.372	-11.946	4.293
-4.364	-11.955	4.276
-4.347	-11.964	4.268
-4.328	-11.970	4.272
0.118	-5.010	0.090
0.115	-5.001	0.093
0.110	-4.997	0.099
0.104	-4.998	0.106
0.100	-5.004	0.112
0.098	-5.013	0.113
0.101	-5.022	0.110
0.106	-5.026	0.104
0.112	-5.025	0.097
0.116	-5.019	0.092
0.266	-5.012	0.218
0.264	-5.004	0.221
0.259	-4.999	0.227
0.253	-5.000	0.234
0.248	-5.007	0.239
0.247	-5.016	0.241
0.249	-5.024	0.238
0.255	-5.029	0.232
0.261	-5.028	0.225
0.265	-5.022	0.220
0.210	-5.032	0.194
0.215	-5.029	0.202
0.219	-5.032	0.210
0.221	-5.039	0.215
0.221	-5.048	0.215
0.218	-5.056	0.211
0.214	-5.059	0.203
0.209	-5.056	0.195
0.207	-5.049	0.190
0.207	-5.040	0.190
0.372	-5.042	0.107
0.376	-5.039	0.114
0.381	-5.041	0.122
0.383	-5.049	0.127
0.383	-5.058	0.128
0.380	-5.066	0.123
0.375	-5.069	0.115
0.371	-5.066	0.108
0.369	-5.059	0.102
0.369	-5.049	0.102
0.315	-5.073	0.293
0.321	-5.070	0.300
0.325	-5.073	0.308
0.328	-5.080	0.313
0.327	-5.089	0.313
0.323	-5.097	0.309
0.318	-5.100	0.302
0.314	-5.097	0.294
0.311	-5.089	0.289
0.312	-5.080	0.289
0.463	-5.089	0.195
0.468	-5.086	0.202
0.472	-5.089	0.209
0.475	-5.096	0.214
0.474	-5.105	0.215
0.471	-5.113	0.211
0.466	-5.116	0.204
0.461	-5.113	0.196
0.458	-5.105	0.191
0.459	-5.096	0.191
0.420	-5.123	0.388
0.426	-5.120	0.395
0.430	-5.123	0.402
0.433	-5.130	0.407
0.432	-5.139	0.408
0.428	-5.147	0.404
0.423	-5.150	0.397
0.418	-5.147	0.389
0.416	-5.139	0.384
0.417	-5.130	0.384
0.532	-5.138	0.311
0.537	-5.135	0.318
0.542	-5.138	0.326
0.545	-5.145	0.331
0.544	-5.155	0.331
0.540	-5.162	0.327
0.535	-5.165	0.320
0.530	-5.162	0.313
0.528	-5.155	0.308
0.528	-5.146	0.307
0.536	-5.192	0.478
0.533	-5.184	0.481
0.528	-5.179	0.487
0.522	-5.180	0.494
0.517	-5.186	0.499
0.516	-5.195	0.500
0.518	-5.203	0.498
0.524	-5.208	0.492
0.530	-5.207	0.485
0.534	-5.201	0.480
0.609	-5.192	0.542
0.606	-5.184	0.545
0.601	-5.179	0.551
0.595	-5.180	0.558
0.591	-5.186	0.563
0.589	-5.195	0.565
0.592	-5.203	0.562
0.597	-5.208	0.556
0.603	-5.207	0.549
0.608	-5.201	0.544
0.637	-5.256	0.571
0.641	-5.257	0.579
0.640	-5.258	0.588
0.633	-5.258	0.595
0.624	-5.257	0.596
0.616	-5.256	0.592
0.612	-5.255	0.584
0.613	-5.254	0.575
0.620	-5.254	0.568
0.629	-5.255	0.567
0.628	-5.348	0.563
0.632	-5.349	0.571
0.630	-5.349	0.580
0.624	-5.349	0.587
0.615	-5.348	0.588
0.606	-5.347	0.584
0.602	-5.346	0.576
0.604	-5.345	0.567
0.611	-5.346	0.560
0.620	-5.346	0.559
0.734	-5.324	0.660
0.732	-5.316	0.663
0.727	-5.311	0.669
0.721	-5.311	0.675
0.716	-5.317	0.681
0.714	-5.326	0.682
0.716	-5.335	0.680
0.722	-5.340	0.674
0.728	-5.339	0.667
0.733	-5.333	0.662
0.774	-5.316	0.706
0.774	-5.311	0.714
0.774	-5.313	0.723
0.774	-5.319	0.730
0.774	-5.329	0.731
0.774	-5.337	0.727
0.774	-5.341	0.719
0.774	-5.340	0.709
0.774	-5.333	0.703
0.774	-5.324	0.701
0.831	-5.396	0.749
0.829	-5.388	0.751
0.824	-5.383	0.757
0.818	-5.384	0.764
0.813	-5.390	0.770
0.811	-5.399	0.771
0.814	-5.407	0.768
0.819	-5.412	0.762
0.825	-5.411	0.755
0.830	-5.405	0.750
0.860	-5.397	0.774
0.858	-5.389	0.777
0.853	-5.384	0.783
0.846	-5.384	0.790
0.842	-5.391	0.795
0.840	-5.400	0.797
0.842	-5.408	0.794
0.848	-5.413	0.788
0.854	-5.412	0.781
0.859	-5.406	0.776
0.927	-5.474	0.834
0.925	-5.466	0.837
0.920	-5.461	0.842
0.913	-5.461	0.849
0.909	-5.467	0.854
0.907	-5.476	0.856
0.909	-5.485	0.854
0.914	-5.490	0.848
0.921	-5.489	0.841
0.926	-5.483	0.836
0.940	-5.474	0.846
0.938	-5.466	0.848
[...]
         <CellData>
           <DataArray type="Float32" Name="combinedRootClassID" NumberOfComponents="1" format="ascii">
 -1.300e+01 -1.300e+01 -1.300e+01 -1.300e+01 -1.300e+01 -1.300e+01 -1.300e+01 -1.300e+01 -1.300e+01 -5.000e+00 -5.000e+00 -5.000e+00 -5.000e+00 -5.000e+00 -5.000e+00 -5.000e+00 -5.000e+00 -5.000e+00 -5.000e+00 -5.000e+00 -5.000e+00 -5.000e+00 -1.300e+01 -1.300e+01 -1.300e+01 -1.300e+01 -1.300e+01 -1.300e+01 -1.300e+01 -1.300e+01 -1.300e+01 -5.000e+00 -5.000e+00 -5.000e+00 -5.000e+00 -5.000e+00 -5.000e+00 -5.000e+00 -5.000e+00 -5.000e+00 -5.000e+00 -5.000e+00 -5.000e+00 -5.000e+00 -1.300e+01 -1.300e+01 -1.300e+01 -1.300e+01 -1.300e+01 -1.300e+01 -1.300e+01 -1.300e+01 -1.300e+01 -5.000e+00 -5.000e+00 -5.000e+00 -5.000e+00 -5.000e+00 -5.000e+00 -5.000e+00 -5.000e+00 -5.000e+00 -5.000e+00 -5.000e+00 -5.000e+00 -5.000e+00 -1.300e+01 -1.300e+01 -1.300e+01 -1.300e+01 -1.300e+01 -1.300e+01 -1.300e+01 -1.300e+01 -1.300e+01 -5.000e+00 -5.000e+00 -5.000e+00 -5.000e+00 -5.000e+00 -5.000e+00 -5.000e+00 -5.000e+00 -5.000e+00 -5.000e+00 -5.000e+00 -5.000e+00 -5.000e+00 -9.000e+00 -9.000e+00 -9.000e+00 -9.000e+00 -9.000e+00 -9.000e+00 -9.000e+00 -9.000e+00 -9.000e+00 -9.000e+00 -9.000e+00 -9.000e+00 -2.000e+00 -2.000e+00 -2.000e+00 -2.000e+00 -2.000e+00 -2.000e+00 -2.000e+00 -2.000e+00 -2.000e+00 -2.000e+00 -2.000e+00 -2.000e+00 -7.000e+00 -7.000e+00 -7.000e+00 -7.000e+00 -7.000e+00 -7.000e+00 -7.000e+00 -7.000e+00 -7.000e+00 -7.000e+00 -7.000e+00 -7.000e+00 -7.000e+00 -7.000e+00 -7.000e+00 -7.000e+00 -7.000e+00 -7.000e+00 -7.000e+00 -7.000e+00 -7.000e+00 -7.000e+00 -7.000e+00 -7.000e+00 -7.000e+00 -7.000e+00 -7.000e+00 -7.000e+00 -7.000e+00 -7.000e+00 -7.000e+00 -7.000e+00 -7.000e+00 -7.000e+00 -7.000e+00 -7.000e+00 -7.000e+00 -7.000e+00 -7.000e+00 -7.000e+00 -7.000e+00 -7.000e+00 -7.000e+00 -7.000e+00 -7.000e+00 -7.000e+00 -7.000e+00 -7.000e+00 -7.000e+00 -7.000e+00 -7.000e+00 -7.000e+00 -7.000e+00 -7.000e+00 -7.000e+00 -7.000e+00 -7.000e+00 -7.000e+00 -7.000e+00 -7.000e+00 -7.000e+00 -7.000e+00 -7.000e+00 -7.000e+00 -7.000e+00 -7.000e+00 -7.000e+00 -7.000e+00 -7.000e+00 -7.000e+00 -7.000e+00 -7.000e+00 -7.000e+00 -7.000e+00 -7.000e+00 -7.000e+00 -7.000e+00 -7.000e+00 -7.000e+00 -7.000e+00 -7.000e+00 -7.000e+00 -7.000e+00 -7.000e+00 -7.000e+00 -7.000e+00 -7.000e+00 -7.000e+00 -7.000e+00 -7.000e+00 -7.000e+00 -7.000e+00 -7.000e+00 -7.000e+00 -7.000e+00 -7.000e+00 -7.000e+00 -7.000e+00 -7.000e+00 -7.000e+00 -7.000e+00 -7.000e+00 -7.000e+00 -7.000e+00 -7.000e+00 -7.000e+00 -7.000e+00 -7.000e+00 -7.000e+00 -7.000e+00 -7.000e+00 -7.000e+00 -7.000e+00 -7.000e+00 -7.000e+00 -7.000e+00 -7.000e+00 -7.000e+00 -7.000e+00 -7.000e+00 -7.000e+00 -7.000e+00 -7.000e+00 -7.000e+00 -7.000e+00 -7.000e+00 -7.000e+00 -7.000e+00 -7.000e+00 -7.000e+00 -7.000e+00 -7.000e+00 -7.000e+00 -7.000e+00 -7.000e+00 -7.000e+00 -7.000e+00 -7.000e+00 -7.000e+00 -7.000e+00 -7.000e+00 -7.000e+00 -7.000e+00 -7.000e+00 -7.000e+00 -7.000e+00 -7.000e+00 -7.000e+00 -7.000e+00 -7.000e+00 -7.000e+00 -7.000e+00 -7.000e+00 -7.000e+00 -7.000e+00 -7.000e+00 -7.000e+00 -7.000e+00 -7.000e+00 -7.000e+00 -7.000e+00 -7.000e+00 -7.000e+00 -7.000e+00 -7.000e+00 -7.000e+00 -7.000e+00 -7.000e+00 -7.000e+00 -7.000e+00 -7.000e+00 -7.000e+00 -7.000e+00 -7.000e+00 -7.000e+00 -7.000e+00 -7.000e+00 -7.000e+00 -7.000e+00 -7.000e+00 -7.000e+00 -7.000e+00 -7.000e+00 -7.000e+00 -7.000e+00 -7.000e+00 -7.000e+00 -7.000e+00 -7.000e+00 -7.000e+00 -7.000e+00 -7.000e+00 -7.000e+00 -7.000e+00 -7.000e+00 -7.000e+00 -7.000e+00 -7.000e+00 -7.000e+00 -1.100e+01 -1.100e+01 -1.100e+01 -1.100e+01 -4.000e+00 -4.000e+00 -4.000e+00 -4.000e+00 -4.000e+00 -4.000e+00 -4.000e+00 -4.000e+00 -4.000e+00 -4.000e+00 -4.000e+00 -4.000e+00 -4.000e+00 -4.000e+00 -4.000e+00 -4.000e+00 -4.000e+00 -4.000e+00 -4.000e+00 -4.000e+00 -4.000e+00 -4.000e+00 -4.000e+00 -4.000e+00 -4.000e+00 -4.000e+00 -4.000e+00 -4.000e+00 -4.000e+00 -4.000e+00 -4.000e+00 -4.000e+00 -4.000e+00 -4.000e+00 -4.000e+00 -4.000e+00 -4.000e+00 -4.000e+00 -4.000e+00
           </DataArray>
           <DataArray type="Float32" Name="nitrate/minimalNutrientConcentration" NumberOfComponents="1" format="ascii">
 6.000e+02 6.000e+02 6.000e+02 6.000e+02 6.000e+02 6.000e+02 6.000e+02 6.000e+02 6.000e+02 6.000e+02 6.000e+02 6.000e+02 6.000e+02 6.000e+02 6.000e+02 6.000e+02 6.000e+02 6.000e+02 6.000e+02 6.000e+02 6.000e+02 6.000e+02 6.000e+02 6.000e+02 6.000e+02 6.000e+02 6.000e+02 6.000e+02 6.000e+02 6.000e+02 6.000e+02 6.000e+02 6.000e+02 6.000e+02 6.000e+02 6.000e+02 6.000e+02 6.000e+02 6.000e+02 6.000e+02 6.000e+02 6.000e+02 6.000e+02 6.000e+02 6.000e+02 6.000e+02 6.000e+02 6.000e+02 6.000e+02 6.000e+02 6.000e+02 6.000e+02 6.000e+02 6.000e+02 6.000e+02 6.000e+02 6.000e+02 6.000e+02 6.000e+02 6.000e+02 6.000e+02 6.000e+02 6.000e+02 6.000e+02 6.000e+02 6.000e+02 6.000e+02 6.000e+02 6.000e+02 6.000e+02 6.000e+02 6.000e+02 6.000e+02 6.000e+02 6.000e+02 6.000e+02 6.000e+02 6.000e+02 6.000e+02 6.000e+02 6.000e+02 6.000e+02 6.000e+02 6.000e+02 6.000e+02 6.000e+02 6.000e+02 6.000e+02 6.000e+02 6.000e+02 6.000e+02 6.000e+02 6.000e+02 6.000e+02 6.000e+02 6.000e+02 6.000e+02 6.000e+02 6.000e+02 6.000e+02 6.000e+02 6.000e+02 6.000e+02 6.000e+02 6.000e+02 6.000e+02 6.000e+02 6.000e+02 6.000e+02 6.000e+02 6.000e+02 6.000e+02 6.000e+02 6.000e+02 6.000e+02 6.000e+02 6.000e+02 6.000e+02 6.000e+02 6.000e+02 6.000e+02 6.000e+02 6.000e+02 6.000e+02 6.000e+02 6.000e+02 6.000e+02 6.000e+02 6.000e+02 6.000e+02 6.000e+02 6.000e+02 6.000e+02 6.000e+02 6.000e+02 6.000e+02 6.000e+02 6.000e+02 6.000e+02 6.000e+02 6.000e+02 6.000e+02 6.000e+02 6.000e+02 6.000e+02 6.000e+02 6.000e+02 6.000e+02 6.000e+02 6.000e+02 6.000e+02 6.000e+02 6.000e+02 6.000e+02 6.000e+02 6.000e+02 6.000e+02 6.000e+02 6.000e+02 6.000e+02 6.000e+02 6.000e+02 6.000e+02 6.000e+02 6.000e+02 6.000e+02 6.000e+02 6.000e+02 6.000e+02 6.000e+02 6.000e+02 6.000e+02 6.000e+02 6.000e+02 6.000e+02 6.000e+02 6.000e+02 6.000e+02 6.000e+02 6.000e+02 6.000e+02 6.000e+02 6.000e+02 6.000e+02 6.000e+02 6.000e+02 6.000e+02 6.000e+02 6.000e+02 6.000e+02 6.000e+02 6.000e+02 6.000e+02 6.000e+02 6.000e+02 6.000e+02 6.000e+02 6.000e+02 6.000e+02 6.000e+02 6.000e+02 6.000e+02 6.000e+02 6.000e+02 6.000e+02 6.000e+02 6.000e+02 6.000e+02 6.000e+02 6.000e+02 6.000e+02 6.000e+02 6.000e+02 6.000e+02 6.000e+02 6.000e+02 6.000e+02 6.000e+02 6.000e+02 6.000e+02 6.000e+02 6.000e+02 6.000e+02 6.000e+02 6.000e+02 6.000e+02 6.000e+02 6.000e+02 6.000e+02 6.000e+02 6.000e+02 6.000e+02 6.000e+02 6.000e+02 6.000e+02 6.000e+02 6.000e+02 6.000e+02 6.000e+02 6.000e+02 6.000e+02 6.000e+02 6.000e+02 6.000e+02 6.000e+02 6.000e+02 6.000e+02 6.000e+02 6.000e+02 6.000e+02 6.000e+02 6.000e+02 6.000e+02 6.000e+02 6.000e+02 6.000e+02 6.000e+02 6.000e+02 6.000e+02 6.000e+02 6.000e+02 6.000e+02 6.000e+02 6.000e+02 6.000e+02 6.000e+02 6.000e+02 6.000e+02 6.000e+02 6.000e+02 6.000e+02 6.000e+02 6.000e+02 6.000e+02 6.000e+02 6.000e+02 6.000e+02 6.000e+02 6.000e+02 6.000e+02 6.000e+02 6.000e+02 6.000e+02 6.000e+02 6.000e+02 6.000e+02 6.000e+02 6.000e+02 6.000e+02 6.000e+02 6.000e+02 6.000e+02 6.000e+02 6.000e+02 6.000e+02 6.000e+02 6.000e+02 6.000e+02 6.000e+02 6.000e+02 6.000e+02 6.000e+02 6.000e+02 6.000e+02 6.000e+02 6.000e+02 6.000e+02 6.000e+02 6.000e+02 6.000e+02 6.000e+02 6.000e+02 6.000e+02 6.000e+02 6.000e+02 6.000e+02 6.000e+02 6.000e+02 6.000e+02 6.000e+02 6.000e+02 6.000e+02 6.000e+02 6.000e+02 6.000e+02 6.000e+02 6.000e+02 6.000e+02 6.000e+02 6.000e+02 6.000e+02 6.000e+02 6.000e+02 6.000e+02 6.000e+02 6.000e+02 6.000e+02 6.000e+02 6.000e+02 6.000e+02 6.000e+02 6.000e+02 6.000e+02 6.000e+02 6.000e+02 6.000e+02 6.000e+02 6.000e+02 6.000e+02 6.000e+02 6.000e+02 6.000e+02 6.000e+02 6.000e+02
           </DataArray>
           <DataArray type="Float32" Name="nitrate/optimalNutrientConcentration" NumberOfComponents="1" format="ascii">
 1.200e+03 1.200e+03 1.200e+03 1.200e+03 1.200e+03 1.200e+03 1.200e+03 1.200e+03 1.200e+03 1.200e+03 1.200e+03 1.200e+03 1.200e+03 1.200e+03 1.200e+03 1.200e+03 1.200e+03 1.200e+03 1.200e+03 1.200e+03 1.200e+03 1.200e+03 1.200e+03 1.200e+03 1.200e+03 1.200e+03 1.200e+03 1.200e+03 1.200e+03 1.200e+03 1.200e+03 1.200e+03 1.200e+03 1.200e+03 1.200e+03 1.200e+03 1.200e+03 1.200e+03 1.200e+03 1.200e+03 1.200e+03 1.200e+03 1.200e+03 1.200e+03 1.200e+03 1.200e+03 1.200e+03 1.200e+03 1.200e+03 1.200e+03 1.200e+03 1.200e+03 1.200e+03 1.200e+03 1.200e+03 1.200e+03 1.200e+03 1.200e+03 1.200e+03 1.200e+03 1.200e+03 1.200e+03 1.200e+03 1.200e+03 1.200e+03 1.200e+03 1.200e+03 1.200e+03 1.200e+03 1.200e+03 1.200e+03 1.200e+03 1.200e+03 1.200e+03 1.200e+03 1.200e+03 1.200e+03 1.200e+03 1.200e+03 1.200e+03 1.200e+03 1.200e+03 1.200e+03 1.200e+03 1.200e+03 1.200e+03 1.200e+03 1.200e+03 1.200e+03 1.200e+03 1.200e+03 1.200e+03 1.200e+03 1.200e+03 1.200e+03 1.200e+03 1.200e+03 1.200e+03 1.200e+03 1.200e+03 1.200e+03 1.200e+03 1.200e+03 1.200e+03 1.200e+03 1.200e+03 1.200e+03 1.200e+03 1.200e+03 1.200e+03 1.200e+03 1.200e+03 1.200e+03 1.200e+03 1.200e+03 1.200e+03 1.200e+03 1.200e+03 1.200e+03 1.200e+03 1.200e+03 1.200e+03 1.200e+03 1.200e+03 1.200e+03 1.200e+03 1.200e+03 1.200e+03 1.200e+03 1.200e+03 1.200e+03 1.200e+03 1.200e+03 1.200e+03 1.200e+03 1.200e+03 1.200e+03 1.200e+03 1.200e+03 1.200e+03 1.200e+03 1.200e+03 1.200e+03 1.200e+03 1.200e+03 1.200e+03 1.200e+03 1.200e+03 1.200e+03 1.200e+03 1.200e+03 1.200e+03 1.200e+03 1.200e+03 1.200e+03 1.200e+03 1.200e+03 1.200e+03 1.200e+03 1.200e+03 1.200e+03 1.200e+03 1.200e+03 1.200e+03 1.200e+03 1.200e+03 1.200e+03 1.200e+03 1.200e+03 1.200e+03 1.200e+03 1.200e+03 1.200e+03 1.200e+03 1.200e+03 1.200e+03 1.200e+03 1.200e+03 1.200e+03 1.200e+03 1.200e+03 1.200e+03 1.200e+03 1.200e+03 1.200e+03 1.200e+03 1.200e+03 1.200e+03 1.200e+03 1.200e+03 1.200e+03 1.200e+03 1.200e+03 1.200e+03 1.200e+03 1.200e+03 1.200e+03 1.200e+03 1.200e+03 1.200e+03 1.200e+03 1.200e+03 1.200e+03 1.200e+03 1.200e+03 1.200e+03 1.200e+03 1.200e+03 1.200e+03 1.200e+03 1.200e+03 1.200e+03 1.200e+03 1.200e+03 1.200e+03 1.200e+03 1.200e+03 1.200e+03 1.200e+03 1.200e+03 1.200e+03 1.200e+03 1.200e+03 1.200e+03 1.200e+03 1.200e+03 1.200e+03 1.200e+03 1.200e+03 1.200e+03 1.200e+03 1.200e+03 1.200e+03 1.200e+03 1.200e+03 1.200e+03 1.200e+03 1.200e+03 1.200e+03 1.200e+03 1.200e+03 1.200e+03 1.200e+03 1.200e+03 1.200e+03 1.200e+03 1.200e+03 1.200e+03 1.200e+03 1.200e+03 1.200e+03 1.200e+03 1.200e+03 1.200e+03 1.200e+03 1.200e+03 1.200e+03 1.200e+03 1.200e+03 1.200e+03 1.200e+03 1.200e+03 1.200e+03 1.200e+03 1.200e+03 1.200e+03 1.200e+03 1.200e+03 1.200e+03 1.200e+03 1.200e+03 1.200e+03 1.200e+03 1.200e+03 1.200e+03 1.200e+03 1.200e+03 1.200e+03 1.200e+03 1.200e+03 1.200e+03 1.200e+03 1.200e+03 1.200e+03 1.200e+03 1.200e+03 1.200e+03 1.200e+03 1.200e+03 1.200e+03 1.200e+03 1.200e+03 1.200e+03 1.200e+03 1.200e+03 1.200e+03 1.200e+03 1.200e+03 1.200e+03 1.200e+03 1.200e+03 1.200e+03 1.200e+03 1.200e+03 1.200e+03 1.200e+03 1.200e+03 1.200e+03 1.200e+03 1.200e+03 1.200e+03 1.200e+03 1.200e+03 1.200e+03 1.200e+03 1.200e+03 1.200e+03 1.200e+03 1.200e+03 1.200e+03 1.200e+03 1.200e+03 1.200e+03 1.200e+03 1.200e+03 1.200e+03 1.200e+03 1.200e+03 1.200e+03 1.200e+03 1.200e+03 1.200e+03 1.200e+03 1.200e+03 1.200e+03 1.200e+03 1.200e+03 1.200e+03 1.200e+03 1.200e+03 1.200e+03 1.200e+03 1.200e+03 1.200e+03 1.200e+03 1.200e+03 1.200e+03 1.200e+03 1.200e+03 1.200e+03 1.200e+03 1.200e+03 1.200e+03 1.200e+03
           </DataArray>
           <DataArray type="Float32" Name="nitrate/radiusDepletionZone" NumberOfComponents="1" format="ascii">
 1.500e-02 1.500e-02 1.500e-02 1.500e-02 1.500e-02 1.500e-02 1.720e-01 1.525e-01 9.683e-02 3.409e-02 3.401e-02 1.134e+00 9.055e-01 8.624e-01 8.359e-01 6.569e-01 6.378e-01 4.745e-01 4.615e-01 3.115e-01 3.034e-01 1.651e-01 1.500e-02 1.500e-02 1.500e-02 1.500e-02 1.500e-02 1.500e-02 1.205e-01 9.671e-02 1.012e-01 3.409e-02 3.401e-02 1.056e+00 9.055e-01 8.624e-01 8.359e-01 6.569e-01 6.378e-01 4.745e-01 4.615e-01 3.115e-01 3.034e-01 1.651e-01 1.500e-02 1.500e-02 1.500e-02 1.500e-02 1.500e-02 1.500e-02 1.500e-02 1.404e-01 1.080e-01 3.409e-02 3.401e-02 1.134e+00 9.055e-01 8.624e-01 8.359e-01 6.569e-01 6.378e-01 4.745e-01 4.615e-01 3.115e-01 3.034e-01 1.651e-01 1.500e-02 1.500e-02 1.500e-02 1.500e-02 1.500e-02 1.500e-02 1.871e-01 1.433e-01 8.395e-02 3.409e-02 3.401e-02 1.134e+00 9.055e-01 8.624e-01 8.359e-01 6.569e-01 6.378e-01 4.745e-01 4.615e-01 3.115e-01 3.034e-01 1.651e-01 3.400e-02 3.400e-02 3.807e-01 3.400e-02 3.400e-02 3.764e-01 3.400e-02 3.400e-02 3.442e-01 3.400e-02 3.400e-02 3.442e-01 1.768e+00 4.520e+00 1.634e+01 1.307e+01 1.088e+01 9.321e+00 8.152e+00 7.242e+00 5.998e+00 2.076e-01 2.068e-01 2.055e-01 1.503e-02 1.501e-02 5.194e-01 1.503e-02 1.502e-02 7.357e-01 3.841e-01 1.503e-02 1.501e-02 6.662e-01 2.837e-01 1.503e-02 1.501e-02 2.922e-01 1.502e-02 1.501e-02 4.990e-01 1.502e-02 1.501e-02 5.754e-01 2.319e-01 1.502e-02 1.501e-02 5.140e-01 1.502e-02 1.501e-02 4.186e-01 1.502e-02 1.501e-02 4.662e-01 1.830e-01 1.502e-02 1.501e-02 3.828e-01 1.502e-02 1.501e-02 3.664e-01 1.502e-02 1.501e-02 3.837e-01 1.503e-02 1.501e-02 7.265e-01 3.308e-01 1.502e-02 1.501e-02 3.230e-01 1.502e-02 1.501e-02 3.223e-01 1.502e-02 1.501e-02 4.599e-01 1.502e-02 1.500e-02 2.726e-01 1.502e-02 1.500e-02 2.837e-01 1.502e-02 1.500e-02 1.636e-01 1.502e-02 1.500e-02 1.496e-01 1.501e-02 1.500e-02 4.424e-01 1.501e-02 1.500e-02 3.542e-01 1.501e-02 1.500e-02 9.145e-02 1.503e-02 1.502e-02 7.312e-01 3.821e-01 1.501e-02 1.500e-02 1.227e-01 1.501e-02 1.500e-02 3.000e-01 1.501e-02 1.500e-02 1.501e-02 1.500e-02 1.782e-01 1.501e-02 1.500e-02 1.459e-01 1.501e-02 1.500e-02 1.459e-01 1.501e-02 1.500e-02 1.928e-01 1.501e-02 1.500e-02 2.168e-01 1.501e-02 1.500e-02 1.563e-01 1.501e-02 1.500e-02 1.295e-01 1.503e-02 1.501e-02 6.777e-01 2.212e-01 1.501e-02 4.606e-01 1.501e-02 1.500e-02 1.501e-02 1.500e-02 1.501e-02 1.500e-02 1.501e-02 1.500e-02 1.501e-02 1.500e-02 1.501e-02 1.500e-02 1.501e-02 1.500e-02 1.501e-02 1.500e-02 1.500e-02 1.500e-02 1.503e-02 9.288e-01 7.021e-01 6.335e-02 1.500e-02 1.500e-02 1.500e-02 1.500e-02 1.500e-02 1.500e-02 1.500e-02 1.500e-02 1.500e-02 1.500e-02 1.500e-02 1.500e-02 1.500e-02 1.500e-02 1.500e-02 1.500e-02 1.500e-02 1.500e-02 1.500e-02 1.500e-02 1.503e-02 1.501e-02 7.253e-01 3.555e-01 1.500e-02 1.500e-02 1.500e-02 1.500e-02 1.500e-02 1.500e-02 1.500e-02 1.500e-02 1.500e-02 1.500e-02 1.500e-02 1.503e-02 1.501e-02 6.644e-01 2.831e-01 1.500e-02 1.500e-02 1.500e-02 1.500e-02 1.500e-02 1.500e-02 1.500e-02 1.500e-02 1.500e-02 1.500e-02 1.503e-02 1.501e-02 5.300e-01 1.500e-02 1.500e-02 1.500e-02 1.500e-02 1.500e-02 1.500e-02 1.500e-02 1.500e-02 1.503e-02 1.501e-02 6.319e-01 2.843e-01 1.502e-02 1.715e-02 1.477e-01 1.500e-02 1.346e+00 2.713e+01 1.793e+01 1.344e+01 1.075e+01 8.951e+00 7.669e+00 6.063e+00 5.387e+00 4.846e+00 4.404e+00 4.035e+00 3.724e+00 3.088e+00 2.881e+00 2.700e+00 2.541e+00 2.399e+00 2.272e+00 1.900e+00 1.809e+00 1.727e+00 1.651e+00 1.582e+00 1.312e+00 1.262e+00 1.215e+00 1.171e+00 1.131e+00 9.208e-01 8.909e-01 8.630e-01 6.804e-01 6.603e-01 6.414e-01 4.802e-01 4.672e-01 3.190e-01 1.785e-01
           </DataArray>
           <DataArray type="Float32" Name="nitrate/rootSegmentMinimalNutrientContent" NumberOfComponents="1" format="ascii">
 7.324e-03 6.481e-03 7.165e-03 5.028e-03 3.861e-03 3.213e-03 2.588e-03 1.637e-03 8.507e-04 1.958e-01 1.504e-01 1.406e-01 1.646e-01 1.230e-01 1.337e-01 1.443e-01 1.550e-01 1.621e-01 1.639e-01 1.639e-01 1.639e-01 8.193e-02 7.822e-03 7.346e-03 7.092e-03 5.436e-03 3.879e-03 3.682e-03 2.656e-03 1.535e-03 6.942e-04 1.958e-01 1.504e-01 1.406e-01 1.646e-01 1.230e-01 1.337e-01 1.443e-01 1.550e-01 1.621e-01 1.639e-01 1.639e-01 1.639e-01 8.193e-02 7.786e-03 6.108e-03 6.745e-03 5.345e-03 4.668e-03 2.646e-03 2.806e-03 1.788e-03 7.942e-04 1.958e-01 1.504e-01 1.406e-01 1.646e-01 1.230e-01 1.337e-01 1.443e-01 1.550e-01 1.621e-01 1.639e-01 1.639e-01 1.639e-01 8.193e-02 8.753e-03 7.703e-03 6.609e-03 5.481e-03 4.216e-03 2.870e-03 2.357e-03 1.753e-03 8.721e-04 1.958e-01 1.504e-01 1.406e-01 1.646e-01 1.230e-01 1.337e-01 1.443e-01 1.550e-01 1.621e-01 1.639e-01 1.639e-01 1.639e-01 8.193e-02 1.396e-01 1.307e-01 1.733e-01 1.396e-01 1.307e-01 1.733e-01 1.396e-01 1.307e-01 1.733e-01 1.396e-01 1.307e-01 1.733e-01 8.134e+00 3.985e+00 4.604e+00 4.885e+00 4.861e+00 4.816e+00 4.773e+00 4.731e+00 4.378e+00 3.722e+00 5.499e+00 5.985e+00 3.374e-02 3.581e-02 2.552e-02 3.057e-02 3.136e-02 3.130e-02 2.189e-02 3.264e-02 3.287e-02 3.282e-02 9.839e-03 3.329e-02 3.470e-02 2.599e-02 3.203e-02 3.468e-02 2.597e-02 3.042e-02 3.151e-02 3.147e-02 6.289e-03 3.552e-02 3.161e-02 3.157e-02 3.492e-02 3.547e-02 2.067e-02 3.001e-02 3.200e-02 3.195e-02 3.194e-03 3.562e-02 3.573e-02 1.784e-02 3.295e-02 3.427e-02 1.711e-02 3.268e-02 3.529e-02 1.763e-02 3.468e-02 3.060e-02 3.055e-02 1.526e-02 3.283e-02 3.371e-02 1.403e-02 3.203e-02 3.413e-02 1.420e-02 3.451e-02 3.510e-02 2.805e-02 3.235e-02 3.401e-02 1.133e-02 3.224e-02 3.227e-02 8.059e-03 3.313e-02 3.437e-02 8.585e-03 3.322e-02 3.578e-02 8.938e-03 3.567e-02 2.939e-02 2.936e-02 3.330e-02 3.586e-02 2.150e-02 3.379e-02 3.416e-02 2.845e-03 3.232e-02 3.264e-02 3.258e-02 1.953e-02 3.364e-02 3.528e-02 2.938e-03 3.203e-02 3.199e-02 1.278e-02 3.231e-02 3.345e-02 3.508e-02 3.142e-02 6.280e-03 3.554e-02 3.027e-02 3.025e-03 3.447e-02 3.046e-02 3.045e-03 3.080e-02 3.114e-02 6.225e-03 3.117e-02 3.293e-02 6.583e-03 2.946e-02 3.259e-02 6.515e-03 3.069e-02 3.192e-02 3.190e-03 3.581e-02 3.118e-02 3.113e-02 1.244e-02 3.877e-02 2.056e-02 3.329e-02 3.409e-02 3.143e-02 2.217e-02 3.368e-02 1.978e-02 3.690e-02 2.247e-02 3.322e-02 2.101e-02 3.163e-02 2.624e-02 3.026e-02 2.626e-02 3.546e-02 1.503e-02 3.546e-02 1.559e-02 3.351e-02 3.030e-02 3.026e-02 1.209e-02 2.995e-02 1.807e-02 3.223e-02 1.119e-02 3.055e-02 2.016e-02 3.313e-02 1.713e-02 2.958e-02 1.600e-02 3.296e-02 1.342e-02 3.453e-02 1.470e-02 3.179e-02 9.562e-03 3.110e-02 2.693e-03 3.544e-02 3.186e-03 3.081e-02 3.201e-02 3.196e-02 1.597e-02 3.082e-02 2.999e-02 3.066e-02 3.385e-02 3.592e-03 3.452e-02 2.701e-02 2.626e-02 2.965e-02 2.654e-02 2.476e-02 3.274e-02 3.559e-02 3.553e-02 1.775e-02 2.544e-02 1.954e-02 1.852e-02 1.904e-02 1.409e-02 1.586e-02 1.574e-02 1.428e-02 1.314e-02 1.334e-02 3.279e-02 3.338e-02 2.777e-02 1.107e-02 9.034e-03 6.139e-03 5.991e-03 4.722e-03 2.660e-03 2.339e-03 7.969e-04 3.056e-02 3.268e-02 3.263e-02 1.304e-02 3.441e-02 3.562e-02 8.895e-03 1.270e-02 5.236e-01 2.558e-01 2.501e-01 2.445e-01 2.391e-01 2.338e-01 2.288e-01 2.240e-01 2.195e-01 2.151e-01 2.110e-01 2.071e-01 2.033e-01 1.998e-01 1.965e-01 1.934e-01 1.907e-01 1.883e-01 1.862e-01 1.845e-01 1.830e-01 1.815e-01 1.802e-01 1.789e-01 1.777e-01 1.766e-01 1.756e-01 1.746e-01 1.737e-01 1.729e-01 1.722e-01 1.716e-01 1.710e-01 1.705e-01 1.701e-01 1.697e-01 1.695e-01 1.693e-01 1.692e-01
           </DataArray>
           <DataArray type="Float32" Name="nitrate/rootSegmentNutrientUptake" NumberOfComponents="1" format="ascii">