<?xml version="1.0"?>
<VTKFile type="UnstructuredGrid" version="0.1" byte_order="LittleEndian">
   <UnstructuredGrid>
      <Piece NumberOfPoints="90" NumberOfCells="7">
         <Points>
            <DataArray type="Float32" Name="Position" NumberOfComponents="3" format="ascii">
-0.142	-5.000	0.142
-0.031	-5.000	0.198
0.091	-5.000	0.178
0.178	-5.000	0.091
0.198	-5.000	-0.031
0.142	-5.000	-0.142
0.031	-5.000	-0.198
-0.091	-5.000	-0.178
-0.178	-5.000	-0.091
-0.198	-5.000	0.031
-0.141	-4.040	0.143
-0.031	-4.041	0.199
0.091	-4.041	0.179
0.178	-4.041	0.092
0.198	-4.040	-0.030
0.141	-4.040	-0.141
0.031	-4.040	-0.197
-0.091	-4.040	-0.177
-0.178	-4.040	-0.090
-0.197	-4.040	0.032
-0.140	-3.561	0.145
-0.030	-3.561	0.201
0.092	-3.561	0.181
0.180	-3.561	0.094
0.199	-3.560	-0.028
0.142	-3.560	-0.138
0.032	-3.559	-0.194
-0.090	-3.559	-0.175
-0.177	-3.560	-0.087
-0.196	-3.560	0.035
-0.141	-3.001	0.147
-0.030	-3.001	0.203
0.092	-3.001	0.183
0.179	-3.000	0.096
0.198	-3.000	-0.026
0.141	-2.999	-0.136
0.031	-2.999	-0.192
-0.091	-3.000	-0.172
-0.178	-3.000	-0.085
-0.197	-3.001	0.037
0.026	-4.990	-0.036
0.043	-4.993	-0.014
0.043	-4.999	0.014
0.027	-5.005	0.036
0.001	-5.009	0.044
-0.026	-5.010	0.036
-0.043	-5.007	0.014
-0.043	-5.001	-0.014
-0.027	-4.995	-0.036
-0.001	-4.991	-0.044
0.106	-5.905	-0.228
0.123	-5.908	-0.206
0.123	-5.914	-0.179
0.107	-5.920	-0.157
0.081	-5.924	-0.149
0.055	-5.925	-0.157
0.038	-5.921	-0.179
0.037	-5.915	-0.206
0.053	-5.909	-0.228
0.079	-5.905	-0.237
0.142	-6.363	-0.333
0.159	-6.367	-0.311
0.159	-6.373	-0.283
0.143	-6.379	-0.261
0.117	-6.383	-0.253
0.090	-6.383	-0.262
0.073	-6.379	-0.284
0.073	-6.373	-0.311
0.089	-6.367	-0.333
0.115	-6.364	-0.341
0.172	-6.825	-0.429
0.188	-6.828	-0.406
0.188	-6.833	-0.379
0.171	-6.839	-0.357
0.145	-6.842	-0.349
0.119	-6.842	-0.358
0.102	-6.839	-0.381
0.102	-6.834	-0.408
0.119	-6.828	-0.430
0.145	-6.825	-0.438
0.207	-7.288	-0.513
0.223	-7.290	-0.491
0.223	-7.295	-0.463
0.207	-7.301	-0.441
0.180	-7.304	-0.434
0.154	-7.305	-0.443
0.138	-7.302	-0.465
0.138	-7.297	-0.493
0.154	-7.291	-0.514
0.181	-7.288	-0.522
		    </DataArray>
         </Points>
         <Cells>
            <DataArray type="Int32" Name="connectivity" NumberOfComponents="1" format="ascii">
 0 10 1 11 2 12 3 13 4 14 5 15 6 16 7 17 8 18 9 19 0 10
 10 20 11 21 12 22 13 23 14 24 15 25 16 26 17 27 18 28 19 29 10 20
 20 30 21 31 22 32 23 33 24 34 25 35 26 36 27 37 28 38 29 39 20 30
 40 50 41 51 42 52 43 53 44 54 45 55 46 56 47 57 48 58 49 59 40 50
 50 60 51 61 52 62 53 63 54 64 55 65 56 66 57 67 58 68 59 69 50 60
 60 70 61 71 62 72 63 73 64 74 65 75 66 76 67 77 68 78 69 79 60 70
 70 80 71 81 72 82 73 83 74 84 75 85 76 86 77 87 78 88 79 89 70 80

            </DataArray>
            <DataArray type="Int32" Name="offsets" NumberOfComponents="1" format="ascii">
 22 44 66 88 110 132 154
            </DataArray>
            <DataArray type="UInt8"  Name="types" NumberOfComponents="1" format="ascii">
6 6 6 6 6 6 6
            </DataArray>
         </Cells>
         <CellData>
           <DataArray type="Float32" Name="combinedRootClassID" NumberOfComponents="1" format="ascii">
 -2.000e+00 -2.000e+00 -2.000e+00 -4.000e+00 -4.000e+00 -4.000e+00 -4.000e+00
           </DataArray>
           <DataArray type="Float32" Name="nitrate/minimalNutrientConcentration" NumberOfComponents="1" format="ascii">
 6.000e+02 6.000e+02 6.000e+02 6.000e+02 6.000e+02 6.000e+02 6.000e+02
           </DataArray>
           <DataArray type="Float32" Name="nitrate/optimalNutrientConcentration" NumberOfComponents="1" format="ascii">
 1.200e+03 1.200e+03 1.200e+03 1.200e+03 1.200e+03 1.200e+03 1.200e+03
           </DataArray>
           <DataArray type="Float32" Name="nitrate/radiusDepletionZone" NumberOfComponents="1" format="ascii">
 7.163e-01 5.385e-01 5.726e-01 5.612e-01 9.803e-01 5.051e-01 3.788e-01
           </DataArray>
           <DataArray type="Float32" Name="nitrate/rootSegmentMinimalNutrientContent" NumberOfComponents="1" format="ascii">
 6.819e+00 3.403e+00 3.969e+00 3.402e-01 1.695e-01 1.693e-01 1.692e-01
           </DataArray>
           <DataArray type="Float32" Name="nitrate/rootSegmentNutrientUptake" NumberOfComponents="1" format="ascii">
 2.737e-01 6.823e-02 4.395e-02 1.856e-01 7.855e-02 4.519e-02 1.590e-02
           </DataArray>
           <DataArray type="Float32" Name="nitrate/rootSegmentOptimalNutrientContent" NumberOfComponents="1" format="ascii">
 1.364e+01 6.806e+00 7.939e+00 6.803e-01 3.390e-01 3.386e-01 3.384e-01
           </DataArray>
           <DataArray type="Float32" Name="parentRootClassID" NumberOfComponents="1" format="ascii">
 -3.000e+00 -3.000e+00 -3.000e+00 -3.000e+00 -3.000e+00 -3.000e+00 -3.000e+00
           </DataArray>
           <DataArray type="Float32" Name="plantID" NumberOfComponents="1" format="ascii">
 2.000e+00 2.000e+00 2.000e+00 2.000e+00 2.000e+00 2.000e+00 2.000e+00
           </DataArray>
           <DataArray type="Float32" Name="plantTypeID" NumberOfComponents="1" format="ascii">
 0.000e+00 0.000e+00 0.000e+00 0.000e+00 0.000e+00 0.000e+00 0.000e+00
           </DataArray>
           <DataArray type="Float32" Name="rootCircumference" NumberOfComponents="1" format="ascii">
 1.258e+00 1.257e+00 1.257e+00 2.835e-01 2.830e-01 2.829e-01 2.828e-01
           </DataArray>
           <DataArray type="Float32" Name="rootClassID" NumberOfComponents="1" format="ascii">
 -2.000e+00 -2.000e+00 -2.000e+00 -4.000e+00 -4.000e+00 -4.000e+00 -4.000e+00
           </DataArray>
           <DataArray type="Float32" Name="rootDiameter" NumberOfComponents="1" format="ascii">
 4.004e-01 4.001e-01 4.000e-01 9.025e-02 9.009e-02 9.004e-02 9.001e-02
           </DataArray>
           <DataArray type="Float32" Name="rootLength2Base" NumberOfComponents="1" format="ascii">
 0.000e+00 9.600e-01 1.440e+00 0.000e+00 9.428e-01 1.414e+00 1.886e+00
           </DataArray>
           <DataArray type="Float32" Name="rootPotentialSecondaryGrowth" NumberOfComponents="1" format="ascii">
 4.004e-01 4.001e-01 4.000e-01 9.025e-02 9.009e-02 9.004e-02 9.001e-02
           </DataArray>
           <DataArray type="Float32" Name="rootSegmentAge" NumberOfComponents="1" format="ascii">
 1.000e+00 4.000e-01 2.000e-01 1.000e+00 6.000e-01 4.000e-01 2.000e-01
           </DataArray>
           <DataArray type="Float32" Name="rootSegmentDryWeight" NumberOfComponents="1" format="ascii">
 1.136e-02 5.672e-03 6.616e-03 5.669e-04 2.825e-04 2.821e-04 2.820e-04
           </DataArray>
           <DataArray type="Float32" Name="rootSegmentLength" NumberOfComponents="1" format="ascii">
 9.600e-01 4.800e-01 5.600e-01 9.428e-01 4.714e-01 4.714e-01 4.714e-01
           </DataArray>
           <DataArray type="Float32" Name="rootSegmentLengthDuration" NumberOfComponents="1" format="ascii">
 6.387e-01 1.440e-01 5.600e-02 7.542e-01 2.357e-01 1.414e-01 4.714e-02
           </DataArray>
           <DataArray type="Float32" Name="rootSegmentSurfaceArea" NumberOfComponents="1" format="ascii">
 1.208e+00 6.033e-01 7.037e-01 2.673e-01 1.334e-01 1.333e-01 1.333e-01
           </DataArray>
           <DataArray type="Float32" Name="rootSegmentVolume" NumberOfComponents="1" format="ascii">
 1.209e-01 6.034e-02 7.038e-02 6.031e-03 3.005e-03 3.002e-03 3.000e-03
           </DataArray>
           <DataArray type="Float32" Name="spatialRootDensity" NumberOfComponents="1" format="ascii">
 3.376e-01 2.251e-01 0.000e+00 3.438e-01 2.292e-01 0.000e+00 0.000e+00
           </DataArray>
         </CellData>
      </Piece>
   </UnstructuredGrid>
</VTKFile>
