<?xml version="1.0"?>
<VTKFile type="UnstructuredGrid" version="0.1" byte_order="LittleEndian">
   <UnstructuredGrid>
      <Piece NumberOfPoints="2730" NumberOfCells="198">
         <Points>
            <DataArray type="Float32" Name="Position" NumberOfComponents="3" format="ascii">
0.021	-5.016	0.005
0.026	-5.001	0.019
0.021	-4.981	0.025
0.008	-4.965	0.022
-0.008	-4.959	0.011
-0.022	-4.964	-0.004
-0.027	-4.979	-0.018
-0.022	-4.999	-0.024
-0.009	-5.015	-0.021
0.007	-5.021	-0.010
-0.561	-5.374	0.650
-0.556	-5.360	0.664
-0.562	-5.342	0.673
-0.576	-5.326	0.671
-0.593	-5.319	0.661
-0.606	-5.324	0.645
-0.611	-5.339	0.630
-0.605	-5.357	0.622
-0.591	-5.373	0.624
-0.574	-5.379	0.634
-0.969	-5.785	1.093
-0.965	-5.773	1.109
-0.972	-5.756	1.120
-0.987	-5.741	1.120
-1.005	-5.734	1.111
-1.018	-5.738	1.094
-1.021	-5.750	1.078
-1.014	-5.767	1.067
-0.999	-5.782	1.067
-0.982	-5.789	1.076
-1.351	-6.218	1.458
-1.348	-6.207	1.476
-1.356	-6.192	1.488
-1.371	-6.178	1.490
-1.389	-6.171	1.481
-1.401	-6.173	1.464
-1.404	-6.184	1.447
-1.397	-6.200	1.434
-1.381	-6.213	1.433
-1.363	-6.221	1.442
-1.767	-6.789	1.836
-1.764	-6.779	1.854
-1.772	-6.765	1.868
-1.788	-6.752	1.871
-1.806	-6.745	1.862
-1.819	-6.746	1.845
-1.822	-6.756	1.827
-1.813	-6.770	1.814
-1.797	-6.783	1.811
-1.779	-6.791	1.819
-2.072	-7.235	2.095
-2.070	-7.226	2.114
-2.078	-7.213	2.128
-2.094	-7.200	2.131
-2.112	-7.192	2.123
-2.125	-7.194	2.106
-2.128	-7.203	2.087
-2.119	-7.216	2.074
-2.103	-7.229	2.070
-2.085	-7.236	2.078
-2.392	-7.728	2.377
-2.389	-7.719	2.395
-2.398	-7.706	2.410
-2.414	-7.694	2.414
-2.433	-7.687	2.406
-2.446	-7.688	2.390
-2.449	-7.696	2.371
-2.440	-7.709	2.357
-2.424	-7.722	2.353
-2.406	-7.729	2.360
-2.709	-8.280	2.677
-2.706	-8.271	2.696
-2.714	-8.258	2.710
-2.731	-8.247	2.715
-2.749	-8.240	2.708
-2.763	-8.241	2.692
-2.766	-8.250	2.673
-2.758	-8.262	2.659
-2.741	-8.274	2.654
-2.723	-8.281	2.661
-2.869	-8.574	2.838
-2.866	-8.565	2.857
-2.874	-8.553	2.871
-2.890	-8.541	2.876
-2.909	-8.534	2.870
-2.923	-8.536	2.854
-2.926	-8.544	2.835
-2.918	-8.557	2.820
-2.901	-8.568	2.815
-2.883	-8.575	2.822
0.023	-4.989	-0.024
0.022	-4.970	-0.015
0.013	-4.959	0.001
-0.001	-4.960	0.016
-0.016	-4.972	0.025
-0.024	-4.991	0.025
-0.023	-5.010	0.016
-0.014	-5.021	0.001
0.000	-5.020	-0.015
0.015	-5.008	-0.024
0.682	-5.274	0.586
0.683	-5.256	0.597
0.675	-5.246	0.613
0.660	-5.247	0.629
0.645	-5.259	0.637
0.635	-5.277	0.636
0.634	-5.295	0.625
0.642	-5.305	0.608
0.656	-5.305	0.593
0.672	-5.293	0.585
1.148	-5.660	0.997
1.151	-5.644	1.010
1.144	-5.635	1.028
1.130	-5.636	1.043
1.114	-5.647	1.051
1.102	-5.664	1.047
1.098	-5.680	1.034
1.105	-5.690	1.016
1.119	-5.689	1.001
1.136	-5.677	0.994
1.574	-6.066	1.347
1.579	-6.051	1.361
1.573	-6.043	1.380
1.559	-6.045	1.395
1.542	-6.055	1.402
1.529	-6.071	1.398
1.525	-6.086	1.384
1.531	-6.095	1.365
1.545	-6.093	1.350
1.562	-6.082	1.343
2.058	-6.594	1.712
2.063	-6.580	1.726
2.058	-6.572	1.745
2.044	-6.574	1.761
2.027	-6.584	1.767
2.013	-6.599	1.762
2.008	-6.613	1.748
2.014	-6.621	1.729
2.028	-6.619	1.713
2.045	-6.609	1.707
2.404	-7.010	1.975
2.410	-6.996	1.990
2.404	-6.988	2.009
2.390	-6.990	2.024
2.373	-6.999	2.030
2.358	-7.014	2.025
2.353	-7.027	2.010
2.358	-7.035	1.991
2.372	-7.034	1.975
2.390	-7.024	1.969
2.741	-7.487	2.267
2.747	-7.474	2.282
2.742	-7.466	2.301
2.727	-7.467	2.316
2.709	-7.476	2.322
2.695	-7.490	2.316
2.689	-7.503	2.301
2.694	-7.511	2.282
2.708	-7.510	2.267
2.726	-7.501	2.261
3.094	-8.014	2.573
3.100	-8.002	2.588
3.095	-7.994	2.607
3.081	-7.995	2.622
3.063	-8.004	2.628
3.048	-8.018	2.622
3.041	-8.030	2.607
3.046	-8.038	2.588
3.061	-8.037	2.572
3.079	-8.028	2.567
3.279	-8.299	2.724
3.285	-8.286	2.740
3.280	-8.279	2.759
3.266	-8.281	2.774
3.248	-8.289	2.780
3.233	-8.302	2.774
3.226	-8.315	2.758
3.231	-8.322	2.739
3.246	-8.321	2.723
3.264	-8.312	2.718
-0.007	-4.963	-0.019
0.008	-4.958	-0.006
0.021	-4.965	0.009
0.025	-4.981	0.022
0.019	-5.001	0.026
0.006	-5.017	0.021
-0.009	-5.022	0.008
-0.022	-5.015	-0.008
-0.026	-4.999	-0.021
-0.020	-4.979	-0.025
0.626	-5.275	-0.647
0.642	-5.270	-0.634
0.653	-5.277	-0.618
0.656	-5.293	-0.605
0.650	-5.312	-0.600
0.635	-5.327	-0.604
0.619	-5.332	-0.617
0.607	-5.325	-0.633
0.604	-5.309	-0.646
0.611	-5.290	-0.651
1.066	-5.634	-1.115
1.082	-5.631	-1.102
1.094	-5.638	-1.086
1.095	-5.653	-1.072
1.086	-5.671	-1.066
1.071	-5.685	-1.069
1.054	-5.689	-1.081
1.043	-5.681	-1.098
1.041	-5.666	-1.112
1.050	-5.648	-1.118
1.453	-6.006	-1.546
1.470	-6.003	-1.534
1.481	-6.011	-1.518
1.482	-6.026	-1.503
1.471	-6.043	-1.495
1.454	-6.054	-1.498
1.437	-6.057	-1.509
1.426	-6.049	-1.526
1.425	-6.034	-1.540
1.436	-6.018	-1.548
1.810	-6.536	-2.036
1.828	-6.535	-2.025
1.838	-6.544	-2.008
1.837	-6.558	-1.993
1.825	-6.573	-1.984
1.806	-6.582	-1.986
1.788	-6.583	-1.997
1.778	-6.575	-2.013
1.779	-6.561	-2.028
1.791	-6.546	-2.037
2.035	-6.962	-2.395
2.053	-6.962	-2.384
2.063	-6.970	-2.367
2.062	-6.984	-2.352
2.049	-6.999	-2.343
2.031	-7.008	-2.344
2.013	-7.008	-2.355
2.002	-7.000	-2.372
2.004	-6.986	-2.387
2.017	-6.972	-2.396
2.295	-7.418	-2.785
2.313	-7.417	-2.774
2.322	-7.425	-2.757
2.320	-7.439	-2.741
2.307	-7.453	-2.732
2.288	-7.462	-2.734
2.271	-7.463	-2.745
2.261	-7.454	-2.762
2.263	-7.441	-2.778
2.276	-7.427	-2.787
2.569	-7.939	-3.176
2.586	-7.939	-3.164
2.595	-7.947	-3.147
2.592	-7.960	-3.131
2.578	-7.973	-3.122
2.559	-7.981	-3.123
2.541	-7.981	-3.135
2.532	-7.973	-3.152
2.535	-7.960	-3.168
2.549	-7.947	-3.177
2.697	-8.225	-3.376
2.715	-8.226	-3.364
2.723	-8.234	-3.347
2.720	-8.247	-3.330
2.706	-8.259	-3.321
2.686	-8.267	-3.323
2.669	-8.266	-3.335
2.660	-8.258	-3.352
2.664	-8.245	-3.368
2.678	-8.233	-3.377
-0.021	-4.996	0.027
-0.023	-4.976	0.022
-0.017	-4.961	0.008
-0.005	-4.958	-0.008
0.009	-4.966	-0.021
0.020	-4.984	-0.026
0.022	-5.004	-0.020
0.016	-5.019	-0.007
0.004	-5.023	0.010
-0.010	-5.014	0.023
-0.711	-5.255	-0.560
-0.716	-5.235	-0.566
-0.713	-5.220	-0.579
-0.701	-5.214	-0.596
-0.687	-5.221	-0.610
-0.674	-5.237	-0.614
-0.668	-5.256	-0.609
-0.672	-5.272	-0.595
-0.683	-5.277	-0.578
-0.698	-5.271	-0.565
-1.200	-5.605	-0.976
-1.211	-5.588	-0.980
-1.213	-5.571	-0.992
-1.205	-5.562	-1.009
-1.191	-5.563	-1.024
-1.175	-5.575	-1.032
-1.163	-5.592	-1.028
-1.161	-5.609	-1.015
-1.169	-5.618	-0.998
-1.184	-5.617	-0.983
-1.598	-6.001	-1.369
-1.612	-5.985	-1.372
-1.616	-5.969	-1.385
-1.610	-5.959	-1.403
-1.596	-5.959	-1.418
-1.578	-5.968	-1.425
-1.564	-5.983	-1.421
-1.560	-5.999	-1.408
-1.566	-6.009	-1.391
-1.580	-6.010	-1.376
-2.011	-6.535	-1.800
-2.027	-6.522	-1.802
-2.035	-6.507	-1.815
-2.032	-6.496	-1.832
-2.018	-6.493	-1.848
-2.000	-6.499	-1.856
-1.984	-6.513	-1.854
-1.977	-6.528	-1.842
-1.980	-6.539	-1.824
-1.993	-6.542	-1.808
-2.292	-6.965	-2.111
-2.308	-6.952	-2.113
-2.317	-6.938	-2.125
-2.315	-6.926	-2.143
-2.302	-6.923	-2.159
-2.284	-6.928	-2.168
-2.267	-6.941	-2.166
-2.258	-6.955	-2.154
-2.261	-6.967	-2.137
-2.273	-6.970	-2.120
-2.598	-7.427	-2.454
-2.615	-7.414	-2.457
-2.623	-7.400	-2.470
-2.620	-7.390	-2.488
-2.607	-7.387	-2.504
-2.589	-7.392	-2.512
-2.572	-7.405	-2.509
-2.563	-7.419	-2.496
-2.566	-7.430	-2.478
-2.579	-7.433	-2.462
-2.908	-7.959	-2.794
-2.925	-7.947	-2.798
-2.934	-7.933	-2.812
-2.930	-7.924	-2.830
-2.917	-7.921	-2.846
-2.898	-7.927	-2.853
-2.881	-7.939	-2.849
-2.873	-7.952	-2.835
-2.876	-7.962	-2.817
-2.889	-7.964	-2.801
-3.034	-8.230	-3.023
-3.025	-8.243	-3.009
-3.028	-8.253	-2.991
-3.041	-8.255	-2.975
-3.060	-8.249	-2.968
-3.077	-8.238	-2.972
-3.086	-8.225	-2.986
-3.083	-8.215	-3.004
-3.070	-8.213	-3.020
-3.051	-8.219	-3.028
0.001	-4.678	-0.022
0.001	-4.667	-0.004
0.001	-4.669	0.017
-0.001	-4.683	0.032
-0.003	-4.704	0.037
-0.005	-4.723	0.028
-0.006	-4.733	0.010
-0.005	-4.731	-0.011
-0.003	-4.717	-0.027
-0.001	-4.697	-0.031
0.439	-4.723	-0.016
0.439	-4.712	0.003
0.439	-4.714	0.024
0.437	-4.728	0.039
0.435	-4.749	0.044
0.433	-4.768	0.035
0.432	-4.778	0.017
0.433	-4.776	-0.004
0.435	-4.762	-0.020
0.437	-4.742	-0.024
-0.025	-4.675	0.001
-0.006	-4.666	0.000
0.014	-4.671	0.000
0.029	-4.686	0.001
0.031	-4.707	0.003
0.021	-4.725	0.005
0.002	-4.734	0.006
-0.019	-4.730	0.006
-0.033	-4.714	0.004
-0.036	-4.693	0.003
-0.029	-4.712	-0.437
-0.010	-4.704	-0.438
0.011	-4.708	-0.438
0.025	-4.723	-0.437
0.027	-4.744	-0.435
0.017	-4.762	-0.434
-0.002	-4.771	-0.433
-0.023	-4.767	-0.433
-0.037	-4.751	-0.434
-0.039	-4.731	-0.436
0.001	-4.726	0.025
-0.001	-4.708	0.036
-0.003	-4.687	0.034
-0.006	-4.671	0.021
-0.007	-4.667	0.000
-0.006	-4.674	-0.019
-0.004	-4.692	-0.030
-0.001	-4.713	-0.029
0.001	-4.729	-0.015
0.002	-4.734	0.005
-0.435	-4.782	0.031
-0.437	-4.765	0.042
-0.440	-4.744	0.041
-0.442	-4.728	0.027
-0.443	-4.723	0.007
-0.442	-4.731	-0.013
-0.440	-4.749	-0.024
-0.437	-4.770	-0.022
-0.435	-4.785	-0.008
-0.434	-4.790	0.012
0.023	-4.723	0.000
0.032	-4.703	0.002
0.027	-4.683	0.004
0.012	-4.669	0.005
-0.009	-4.667	0.006
-0.028	-4.678	0.006
-0.036	-4.697	0.004
-0.032	-4.717	0.002
-0.016	-4.731	0.000
0.005	-4.733	-0.000
0.036	-4.764	0.438
0.045	-4.744	0.440
0.040	-4.724	0.442
0.025	-4.710	0.443
0.004	-4.708	0.444
-0.014	-4.719	0.444
-0.023	-4.738	0.442
-0.018	-4.758	0.440
-0.003	-4.772	0.438
0.018	-4.774	0.438
-0.152	-5.000	0.152
-0.034	-5.000	0.212
0.098	-5.000	0.191
0.192	-5.000	0.097
0.212	-5.000	-0.034
0.152	-5.000	-0.152
0.034	-5.000	-0.212
-0.098	-5.000	-0.191
-0.192	-5.000	-0.097
-0.212	-5.000	0.034
-0.150	-4.040	0.151
-0.033	-4.041	0.210
0.096	-4.041	0.190
0.189	-4.041	0.097
0.209	-4.040	-0.032
0.150	-4.040	-0.149
0.033	-4.040	-0.208
-0.096	-4.039	-0.188
-0.189	-4.040	-0.095
-0.209	-4.040	0.034
-0.148	-3.561	0.153
-0.031	-3.561	0.212
0.097	-3.561	0.191
0.189	-3.561	0.099
0.210	-3.560	-0.030
0.150	-3.560	-0.146
0.034	-3.559	-0.205
-0.095	-3.559	-0.185
-0.187	-3.560	-0.092
-0.207	-3.560	0.037
-0.148	-3.001	0.154
-0.032	-3.001	0.213
0.096	-3.000	0.192
0.188	-3.000	0.100
0.208	-2.999	-0.028
0.148	-2.999	-0.143
0.033	-2.999	-0.202
-0.096	-3.000	-0.181
-0.187	-3.000	-0.089
-0.207	-3.001	0.039
-0.150	-2.401	0.155
-0.034	-2.401	0.213
0.093	-2.400	0.192
0.184	-2.400	0.101
0.204	-2.399	-0.027
0.145	-2.399	-0.142
[...]
         <CellData>
           <DataArray type="Float32" Name="combinedRootClassID" NumberOfComponents="1" format="ascii">
 -5.000e+00 -5.000e+00 -5.000e+00 -5.000e+00 -5.000e+00 -5.000e+00 -5.000e+00 -5.000e+00 -5.000e+00 -5.000e+00 -5.000e+00 -5.000e+00 -5.000e+00 -5.000e+00 -5.000e+00 -5.000e+00 -5.000e+00 -5.000e+00 -5.000e+00 -5.000e+00 -5.000e+00 -5.000e+00 -5.000e+00 -5.000e+00 -5.000e+00 -5.000e+00 -5.000e+00 -5.000e+00 -5.000e+00 -5.000e+00 -5.000e+00 -5.000e+00 -9.000e+00 -9.000e+00 -9.000e+00 -9.000e+00 -2.000e+00 -2.000e+00 -2.000e+00 -2.000e+00 -2.000e+00 -2.000e+00 -2.000e+00 -2.000e+00 -2.000e+00 -2.000e+00 -2.000e+00 -2.000e+00 -7.000e+00 -7.000e+00 -7.000e+00 -7.000e+00 -7.000e+00 -7.000e+00 -7.000e+00 -7.000e+00 -7.000e+00 -7.000e+00 -7.000e+00 -7.000e+00 -7.000e+00 -7.000e+00 -7.000e+00 -7.000e+00 -7.000e+00 -7.000e+00 -7.000e+00 -7.000e+00 -7.000e+00 -7.000e+00 -7.000e+00 -7.000e+00 -7.000e+00 -7.000e+00 -7.000e+00 -7.000e+00 -7.000e+00 -7.000e+00 -7.000e+00 -7.000e+00 -7.000e+00 -7.000e+00 -7.000e+00 -7.000e+00 -7.000e+00 -7.000e+00 -7.000e+00 -7.000e+00 -7.000e+00 -7.000e+00 -7.000e+00 -7.000e+00 -7.000e+00 -7.000e+00 -7.000e+00 -7.000e+00 -7.000e+00 -7.000e+00 -7.000e+00 -7.000e+00 -7.000e+00 -7.000e+00 -7.000e+00 -7.000e+00 -7.000e+00 -7.000e+00 -7.000e+00 -7.000e+00 -7.000e+00 -7.000e+00 -7.000e+00 -7.000e+00 -7.000e+00 -7.000e+00 -7.000e+00 -7.000e+00 -7.000e+00 -7.000e+00 -7.000e+00 -7.000e+00 -7.000e+00 -7.000e+00 -7.000e+00 -7.000e+00 -7.000e+00 -7.000e+00 -7.000e+00 -7.000e+00 -7.000e+00 -7.000e+00 -7.000e+00 -7.000e+00 -7.000e+00 -7.000e+00 -7.000e+00 -7.000e+00 -7.000e+00 -7.000e+00 -7.000e+00 -7.000e+00 -7.000e+00 -7.000e+00 -7.000e+00 -7.000e+00 -7.000e+00 -7.000e+00 -7.000e+00 -7.000e+00 -7.000e+00 -7.000e+00 -7.000e+00 -7.000e+00 -7.000e+00 -7.000e+00 -7.000e+00 -7.000e+00 -7.000e+00 -7.000e+00 -7.000e+00 -7.000e+00 -7.000e+00 -7.000e+00 -7.000e+00 -1.100e+01 -4.000e+00 -4.000e+00 -4.000e+00 -4.000e+00 -4.000e+00 -4.000e+00 -4.000e+00 -4.000e+00 -4.000e+00 -4.000e+00 -4.000e+00 -4.000e+00 -4.000e+00 -4.000e+00 -4.000e+00 -4.000e+00 -4.000e+00 -4.000e+00 -4.000e+00 -4.000e+00 -4.000e+00 -4.000e+00 -4.000e+00 -4.000e+00 -4.000e+00 -4.000e+00 -4.000e+00 -4.000e+00 -4.000e+00 -4.000e+00 -4.000e+00 -4.000e+00 -4.000e+00 -4.000e+00
           </DataArray>
           <DataArray type="Float32" Name="nitrate/minimalNutrientConcentration" NumberOfComponents="1" format="ascii">
 6.000e+02 6.000e+02 6.000e+02 6.000e+02 6.000e+02 6.000e+02 6.000e+02 6.000e+02 6.000e+02 6.000e+02 6.000e+02 6.000e+02 6.000e+02 6.000e+02 6.000e+02 6.000e+02 6.000e+02 6.000e+02 6.000e+02 6.000e+02 6.000e+02 6.000e+02 6.000e+02 6.000e+02 6.000e+02 6.000e+02 6.000e+02 6.000e+02 6.000e+02 6.000e+02 6.000e+02 6.000e+02 6.000e+02 6.000e+02 6.000e+02 6.000e+02 6.000e+02 6.000e+02 6.000e+02 6.000e+02 6.000e+02 6.000e+02 6.000e+02 6.000e+02 6.000e+02 6.000e+02 6.000e+02 6.000e+02 6.000e+02 6.000e+02 6.000e+02 6.000e+02 6.000e+02 6.000e+02 6.000e+02 6.000e+02 6.000e+02 6.000e+02 6.000e+02 6.000e+02 6.000e+02 6.000e+02 6.000e+02 6.000e+02 6.000e+02 6.000e+02 6.000e+02 6.000e+02 6.000e+02 6.000e+02 6.000e+02 6.000e+02 6.000e+02 6.000e+02 6.000e+02 6.000e+02 6.000e+02 6.000e+02 6.000e+02 6.000e+02 6.000e+02 6.000e+02 6.000e+02 6.000e+02 6.000e+02 6.000e+02 6.000e+02 6.000e+02 6.000e+02 6.000e+02 6.000e+02 6.000e+02 6.000e+02 6.000e+02 6.000e+02 6.000e+02 6.000e+02 6.000e+02 6.000e+02 6.000e+02 6.000e+02 6.000e+02 6.000e+02 6.000e+02 6.000e+02 6.000e+02 6.000e+02 6.000e+02 6.000e+02 6.000e+02 6.000e+02 6.000e+02 6.000e+02 6.000e+02 6.000e+02 6.000e+02 6.000e+02 6.000e+02 6.000e+02 6.000e+02 6.000e+02 6.000e+02 6.000e+02 6.000e+02 6.000e+02 6.000e+02 6.000e+02 6.000e+02 6.000e+02 6.000e+02 6.000e+02 6.000e+02 6.000e+02 6.000e+02 6.000e+02 6.000e+02 6.000e+02 6.000e+02 6.000e+02 6.000e+02 6.000e+02 6.000e+02 6.000e+02 6.000e+02 6.000e+02 6.000e+02 6.000e+02 6.000e+02 6.000e+02 6.000e+02 6.000e+02 6.000e+02 6.000e+02 6.000e+02 6.000e+02 6.000e+02 6.000e+02 6.000e+02 6.000e+02 6.000e+02 6.000e+02 6.000e+02 6.000e+02 6.000e+02 6.000e+02 6.000e+02 6.000e+02 6.000e+02 6.000e+02 6.000e+02 6.000e+02 6.000e+02 6.000e+02 6.000e+02 6.000e+02 6.000e+02 6.000e+02 6.000e+02 6.000e+02 6.000e+02 6.000e+02 6.000e+02 6.000e+02 6.000e+02 6.000e+02 6.000e+02 6.000e+02 6.000e+02 6.000e+02 6.000e+02 6.000e+02 6.000e+02 6.000e+02 6.000e+02 6.000e+02 6.000e+02 6.000e+02 6.000e+02
           </DataArray>
           <DataArray type="Float32" Name="nitrate/optimalNutrientConcentration" NumberOfComponents="1" format="ascii">
 1.200e+03 1.200e+03 1.200e+03 1.200e+03 1.200e+03 1.200e+03 1.200e+03 1.200e+03 1.200e+03 1.200e+03 1.200e+03 1.200e+03 1.200e+03 1.200e+03 1.200e+03 1.200e+03 1.200e+03 1.200e+03 1.200e+03 1.200e+03 1.200e+03 1.200e+03 1.200e+03 1.200e+03 1.200e+03 1.200e+03 1.200e+03 1.200e+03 1.200e+03 1.200e+03 1.200e+03 1.200e+03 1.200e+03 1.200e+03 1.200e+03 1.200e+03 1.200e+03 1.200e+03 1.200e+03 1.200e+03 1.200e+03 1.200e+03 1.200e+03 1.200e+03 1.200e+03 1.200e+03 1.200e+03 1.200e+03 1.200e+03 1.200e+03 1.200e+03 1.200e+03 1.200e+03 1.200e+03 1.200e+03 1.200e+03 1.200e+03 1.200e+03 1.200e+03 1.200e+03 1.200e+03 1.200e+03 1.200e+03 1.200e+03 1.200e+03 1.200e+03 1.200e+03 1.200e+03 1.200e+03 1.200e+03 1.200e+03 1.200e+03 1.200e+03 1.200e+03 1.200e+03 1.200e+03 1.200e+03 1.200e+03 1.200e+03 1.200e+03 1.200e+03 1.200e+03 1.200e+03 1.200e+03 1.200e+03 1.200e+03 1.200e+03 1.200e+03 1.200e+03 1.200e+03 1.200e+03 1.200e+03 1.200e+03 1.200e+03 1.200e+03 1.200e+03 1.200e+03 1.200e+03 1.200e+03 1.200e+03 1.200e+03 1.200e+03 1.200e+03 1.200e+03 1.200e+03 1.200e+03 1.200e+03 1.200e+03 1.200e+03 1.200e+03 1.200e+03 1.200e+03 1.200e+03 1.200e+03 1.200e+03 1.200e+03 1.200e+03 1.200e+03 1.200e+03 1.200e+03 1.200e+03 1.200e+03 1.200e+03 1.200e+03 1.200e+03 1.200e+03 1.200e+03 1.200e+03 1.200e+03 1.200e+03 1.200e+03 1.200e+03 1.200e+03 1.200e+03 1.200e+03 1.200e+03 1.200e+03 1.200e+03 1.200e+03 1.200e+03 1.200e+03 1.200e+03 1.200e+03 1.200e+03 1.200e+03 1.200e+03 1.200e+03 1.200e+03 1.200e+03 1.200e+03 1.200e+03 1.200e+03 1.200e+03 1.200e+03 1.200e+03 1.200e+03 1.200e+03 1.200e+03 1.200e+03 1.200e+03 1.200e+03 1.200e+03 1.200e+03 1.200e+03 1.200e+03 1.200e+03 1.200e+03 1.200e+03 1.200e+03 1.200e+03 1.200e+03 1.200e+03 1.200e+03 1.200e+03 1.200e+03 1.200e+03 1.200e+03 1.200e+03 1.200e+03 1.200e+03 1.200e+03 1.200e+03 1.200e+03 1.200e+03 1.200e+03 1.200e+03 1.200e+03 1.200e+03 1.200e+03 1.200e+03 1.200e+03 1.200e+03 1.200e+03 1.200e+03 1.200e+03 1.200e+03 1.200e+03 1.200e+03
           </DataArray>
           <DataArray type="Float32" Name="nitrate/radiusDepletionZone" NumberOfComponents="1" format="ascii">
 3.401e-02 3.400e-02 6.756e-01 6.418e-01 4.679e-01 4.535e-01 3.051e-01 1.654e-01 3.401e-02 3.400e-02 6.719e-01 6.418e-01 4.679e-01 4.535e-01 3.051e-01 1.654e-01 3.401e-02 3.400e-02 6.756e-01 6.418e-01 4.679e-01 4.535e-01 3.051e-01 1.654e-01 3.401e-02 3.400e-02 6.756e-01 6.418e-01 4.679e-01 4.535e-01 3.051e-01 1.654e-01 3.400e-02 3.400e-02 3.400e-02 3.400e-02 1.633e+00 3.897e+00 1.426e+01 1.050e+01 8.742e+00 7.490e+00 6.550e+00 5.820e+00 4.784e+00 2.043e-01 2.039e-01 2.032e-01 1.502e-02 1.500e-02 1.502e-02 1.501e-02 3.929e-01 1.501e-02 1.500e-02 2.735e-01 1.501e-02 1.500e-02 1.501e-02 1.500e-02 1.501e-02 1.500e-02 1.375e-01 1.501e-02 1.500e-02 1.501e-02 1.500e-02 1.501e-02 1.500e-02 1.461e-01 1.501e-02 1.500e-02 1.501e-02 1.500e-02 1.501e-02 1.500e-02 1.502e-02 1.500e-02 3.647e-01 1.501e-02 1.500e-02 1.501e-02 1.500e-02 1.501e-02 1.500e-02 1.501e-02 1.500e-02 1.501e-02 1.500e-02 1.500e-02 1.500e-02 1.500e-02 1.500e-02 1.500e-02 1.500e-02 1.500e-02 1.500e-02 1.500e-02 1.500e-02 1.501e-02 1.500e-02 3.904e-01 1.500e-02 1.500e-02 1.500e-02 1.500e-02 1.500e-02 1.500e-02 1.500e-02 1.500e-02 1.500e-02 1.500e-02 1.500e-02 1.500e-02 1.500e-02 1.500e-02 1.500e-02 1.500e-02 1.500e-02 1.500e-02 1.500e-02 1.500e-02 1.501e-02 1.500e-02 3.044e-01 1.500e-02 1.500e-02 1.500e-02 1.500e-02 1.500e-02 1.500e-02 1.500e-02 1.500e-02 1.500e-02 1.500e-02 1.501e-02 8.127e-01 3.351e-01 1.500e-02 1.500e-02 1.500e-02 1.500e-02 1.500e-02 1.500e-02 1.500e-02 1.500e-02 1.500e-02 1.500e-02 1.501e-02 1.500e-02 3.800e-01 1.500e-02 1.500e-02 1.500e-02 1.500e-02 1.501e-02 1.500e-02 3.459e-01 1.501e-02 1.500e-02 1.501e-02 1.500e-02 3.143e-01 1.500e-02 1.343e+00 2.217e+01 1.415e+01 1.061e+01 8.481e+00 7.065e+00 6.053e+00 5.295e+00 4.203e+00 3.781e+00 3.436e+00 3.149e+00 2.906e+00 2.698e+00 2.217e+00 2.078e+00 1.955e+00 1.846e+00 1.749e+00 1.435e+00 1.367e+00 1.304e+00 1.248e+00 1.195e+00 9.668e-01 9.295e-01 8.950e-01 7.016e-01 6.774e-01 6.547e-01 4.879e-01 4.726e-01 3.214e-01 1.792e-01
           </DataArray>
           <DataArray type="Float32" Name="nitrate/rootSegmentMinimalNutrientContent" NumberOfComponents="1" format="ascii">
 1.945e-01 1.502e-01 1.406e-01 1.646e-01 1.230e-01 1.337e-01 1.443e-01 7.615e-02 1.945e-01 1.502e-01 1.406e-01 1.646e-01 1.230e-01 1.337e-01 1.443e-01 7.615e-02 1.945e-01 1.502e-01 1.406e-01 1.646e-01 1.230e-01 1.337e-01 1.443e-01 7.615e-02 1.945e-01 1.502e-01 1.406e-01 1.646e-01 1.230e-01 1.337e-01 1.443e-01 7.615e-02 9.025e-02 9.025e-02 9.025e-02 9.025e-02 7.745e+00 3.818e+00 4.416e+00 4.691e+00 4.653e+00 4.616e+00 4.582e+00 4.548e+00 4.216e+00 3.590e+00 5.354e+00 5.898e+00 3.365e-02 3.575e-02 3.049e-02 3.130e-02 2.189e-02 3.256e-02 3.282e-02 9.839e-03 3.321e-02 3.177e-02 3.196e-02 3.175e-02 3.035e-02 3.147e-02 6.289e-03 3.544e-02 3.157e-02 3.485e-02 2.657e-02 2.995e-02 3.195e-02 3.194e-03 3.555e-02 2.379e-02 3.288e-02 2.282e-02 3.262e-02 2.350e-02 3.459e-02 3.055e-02 1.526e-02 3.277e-02 1.964e-02 3.197e-02 1.989e-02 3.445e-02 2.805e-02 3.229e-02 1.699e-02 3.218e-02 1.343e-02 3.307e-02 1.431e-02 3.316e-02 1.490e-02 3.561e-02 2.202e-02 3.324e-02 2.150e-02 3.373e-02 8.536e-03 3.224e-02 3.258e-02 1.953e-02 3.358e-02 8.814e-03 3.198e-02 1.278e-02 3.226e-02 5.571e-03 3.503e-02 6.280e-03 3.549e-02 3.025e-03 3.442e-02 3.045e-03 3.075e-02 6.225e-03 3.112e-02 6.583e-03 2.942e-02 6.515e-03 3.065e-02 3.190e-03 3.572e-02 3.113e-02 1.244e-02 2.991e-02 3.325e-02 2.585e-02 2.516e-02 2.722e-02 2.418e-02 2.504e-02 2.366e-02 2.039e-02 1.984e-02 3.343e-02 3.026e-02 1.209e-02 1.788e-02 1.542e-02 1.709e-02 1.597e-02 1.356e-02 1.280e-02 1.246e-02 9.453e-03 6.844e-03 6.746e-03 3.074e-02 3.196e-02 1.597e-02 4.459e-03 3.374e-03 2.386e-03 1.509e-03 3.266e-02 3.553e-02 1.775e-02 3.271e-02 3.333e-02 3.049e-02 3.263e-02 1.304e-02 3.430e-02 4.678e-01 2.288e-01 2.240e-01 2.195e-01 2.151e-01 2.110e-01 2.071e-01 2.033e-01 1.998e-01 1.965e-01 1.934e-01 1.907e-01 1.883e-01 1.862e-01 1.845e-01 1.830e-01 1.815e-01 1.802e-01 1.789e-01 1.777e-01 1.766e-01 1.756e-01 1.746e-01 1.737e-01 1.729e-01 1.722e-01 1.716e-01 1.710e-01 1.705e-01 1.701e-01 1.697e-01 1.695e-01 1.693e-01 1.692e-01
           </DataArray>
           <DataArray type="Float32" Name="nitrate/rootSegmentNutrientUptake" NumberOfComponents="1" format="ascii">
 0.000e+00 0.000e+00 1.851e-01 1.708e-01 1.002e-01 7.669e-02 4.241e-02 3.933e-03 0.000e+00 0.000e+00 1.755e-01 1.697e-01 9.871e-02 7.593e-02 4.203e-02 3.931e-03 0.000e+00 0.000e+00 1.834e-01 1.690e-01 9.858e-02 7.585e-02 4.194e-02 3.930e-03 0.000e+00 0.000e+00 1.833e-01 1.686e-01 9.832e-02 7.568e-02 4.188e-02 3.930e-03 0.000e+00 0.000e+00 0.000e+00 0.000e+00 4.520e+00 1.543e+00 3.541e+00 3.972e+00 4.963e+00 2.860e+00 2.959e+00 2.113e+01 7.098e+00 0.000e+00 0.000e+00 0.000e+00 0.000e+00 0.000e+00 0.000e+00 0.000e+00 3.105e-02 0.000e+00 0.000e+00 5.827e-03 0.000e+00 0.000e+00 0.000e+00 0.000e+00 0.000e+00 0.000e+00 2.179e-03 0.000e+00 0.000e+00 0.000e+00 0.000e+00 0.000e+00 0.000e+00 4.312e-04 0.000e+00 0.000e+00 0.000e+00 0.000e+00 0.000e+00 0.000e+00 0.000e+00 0.000e+00 1.425e-02 0.000e+00 0.000e+00 0.000e+00 0.000e+00 0.000e+00 0.000e+00 0.000e+00 0.000e+00 0.000e+00 0.000e+00 0.000e+00 0.000e+00 0.000e+00 0.000e+00 0.000e+00 0.000e+00 0.000e+00 0.000e+00 0.000e+00 0.000e+00 0.000e+00 0.000e+00 2.147e-02 0.000e+00 0.000e+00 0.000e+00 0.000e+00 0.000e+00 0.000e+00 0.000e+00 0.000e+00 0.000e+00 0.000e+00 0.000e+00 0.000e+00 0.000e+00 0.000e+00 0.000e+00 0.000e+00 0.000e+00 0.000e+00 0.000e+00 0.000e+00 0.000e+00 0.000e+00 9.784e-03 0.000e+00 0.000e+00 0.000e+00 0.000e+00 0.000e+00 0.000e+00 0.000e+00 0.000e+00 0.000e+00 0.000e+00 0.000e+00 7.467e-02 8.381e-03 0.000e+00 0.000e+00 0.000e+00 0.000e+00 0.000e+00 0.000e+00 0.000e+00 0.000e+00 0.000e+00 0.000e+00 0.000e+00 0.000e+00 1.464e-02 0.000e+00 0.000e+00 0.000e+00 0.000e+00 0.000e+00 0.000e+00 1.857e-02 0.000e+00 0.000e+00 0.000e+00 0.000e+00 1.080e-02 0.000e+00 1.172e+00 6.891e-01 6.076e-01 6.067e-01 6.043e-01 6.030e-01 6.027e-01 5.977e-01 5.907e-01 5.853e-01 5.805e-01 5.703e-01 5.622e-01 5.511e-01 5.386e-01 5.257e-01 5.142e-01 5.010e-01 4.863e-01 4.691e-01 4.509e-01 4.257e-01 3.937e-01 3.597e-01 3.281e-01 2.944e-01 2.626e-01 2.297e-01 1.971e-01 1.637e-01 1.300e-01 9.475e-02 5.748e-02 1.625e-02
           </DataArray>
           <DataArray type="Float32" Name="nitrate/rootSegmentOptimalNutrientContent" NumberOfComponents="1" format="ascii">
 3.889e-01 3.003e-01 2.812e-01 3.291e-01 2.460e-01 2.673e-01 2.886e-01 1.523e-01 3.889e-01 3.003e-01 2.812e-01 3.291e-01 2.460e-01 2.673e-01 2.886e-01 1.523e-01 3.889e-01 3.003e-01 2.812e-01 3.291e-01 2.460e-01 2.673e-01 2.886e-01 1.523e-01 3.889e-01 3.003e-01 2.812e-01 3.291e-01 2.460e-01 2.673e-01 2.886e-01 1.523e-01 1.805e-01 1.805e-01 1.805e-01 1.805e-01 1.549e+01 7.636e+00 8.831e+00 9.382e+00 9.306e+00 9.233e+00 9.163e+00 9.097e+00 8.432e+00 7.181e+00 1.071e+01 1.180e+01 6.730e-02 7.150e-02 6.099e-02 6.260e-02 4.378e-02 6.512e-02 6.564e-02 1.968e-02 6.642e-02 6.353e-02 6.392e-02 6.349e-02 6.071e-02 6.293e-02 1.258e-02 7.089e-02 6.315e-02 6.970e-02 5.315e-02 5.989e-02 6.391e-02 6.387e-03 7.110e-02 4.759e-02 6.576e-02 4.564e-02 6.523e-02 4.701e-02 6.917e-02 6.109e-02 3.052e-02 6.554e-02 3.929e-02 6.394e-02 3.978e-02 6.889e-02 5.609e-02 6.459e-02 3.398e-02 6.437e-02 2.687e-02 6.613e-02 2.862e-02 6.632e-02 2.980e-02 7.121e-02 4.404e-02 6.648e-02 4.300e-02 6.746e-02 1.707e-02 6.447e-02 6.517e-02 3.906e-02 6.716e-02 1.763e-02 6.395e-02 2.557e-02 6.452e-02 1.114e-02 7.006e-02 1.256e-02 7.098e-02 6.050e-03 6.885e-02 6.089e-03 6.151e-02 1.245e-02 6.225e-02 1.317e-02 5.883e-02 1.303e-02 6.130e-02 6.380e-03 7.144e-02 6.227e-02 2.489e-02 5.981e-02 6.649e-02 5.171e-02 5.032e-02 5.445e-02 4.836e-02 5.008e-02 4.732e-02 4.078e-02 3.967e-02 6.685e-02 6.051e-02 2.419e-02 3.575e-02 3.083e-02 3.418e-02 3.195e-02 2.712e-02 2.560e-02 2.491e-02 1.891e-02 1.369e-02 1.349e-02 6.148e-02 6.392e-02 3.193e-02 8.918e-03 6.749e-03 4.772e-03 3.018e-03 6.532e-02 7.105e-02 3.550e-02 6.542e-02 6.667e-02 6.097e-02 6.525e-02 2.608e-02 6.861e-02 9.357e-01 4.576e-01 4.481e-01 4.389e-01 4.302e-01 4.220e-01 4.141e-01 4.067e-01 3.996e-01 3.929e-01 3.868e-01 3.814e-01 3.766e-01 3.725e-01 3.690e-01 3.660e-01 3.631e-01 3.604e-01 3.578e-01 3.554e-01 3.532e-01 3.511e-01 3.492e-01 3.474e-01 3.458e-01 3.444e-01 3.431e-01 3.420e-01 3.410e-01 3.402e-01 3.395e-01 3.390e-01 3.386e-01 3.384e-01
           </DataArray>
           <DataArray type="Float32" Name="parentRootClassID" NumberOfComponents="1" format="ascii">
 -2.000e+00 -2.000e+00 -2.000e+00 -2.000e+00 -2.000e+00 -2.000e+00 -2.000e+00 -2.000e+00 -2.000e+00 -2.000e+00 -2.000e+00 -2.000e+00 -2.000e+00 -2.000e+00 -2.000e+00 -2.000e+00 -2.000e+00 -2.000e+00 -2.000e+00 -2.000e+00 -2.000e+00 -2.000e+00 -2.000e+00 -2.000e+00 -2.000e+00 -2.000e+00 -2.000e+00 -2.000e+00 -2.000e+00 -2.000e+00 -2.000e+00 -2.000e+00 -2.000e+00 -2.000e+00 -2.000e+00 -2.000e+00 -3.000e+00 -3.000e+00 -3.000e+00 -3.000e+00 -3.000e+00 -3.000e+00 -3.000e+00 -3.000e+00 -3.000e+00 -3.000e+00 -3.000e+00 -3.000e+00 -4.000e+00 -4.000e+00 -4.000e+00 -4.000e+00 -4.000e+00 -4.000e+00 -4.000e+00 -4.000e+00 -4.000e+00 -4.000e+00 -4.000e+00 -4.000e+00 -4.000e+00 -4.000e+00 -4.000e+00 -4.000e+00 -4.000e+00 -4.000e+00 -4.000e+00 -4.000e+00 -4.000e+00 -4.000e+00 -4.000e+00 -4.000e+00 -4.000e+00 -4.000e+00 -4.000e+00 -4.000e+00 -4.000e+00 -4.000e+00 -4.000e+00 -4.000e+00 -4.000e+00 -4.000e+00 -4.000e+00 -4.000e+00 -4.000e+00 -4.000e+00 -4.000e+00 -4.000e+00 -4.000e+00 -4.000e+00 -4.000e+00 -4.000e+00 -4.000e+00 -4.000e+00 -4.000e+00 -4.000e+00 -4.000e+00 -4.000e+00 -4.000e+00 -4.000e+00 -4.000e+00 -4.000e+00 -4.000e+00 -4.000e+00 -4.000e+00 -4.000e+00 -4.000e+00 -4.000e+00 -4.000e+00 -4.000e+00 -4.000e+00 -4.000e+00 -4.000e+00 -4.000e+00 -4.000e+00 -4.000e+00 -4.000e+00 -4.000e+00 -4.000e+00 -4.000e+00 -4.000e+00 -4.000e+00 -4.000e+00 -4.000e+00 -4.000e+00 -4.000e+00 -4.000e+00 -4.000e+00 -4.000e+00 -4.000e+00 -4.000e+00 -4.000e+00 -4.000e+00 -4.000e+00 -4.000e+00 -4.000e+00 -4.000e+00 -4.000e+00 -4.000e+00 -4.000e+00 -4.000e+00 -4.000e+00 -4.000e+00 -4.000e+00 -4.000e+00 -4.000e+00 -4.000e+00 -4.000e+00 -4.000e+00 -4.000e+00 -4.000e+00 -4.000e+00 -4.000e+00 -4.000e+00 -4.000e+00 -4.000e+00 -4.000e+00 -4.000e+00 -4.000e+00 -4.000e+00 -4.000e+00 -4.000e+00 -4.000e+00 -4.000e+00 -3.000e+00 -3.000e+00 -3.000e+00 -3.000e+00 -3.000e+00 -3.000e+00 -3.000e+00 -3.000e+00 -3.000e+00 -3.000e+00 -3.000e+00 -3.000e+00 -3.000e+00 -3.000e+00 -3.000e+00 -3.000e+00 -3.000e+00 -3.000e+00 -3.000e+00 -3.000e+00 -3.000e+00 -3.000e+00 -3.000e+00 -3.000e+00 -3.000e+00 -3.000e+00 -3.000e+00 -3.000e+00 -3.000e+00 -3.000e+00 -3.000e+00 -3.000e+00 -3.000e+00 -3.000e+00
           </DataArray>
           <DataArray type="Float32" Name="plantID" NumberOfComponents="1" format="ascii">
 8.000e+00 8.000e+00 8.000e+00 8.000e+00 8.000e+00 8.000e+00 8.000e+00 8.000e+00 8.000e+00 8.000e+00 8.000e+00 8.000e+00 8.000e+00 8.000e+00 8.000e+00 8.000e+00 8.000e+00 8.000e+00 8.000e+00 8.000e+00 8.000e+00 8.000e+00 8.000e+00 8.000e+00 8.000e+00 8.000e+00 8.000e+00 8.000e+00 8.000e+00 8.000e+00 8.000e+00 8.000e+00 8.000e+00 8.000e+00 8.000e+00 8.000e+00 8.000e+00 8.000e+00 8.000e+00 8.000e+00 8.000e+00 8.000e+00 8.000e+00 8.000e+00 8.000e+00 8.000e+00 8.000e+00 8.000e+00 8.000e+00 8.000e+00 8.000e+00 8.000e+00 8.000e+00 8.000e+00 8.000e+00 8.000e+00 8.000e+00 8.000e+00 8.000e+00 8.000e+00 8.000e+00 8.000e+00 8.000e+00 8.000e+00 8.000e+00 8.000e+00 8.000e+00 8.000e+00 8.000e+00 8.000e+00 8.000e+00 8.000e+00 8.000e+00 8.000e+00 8.000e+00 8.000e+00 8.000e+00 8.000e+00 8.000e+00 8.000e+00 8.000e+00 8.000e+00 8.000e+00 8.000e+00 8.000e+00 8.000e+00 8.000e+00 8.000e+00 8.000e+00 8.000e+00 8.000e+00 8.000e+00 8.000e+00 8.000e+00 8.000e+00 8.000e+00 8.000e+00 8.000e+00 8.000e+00 8.000e+00 8.000e+00 8.000e+00 8.000e+00 8.000e+00 8.000e+00 8.000e+00 8.000e+00 8.000e+00 8.000e+00 8.000e+00 8.000e+00 8.000e+00 8.000e+00 8.000e+00 8.000e+00 8.000e+00 8.000e+00 8.000e+00 8.000e+00 8.000e+00 8.000e+00 8.000e+00 8.000e+00 8.000e+00 8.000e+00 8.000e+00 8.000e+00 8.000e+00 8.000e+00 8.000e+00 8.000e+00 8.000e+00 8.000e+00 8.000e+00 8.000e+00 8.000e+00 8.000e+00 8.000e+00 8.000e+00 8.000e+00 8.000e+00 8.000e+00 8.000e+00 8.000e+00 8.000e+00 8.000e+00 8.000e+00 8.000e+00 8.000e+00 8.000e+00 8.000e+00 8.000e+00 8.000e+00 8.000e+00 8.000e+00 8.000e+00 8.000e+00 8.000e+00 8.000e+00 8.000e+00 8.000e+00 8.000e+00 8.000e+00 8.000e+00 8.000e+00 8.000e+00 8.000e+00 8.000e+00 8.000e+00 8.000e+00 8.000e+00 8.000e+00 8.000e+00 8.000e+00 8.000e+00 8.000e+00 8.000e+00 8.000e+00 8.000e+00 8.000e+00 8.000e+00 8.000e+00 8.000e+00 8.000e+00 8.000e+00 8.000e+00 8.000e+00 8.000e+00 8.000e+00 8.000e+00 8.000e+00 8.000e+00 8.000e+00 8.000e+00 8.000e+00 8.000e+00 8.000e+00 8.000e+00
           </DataArray>
           <DataArray type="Float32" Name="plantTypeID" NumberOfComponents="1" format="ascii">