<?xml version="1.0"?>
<VTKFile type="UnstructuredGrid" version="0.1" byte_order="LittleEndian">
   <UnstructuredGrid>
      <Piece NumberOfPoints="8890" NumberOfCells="621">
         <Points>
            <DataArray type="Float32" Name="Position" NumberOfComponents="3" format="ascii">
-0.087	-5.026	0.101
-0.086	-5.017	0.102
-0.091	-5.010	0.106
-0.098	-5.007	0.110
-0.106	-5.010	0.114
-0.111	-5.017	0.117
-0.111	-5.026	0.116
-0.107	-5.034	0.113
-0.099	-5.037	0.108
-0.092	-5.034	0.104
0.287	-5.088	0.733
0.287	-5.079	0.734
0.283	-5.072	0.737
0.275	-5.069	0.742
0.267	-5.072	0.746
0.262	-5.079	0.749
0.262	-5.088	0.748
0.267	-5.096	0.745
0.274	-5.099	0.740
0.282	-5.096	0.736
-0.189	-5.078	0.220
-0.185	-5.071	0.224
-0.186	-5.062	0.225
-0.190	-5.054	0.222
-0.197	-5.051	0.216
-0.203	-5.054	0.209
-0.206	-5.061	0.205
-0.205	-5.070	0.204
-0.201	-5.078	0.207
-0.195	-5.081	0.213
-0.694	-5.153	0.715
-0.691	-5.145	0.719
-0.691	-5.136	0.720
-0.695	-5.129	0.717
-0.702	-5.126	0.711
-0.708	-5.128	0.704
-0.711	-5.136	0.700
-0.711	-5.145	0.699
-0.706	-5.153	0.702
-0.700	-5.155	0.708
-0.971	-5.737	1.063
-0.964	-5.738	1.069
-0.962	-5.741	1.078
-0.966	-5.744	1.085
-0.974	-5.748	1.089
-0.983	-5.750	1.087
-0.989	-5.749	1.081
-0.991	-5.746	1.072
-0.987	-5.742	1.065
-0.980	-5.739	1.061
-0.822	-6.301	0.847
-0.815	-6.301	0.853
-0.813	-6.304	0.862
-0.817	-6.308	0.869
-0.825	-6.311	0.873
-0.834	-6.313	0.871
-0.841	-6.312	0.865
-0.842	-6.310	0.856
-0.839	-6.306	0.849
-0.831	-6.302	0.845
-1.049	-5.838	1.151
-1.049	-5.828	1.152
-1.054	-5.822	1.156
-1.061	-5.820	1.161
-1.068	-5.823	1.166
-1.073	-5.831	1.168
-1.072	-5.840	1.167
-1.068	-5.847	1.163
-1.060	-5.849	1.157
-1.053	-5.846	1.153
-0.766	-5.880	1.555
-0.766	-5.871	1.557
-0.771	-5.864	1.561
-0.778	-5.862	1.566
-0.785	-5.866	1.570
-0.790	-5.874	1.573
-0.789	-5.883	1.571
-0.785	-5.890	1.567
-0.777	-5.892	1.562
-0.770	-5.888	1.558
-1.154	-5.930	1.254
-1.155	-5.921	1.253
-1.152	-5.914	1.247
-1.147	-5.911	1.240
-1.141	-5.915	1.233
-1.137	-5.923	1.230
-1.136	-5.932	1.232
-1.139	-5.939	1.237
-1.144	-5.941	1.244
-1.150	-5.938	1.251
-1.563	-6.011	0.943
-1.563	-6.002	0.942
-1.561	-5.995	0.936
-1.555	-5.993	0.929
-1.550	-5.996	0.922
-1.546	-6.004	0.919
-1.545	-6.013	0.921
-1.548	-6.020	0.926
-1.553	-6.023	0.933
-1.559	-6.019	0.940
-1.223	-6.013	1.313
-1.217	-6.013	1.320
-1.216	-6.016	1.329
-1.220	-6.019	1.336
-1.228	-6.022	1.340
-1.237	-6.023	1.337
-1.244	-6.023	1.330
-1.245	-6.020	1.322
-1.240	-6.017	1.314
-1.232	-6.014	1.311
-1.088	-6.578	1.151
-1.081	-6.578	1.158
-1.080	-6.581	1.166
-1.085	-6.584	1.174
-1.093	-6.587	1.177
-1.102	-6.588	1.175
-1.108	-6.588	1.168
-1.109	-6.586	1.159
-1.105	-6.582	1.152
-1.096	-6.580	1.148
-1.308	-6.109	1.390
-1.301	-6.109	1.396
-1.299	-6.112	1.405
-1.301	-6.117	1.412
-1.308	-6.122	1.416
-1.317	-6.125	1.414
-1.324	-6.125	1.408
-1.326	-6.122	1.400
-1.324	-6.118	1.392
-1.317	-6.113	1.388
-1.098	-6.561	1.173
-1.091	-6.561	1.179
-1.088	-6.564	1.188
-1.091	-6.569	1.195
-1.098	-6.574	1.199
-1.106	-6.577	1.197
-1.113	-6.577	1.191
-1.116	-6.574	1.183
-1.113	-6.570	1.175
-1.106	-6.565	1.172
-1.403	-6.221	1.490
-1.402	-6.211	1.488
-1.399	-6.205	1.483
-1.393	-6.203	1.476
-1.388	-6.207	1.469
-1.384	-6.215	1.466
-1.385	-6.225	1.468
-1.389	-6.231	1.473
-1.394	-6.233	1.480
-1.400	-6.229	1.487
-1.777	-6.250	1.191
-1.777	-6.241	1.190
-1.773	-6.234	1.184
-1.767	-6.233	1.177
-1.762	-6.237	1.171
-1.759	-6.245	1.168
-1.759	-6.254	1.169
-1.763	-6.261	1.174
-1.768	-6.262	1.182
-1.774	-6.258	1.188
-1.468	-6.312	1.542
-1.462	-6.312	1.548
-1.460	-6.314	1.557
-1.463	-6.318	1.565
-1.470	-6.323	1.568
-1.479	-6.327	1.566
-1.485	-6.327	1.560
-1.487	-6.325	1.551
-1.484	-6.321	1.543
-1.477	-6.316	1.540
-1.294	-6.661	1.413
-1.288	-6.660	1.420
-1.286	-6.662	1.429
-1.289	-6.667	1.436
-1.296	-6.671	1.439
-1.304	-6.675	1.437
-1.311	-6.676	1.431
-1.313	-6.673	1.422
-1.310	-6.669	1.415
-1.302	-6.664	1.411
-1.561	-6.428	1.638
-1.561	-6.419	1.636
-1.558	-6.412	1.631
-1.553	-6.410	1.623
-1.547	-6.414	1.617
-1.543	-6.422	1.614
-1.543	-6.431	1.616
-1.546	-6.438	1.622
-1.551	-6.440	1.629
-1.557	-6.436	1.635
-1.799	-6.463	1.419
-1.799	-6.459	1.427
-1.799	-6.460	1.436
-1.799	-6.467	1.443
-1.799	-6.476	1.444
-1.799	-6.484	1.440
-1.799	-6.488	1.432
-1.799	-6.487	1.423
-1.799	-6.480	1.416
-1.799	-6.471	1.415
-1.624	-6.527	1.682
-1.617	-6.526	1.689
-1.615	-6.529	1.697
-1.618	-6.533	1.705
-1.625	-6.538	1.708
-1.633	-6.542	1.707
-1.640	-6.542	1.700
-1.642	-6.540	1.692
-1.639	-6.535	1.684
-1.632	-6.530	1.681
-1.420	-6.947	1.503
-1.413	-6.946	1.509
-1.411	-6.949	1.518
-1.413	-6.953	1.525
-1.420	-6.958	1.529
-1.429	-6.961	1.527
-1.436	-6.962	1.521
-1.438	-6.959	1.512
-1.435	-6.955	1.505
-1.428	-6.950	1.501
-1.700	-6.637	1.751
-1.694	-6.636	1.757
-1.692	-6.639	1.766
-1.695	-6.643	1.774
-1.702	-6.647	1.777
-1.711	-6.650	1.775
-1.717	-6.651	1.768
-1.719	-6.648	1.760
-1.716	-6.644	1.752
-1.709	-6.640	1.749
-1.541	-6.998	1.617
-1.535	-6.998	1.623
-1.533	-7.000	1.632
-1.536	-7.005	1.639
-1.543	-7.009	1.643
-1.552	-7.012	1.641
-1.558	-7.013	1.634
-1.560	-7.010	1.626
-1.557	-7.006	1.618
-1.550	-7.001	1.615
-0.280	-5.116	0.308
-0.275	-5.116	0.315
-0.275	-5.116	0.325
-0.281	-5.118	0.332
-0.290	-5.119	0.334
-0.298	-5.121	0.331
-0.303	-5.122	0.323
-0.303	-5.121	0.314
-0.297	-5.120	0.307
-0.288	-5.118	0.304
-0.117	-5.903	0.271
-0.111	-5.902	0.278
-0.111	-5.903	0.288
-0.116	-5.905	0.295
-0.125	-5.908	0.298
-0.133	-5.910	0.295
-0.139	-5.910	0.287
-0.139	-5.909	0.278
-0.134	-5.907	0.271
-0.125	-5.904	0.268
-0.115	-5.961	0.269
-0.107	-5.957	0.269
-0.098	-5.958	0.269
-0.091	-5.965	0.269
-0.090	-5.974	0.269
-0.094	-5.982	0.269
-0.102	-5.987	0.269
-0.111	-5.985	0.269
-0.118	-5.979	0.269
-0.119	-5.969	0.269
-1.791	-6.756	1.843
-1.791	-6.747	1.842
-1.788	-6.740	1.836
-1.783	-6.738	1.829
-1.777	-6.742	1.822
-1.774	-6.750	1.819
-1.773	-6.759	1.821
-1.776	-6.766	1.826
-1.781	-6.767	1.834
-1.787	-6.764	1.840
-2.063	-6.807	1.630
-2.064	-6.798	1.629
-2.061	-6.791	1.623
-2.056	-6.789	1.616
-2.050	-6.793	1.609
-2.046	-6.801	1.606
-2.046	-6.810	1.608
-2.049	-6.817	1.613
-2.054	-6.819	1.621
-2.060	-6.815	1.627
-1.847	-6.868	1.888
-1.846	-6.859	1.890
-1.851	-6.852	1.895
-1.858	-6.849	1.900
-1.866	-6.853	1.904
-1.871	-6.860	1.905
-1.871	-6.869	1.903
-1.867	-6.876	1.899
-1.859	-6.879	1.894
-1.852	-6.875	1.890
-1.645	-6.945	2.213
-1.645	-6.936	2.215
-1.649	-6.929	2.219
-1.656	-6.926	2.225
-1.664	-6.930	2.229
-1.669	-6.937	2.230
-1.670	-6.946	2.228
-1.665	-6.953	2.224
-1.658	-6.956	2.219
-1.650	-6.952	2.215
-1.931	-6.968	1.949
-1.924	-6.968	1.956
-1.921	-6.971	1.964
-1.924	-6.975	1.972
-1.931	-6.980	1.975
-1.940	-6.983	1.974
-1.947	-6.983	1.967
-1.949	-6.980	1.959
-1.946	-6.976	1.952
-1.939	-6.971	1.948
-1.812	-7.249	1.820
-1.805	-7.249	1.826
-1.802	-7.251	1.835
-1.805	-7.256	1.842
-1.812	-7.261	1.846
-1.821	-7.264	1.844
-1.828	-7.264	1.838
-1.830	-7.261	1.830
-1.827	-7.256	1.822
-1.820	-7.252	1.819
-2.000	-7.090	2.018
-1.999	-7.081	2.020
-2.004	-7.074	2.024
-2.011	-7.072	2.030
-2.019	-7.076	2.034
-2.023	-7.084	2.035
-2.024	-7.093	2.033
-2.019	-7.100	2.029
-2.012	-7.102	2.023
-2.005	-7.098	2.019
-1.850	-7.146	2.246
-1.850	-7.137	2.248
-1.854	-7.130	2.252
-1.862	-7.128	2.258
-1.869	-7.131	2.262
-1.874	-7.139	2.263
-1.874	-7.148	2.261
-1.870	-7.155	2.256
-1.863	-7.157	2.251
-1.855	-7.153	2.247
-2.084	-7.191	2.079
-2.077	-7.191	2.085
-2.074	-7.194	2.094
-2.077	-7.198	2.101
-2.084	-7.203	2.105
-2.092	-7.206	2.103
-2.099	-7.207	2.097
-2.102	-7.204	2.089
-2.099	-7.199	2.082
-2.092	-7.194	2.078
-1.990	-7.436	1.968
-1.981	-7.432	1.968
-1.972	-7.433	1.968
-1.966	-7.440	1.968
-1.964	-7.449	1.968
-1.968	-7.457	1.968
-1.977	-7.461	1.968
-1.986	-7.460	1.968
-1.992	-7.453	1.968
-1.994	-7.444	1.968
-2.157	-7.304	2.144
-2.151	-7.303	2.151
-2.149	-7.306	2.159
-2.151	-7.310	2.167
-2.158	-7.316	2.170
-2.167	-7.319	2.169
-2.173	-7.320	2.162
-2.175	-7.318	2.153
-2.173	-7.313	2.146
-2.166	-7.308	2.142
-2.038	-7.525	2.051
-2.031	-7.524	2.058
-2.029	-7.526	2.066
-2.032	-7.531	2.074
-2.039	-7.536	2.077
-2.047	-7.540	2.075
-2.053	-7.541	2.069
-2.056	-7.538	2.060
-2.053	-7.533	2.053
-2.046	-7.528	2.049
-2.232	-7.417	2.209
-2.225	-7.416	2.216
-2.222	-7.419	2.224
-2.224	-7.424	2.231
-2.231	-7.430	2.235
-2.239	-7.433	2.233
-2.246	-7.434	2.227
-2.249	-7.431	2.219
-2.247	-7.426	2.211
-2.240	-7.421	2.208
-2.138	-7.588	2.122
-2.131	-7.587	2.128
-2.128	-7.590	2.136
-2.131	-7.595	2.144
-2.137	-7.601	2.147
-2.146	-7.604	2.146
-2.152	-7.605	2.140
-2.155	-7.602	2.131
-2.153	-7.597	2.124
-2.146	-7.592	2.120
-2.297	-7.543	2.278
-2.296	-7.534	2.280
-2.300	-7.526	2.285
-2.308	-7.524	2.290
-2.316	-7.527	2.293
-2.321	-7.535	2.294
-2.322	-7.543	2.292
-2.318	-7.551	2.288
-2.311	-7.553	2.283
-2.303	-7.550	2.279
-2.203	-7.589	2.444
-2.199	-7.589	2.453
-2.200	-7.589	2.462
-2.207	-7.589	2.468
-2.216	-7.589	2.470
-2.224	-7.589	2.466
-2.228	-7.589	2.457
-2.227	-7.589	2.448
-2.220	-7.589	2.442
-2.211	-7.589	2.440
-2.379	-7.644	2.339
-2.372	-7.643	2.346
-2.369	-7.646	2.354
-2.372	-7.651	2.362
-2.379	-7.656	2.365
-2.387	-7.660	2.363
-2.394	-7.660	2.357
-2.396	-7.658	2.348
-2.394	-7.653	2.341
-2.387	-7.648	2.337
-2.296	-7.799	2.268
-2.289	-7.798	2.274
-2.287	-7.801	2.282
-2.289	-7.806	2.290
-2.296	-7.811	2.293
-2.305	-7.814	2.292
-2.311	-7.815	2.285
-2.314	-7.813	2.277
-2.311	-7.808	2.269
-2.304	-7.802	2.266
-2.442	-7.771	2.407
-2.442	-7.761	2.409
-2.446	-7.755	2.413
-2.453	-7.753	2.419
-2.461	-7.756	2.423
-2.465	-7.764	2.425
-2.465	-7.774	2.423
-2.461	-7.780	2.418
-2.453	-7.782	2.413
-2.446	-7.778	2.409
-2.359	-7.793	2.527
-2.359	-7.784	2.528
-2.363	-7.777	2.533
-2.371	-7.775	2.538
-2.378	-7.779	2.542
-2.383	-7.787	2.544
-2.383	-7.796	2.542
-2.378	-7.803	2.538
-2.371	-7.805	2.533
-2.363	-7.801	2.528
-0.375	-5.195	0.427
-0.371	-5.188	0.431
-0.371	-5.178	0.431
-0.375	-5.171	0.427
-0.380	-5.168	0.420
-0.385	-5.171	0.413
-0.389	-5.178	0.409
-0.388	-5.187	0.408
-0.385	-5.195	0.413
-0.380	-5.198	0.420
-0.951	-5.188	0.839
-0.943	-5.184	0.839
-0.934	-5.185	0.839
-0.927	-5.192	0.839
-0.926	-5.201	0.839
-0.930	-5.209	0.839
[...]
         <CellData>
           <DataArray type="Float32" Name="combinedRootClassID" NumberOfComponents="1" format="ascii">
 -1.300e+01 -1.300e+01 -1.300e+01 -1.300e+01 -1.300e+01 -1.300e+01 -1.300e+01 -1.300e+01 -1.300e+01 -1.300e+01 -1.300e+01 -1.300e+01 -1.300e+01 -1.300e+01 -1.300e+01 -1.300e+01 -1.300e+01 -1.300e+01 -1.300e+01 -1.300e+01 -1.300e+01 -1.300e+01 -1.300e+01 -1.300e+01 -1.300e+01 -1.300e+01 -1.300e+01 -1.300e+01 -1.300e+01 -1.300e+01 -1.300e+01 -1.300e+01 -1.300e+01 -1.300e+01 -1.300e+01 -1.300e+01 -1.300e+01 -5.000e+00 -5.000e+00 -5.000e+00 -5.000e+00 -5.000e+00 -5.000e+00 -5.000e+00 -5.000e+00 -5.000e+00 -5.000e+00 -5.000e+00 -5.000e+00 -5.000e+00 -5.000e+00 -5.000e+00 -5.000e+00 -5.000e+00 -5.000e+00 -1.300e+01 -1.300e+01 -1.300e+01 -1.300e+01 -1.300e+01 -1.300e+01 -1.300e+01 -1.300e+01 -1.300e+01 -1.300e+01 -1.300e+01 -1.300e+01 -1.300e+01 -1.300e+01 -1.300e+01 -1.300e+01 -1.300e+01 -1.300e+01 -1.300e+01 -1.300e+01 -1.300e+01 -1.300e+01 -1.300e+01 -1.300e+01 -1.300e+01 -1.300e+01 -1.300e+01 -1.300e+01 -1.300e+01 -1.300e+01 -1.300e+01 -1.300e+01 -1.300e+01 -1.300e+01 -1.300e+01 -1.300e+01 -1.300e+01 -5.000e+00 -5.000e+00 -5.000e+00 -5.000e+00 -5.000e+00 -5.000e+00 -5.000e+00 -5.000e+00 -5.000e+00 -5.000e+00 -5.000e+00 -5.000e+00 -5.000e+00 -5.000e+00 -5.000e+00 -5.000e+00 -5.000e+00 -5.000e+00 -1.300e+01 -1.300e+01 -1.300e+01 -1.300e+01 -1.300e+01 -1.300e+01 -1.300e+01 -1.300e+01 -1.300e+01 -1.300e+01 -1.300e+01 -1.300e+01 -1.300e+01 -1.300e+01 -1.300e+01 -1.300e+01 -1.300e+01 -1.300e+01 -1.300e+01 -1.300e+01 -1.300e+01 -1.300e+01 -1.300e+01 -1.300e+01 -1.300e+01 -1.300e+01 -1.300e+01 -1.300e+01 -1.300e+01 -1.300e+01 -1.300e+01 -1.300e+01 -1.300e+01 -1.300e+01 -1.300e+01 -1.300e+01 -5.000e+00 -5.000e+00 -5.000e+00 -5.000e+00 -5.000e+00 -5.000e+00 -5.000e+00 -5.000e+00 -5.000e+00 -5.000e+00 -5.000e+00 -5.000e+00 -5.000e+00 -5.000e+00 -5.000e+00 -5.000e+00 -5.000e+00 -5.000e+00 -1.300e+01 -1.300e+01 -1.300e+01 -1.300e+01 -1.300e+01 -1.300e+01 -1.300e+01 -1.300e+01 -1.300e+01 -1.300e+01 -1.300e+01 -1.300e+01 -1.300e+01 -1.300e+01 -1.300e+01 -1.300e+01 -1.300e+01 -1.300e+01 -1.300e+01 -1.300e+01 -1.300e+01 -1.300e+01 -1.300e+01 -1.300e+01 -1.300e+01 -1.300e+01 -1.300e+01 -1.300e+01 -1.300e+01 -1.300e+01 -1.300e+01 -1.300e+01 -1.300e+01 -1.300e+01 -1.300e+01 -1.300e+01 -1.300e+01 -5.000e+00 -5.000e+00 -5.000e+00 -5.000e+00 -5.000e+00 -5.000e+00 -5.000e+00 -5.000e+00 -5.000e+00 -5.000e+00 -5.000e+00 -5.000e+00 -5.000e+00 -5.000e+00 -5.000e+00 -5.000e+00 -5.000e+00 -5.000e+00 -9.000e+00 -9.000e+00 -9.000e+00 -9.000e+00 -9.000e+00 -9.000e+00 -9.000e+00 -9.000e+00 -9.000e+00 -9.000e+00 -9.000e+00 -9.000e+00 -9.000e+00 -9.000e+00 -9.000e+00 -9.000e+00 -9.000e+00 -9.000e+00 -9.000e+00 -9.000e+00 -9.000e+00 -9.000e+00 -9.000e+00 -9.000e+00 -9.000e+00 -9.000e+00 -9.000e+00 -9.000e+00 -9.000e+00 -9.000e+00 -9.000e+00 -9.000e+00 -2.000e+00 -2.000e+00 -2.000e+00 -2.000e+00 -2.000e+00 -2.000e+00 -2.000e+00 -2.000e+00 -2.000e+00 -2.000e+00 -2.000e+00 -2.000e+00 -7.000e+00 -7.000e+00 -7.000e+00 -7.000e+00 -7.000e+00 -7.000e+00 -7.000e+00 -7.000e+00 -7.000e+00 -7.000e+00 -7.000e+00 -7.000e+00 -7.000e+00 -7.000e+00 -7.000e+00 -7.000e+00 -7.000e+00 -7.000e+00 -7.000e+00 -7.000e+00 -7.000e+00 -7.000e+00 -7.000e+00 -7.000e+00 -7.000e+00 -7.000e+00 -7.000e+00 -7.000e+00 -7.000e+00 -7.000e+00 -7.000e+00 -7.000e+00 -7.000e+00 -7.000e+00 -7.000e+00 -7.000e+00 -7.000e+00 -7.000e+00 -7.000e+00 -7.000e+00 -7.000e+00 -7.000e+00 -7.000e+00 -7.000e+00 -7.000e+00 -7.000e+00 -7.000e+00 -7.000e+00 -7.000e+00 -7.000e+00 -7.000e+00 -7.000e+00 -7.000e+00 -7.000e+00 -7.000e+00 -7.000e+00 -7.000e+00 -7.000e+00 -7.000e+00 -7.000e+00 -7.000e+00 -7.000e+00 -7.000e+00 -7.000e+00 -7.000e+00 -7.000e+00 -7.000e+00 -7.000e+00 -7.000e+00 -7.000e+00 -7.000e+00 -7.000e+00 -7.000e+00 -7.000e+00 -7.000e+00 -7.000e+00 -7.000e+00 -7.000e+00 -7.000e+00 -7.000e+00 -7.000e+00 -7.000e+00 -7.000e+00 -7.000e+00 -7.000e+00 -7.000e+00 -7.000e+00 -7.000e+00 -7.000e+00 -7.000e+00 -7.000e+00 -7.000e+00 -7.000e+00 -7.000e+00 -7.000e+00 -7.000e+00 -7.000e+00 -7.000e+00 -7.000e+00 -7.000e+00 -7.000e+00 -7.000e+00 -7.000e+00 -7.000e+00 -7.000e+00 -7.000e+00 -7.000e+00 -7.000e+00 -7.000e+00 -7.000e+00 -7.000e+00 -7.000e+00 -7.000e+00 -7.000e+00 -7.000e+00 -7.000e+00 -7.000e+00 -7.000e+00 -7.000e+00 -7.000e+00 -7.000e+00 -7.000e+00 -7.000e+00 -7.000e+00 -7.000e+00 -7.000e+00 -7.000e+00 -7.000e+00 -7.000e+00 -7.000e+00 -7.000e+00 -7.000e+00 -7.000e+00 -7.000e+00 -7.000e+00 -7.000e+00 -7.000e+00 -7.000e+00 -7.000e+00 -7.000e+00 -7.000e+00 -7.000e+00 -7.000e+00 -7.000e+00 -7.000e+00 -7.000e+00 -7.000e+00 -7.000e+00 -7.000e+00 -7.000e+00 -7.000e+00 -7.000e+00 -7.000e+00 -7.000e+00 -7.000e+00 -7.000e+00 -7.000e+00 -7.000e+00 -7.000e+00 -7.000e+00 -7.000e+00 -7.000e+00 -7.000e+00 -7.000e+00 -7.000e+00 -7.000e+00 -7.000e+00 -7.000e+00 -7.000e+00 -7.000e+00 -7.000e+00 -7.000e+00 -7.000e+00 -7.000e+00 -7.000e+00 -7.000e+00 -7.000e+00 -7.000e+00 -7.000e+00 -7.000e+00 -7.000e+00 -7.000e+00 -7.000e+00 -7.000e+00 -7.000e+00 -7.000e+00 -7.000e+00 -7.000e+00 -7.000e+00 -7.000e+00 -7.000e+00 -7.000e+00 -7.000e+00 -7.000e+00 -7.000e+00 -7.000e+00 -7.000e+00 -7.000e+00 -7.000e+00 -7.000e+00 -7.000e+00 -7.000e+00 -7.000e+00 -7.000e+00 -7.000e+00 -7.000e+00 -7.000e+00 -7.000e+00 -7.000e+00 -7.000e+00 -7.000e+00 -7.000e+00 -7.000e+00 -7.000e+00 -7.000e+00 -7.000e+00 -7.000e+00 -7.000e+00 -7.000e+00 -7.000e+00 -7.000e+00 -7.000e+00 -7.000e+00 -7.000e+00 -7.000e+00 -7.000e+00 -7.000e+00 -7.000e+00 -7.000e+00 -7.000e+00 -7.000e+00 -7.000e+00 -7.000e+00 -7.000e+00 -7.000e+00 -7.000e+00 -7.000e+00 -7.000e+00 -7.000e+00 -7.000e+00 -7.000e+00 -7.000e+00 -7.000e+00 -7.000e+00 -7.000e+00 -7.000e+00 -7.000e+00 -7.000e+00 -7.000e+00 -7.000e+00 -7.000e+00 -7.000e+00 -7.000e+00 -7.000e+00 -7.000e+00 -7.000e+00 -7.000e+00 -7.000e+00 -7.000e+00 -7.000e+00 -7.000e+00 -7.000e+00 -7.000e+00 -7.000e+00 -7.000e+00 -7.000e+00 -7.000e+00 -7.000e+00 -7.000e+00 -7.000e+00 -7.000e+00 -7.000e+00 -7.000e+00 -7.000e+00 -7.000e+00 -7.000e+00 -7.000e+00 -7.000e+00 -7.000e+00 -7.000e+00 -7.000e+00 -7.000e+00 -7.000e+00 -7.000e+00 -7.000e+00 -7.000e+00 -7.000e+00 -7.000e+00 -7.000e+00 -7.000e+00 -7.000e+00 -7.000e+00 -7.000e+00 -7.000e+00 -7.000e+00 -7.000e+00 -7.000e+00 -7.000e+00 -7.000e+00 -7.000e+00 -7.000e+00 -7.000e+00 -7.000e+00 -7.000e+00 -7.000e+00 -7.000e+00 -7.000e+00 -1.100e+01 -1.100e+01 -1.100e+01 -1.100e+01 -1.100e+01 -1.100e+01 -1.100e+01 -4.000e+00 -4.000e+00 -4.000e+00 -4.000e+00 -4.000e+00 -4.000e+00 -4.000e+00 -4.000e+00 -4.000e+00 -4.000e+00 -4.000e+00 -4.000e+00 -4.000e+00 -4.000e+00 -4.000e+00 -4.000e+00 -4.000e+00 -4.000e+00 -4.000e+00 -4.000e+00 -4.000e+00 -4.000e+00 -4.000e+00 -4.000e+00 -4.000e+00 -4.000e+00 -4.000e+00 -4.000e+00 -4.000e+00 -4.000e+00 -4.000e+00 -4.000e+00 -4.000e+00 -4.000e+00 -4.000e+00 -4.000e+00 -4.000e+00 -4.000e+00 -4.000e+00 -4.000e+00 -4.000e+00 -4.000e+00 -4.000e+00 -4.000e+00
           </DataArray>
           <DataArray type="Float32" Name="nitrate/minimalNutrientConcentration" NumberOfComponents="1" format="ascii">
 6.000e+02 6.000e+02 6.000e+02 6.000e+02 6.000e+02 6.000e+02 6.000e+02 6.000e+02 6.000e+02 6.000e+02 6.000e+02 6.000e+02 6.000e+02 6.000e+02 6.000e+02 6.000e+02 6.000e+02 6.000e+02 6.000e+02 6.000e+02 6.000e+02 6.000e+02 6.000e+02 6.000e+02 6.000e+02 6.000e+02 6.000e+02 6.000e+02 6.000e+02 6.000e+02 6.000e+02 6.000e+02 6.000e+02 6.000e+02 6.000e+02 6.000e+02 6.000e+02 6.000e+02 6.000e+02 6.000e+02 6.000e+02 6.000e+02 6.000e+02 6.000e+02 6.000e+02 6.000e+02 6.000e+02 6.000e+02 6.000e+02 6.000e+02 6.000e+02 6.000e+02 6.000e+02 6.000e+02 6.000e+02 6.000e+02 6.000e+02 6.000e+02 6.000e+02 6.000e+02 6.000e+02 6.000e+02 6.000e+02 6.000e+02 6.000e+02 6.000e+02 6.000e+02 6.000e+02 6.000e+02 6.000e+02 6.000e+02 6.000e+02 6.000e+02 6.000e+02 6.000e+02 6.000e+02 6.000e+02 6.000e+02 6.000e+02 6.000e+02 6.000e+02 6.000e+02 6.000e+02 6.000e+02 6.000e+02 6.000e+02 6.000e+02 6.000e+02 6.000e+02 6.000e+02 6.000e+02 6.000e+02 6.000e+02 6.000e+02 6.000e+02 6.000e+02 6.000e+02 6.000e+02 6.000e+02 6.000e+02 6.000e+02 6.000e+02 6.000e+02 6.000e+02 6.000e+02 6.000e+02 6.000e+02 6.000e+02 6.000e+02 6.000e+02 6.000e+02 6.000e+02 6.000e+02 6.000e+02 6.000e+02 6.000e+02 6.000e+02 6.000e+02 6.000e+02 6.000e+02 6.000e+02 6.000e+02 6.000e+02 6.000e+02 6.000e+02 6.000e+02 6.000e+02 6.000e+02 6.000e+02 6.000e+02 6.000e+02 6.000e+02 6.000e+02 6.000e+02 6.000e+02 6.000e+02 6.000e+02 6.000e+02 6.000e+02 6.000e+02 6.000e+02 6.000e+02 6.000e+02 6.000e+02 6.000e+02 6.000e+02 6.000e+02 6.000e+02 6.000e+02 6.000e+02 6.000e+02 6.000e+02 6.000e+02 6.000e+02 6.000e+02 6.000e+02 6.000e+02 6.000e+02 6.000e+02 6.000e+02 6.000e+02 6.000e+02 6.000e+02 6.000e+02 6.000e+02 6.000e+02 6.000e+02 6.000e+02 6.000e+02 6.000e+02 6.000e+02 6.000e+02 6.000e+02 6.000e+02 6.000e+02 6.000e+02 6.000e+02 6.000e+02 6.000e+02 6.000e+02 6.000e+02 6.000e+02 6.000e+02 6.000e+02 6.000e+02 6.000e+02 6.000e+02 6.000e+02 6.000e+02 6.000e+02 6.000e+02 6.000e+02 6.000e+02 6.000e+02 6.000e+02 6.000e+02 6.000e+02 6.000e+02 6.000e+02 6.000e+02 6.000e+02 6.000e+02 6.000e+02 6.000e+02 6.000e+02 6.000e+02 6.000e+02 6.000e+02 6.000e+02 6.000e+02 6.000e+02 6.000e+02 6.000e+02 6.000e+02 6.000e+02 6.000e+02 6.000e+02 6.000e+02 6.000e+02 6.000e+02 6.000e+02 6.000e+02 6.000e+02 6.000e+02 6.000e+02 6.000e+02 6.000e+02 6.000e+02 6.000e+02 6.000e+02 6.000e+02 6.000e+02 6.000e+02 6.000e+02 6.000e+02 6.000e+02 6.000e+02 6.000e+02 6.000e+02 6.000e+02 6.000e+02 6.000e+02 6.000e+02 6.000e+02 6.000e+02 6.000e+02 6.000e+02 6.000e+02 6.000e+02 6.000e+02 6.000e+02 6.000e+02 6.000e+02 6.000e+02 6.000e+02 6.000e+02 6.000e+02 6.000e+02 6.000e+02 6.000e+02 6.000e+02 6.000e+02 6.000e+02 6.000e+02 6.000e+02 6.000e+02 6.000e+02 6.000e+02 6.000e+02 6.000e+02 6.000e+02 6.000e+02 6.000e+02 6.000e+02 6.000e+02 6.000e+02 6.000e+02 6.000e+02 6.000e+02 6.000e+02 6.000e+02 6.000e+02 6.000e+02 6.000e+02 6.000e+02 6.000e+02 6.000e+02 6.000e+02 6.000e+02 6.000e+02 6.000e+02 6.000e+02 6.000e+02 6.000e+02 6.000e+02 6.000e+02 6.000e+02 6.000e+02 6.000e+02 6.000e+02 6.000e+02 6.000e+02 6.000e+02 6.000e+02 6.000e+02 6.000e+02 6.000e+02 6.000e+02 6.000e+02 6.000e+02 6.000e+02 6.000e+02 6.000e+02 6.000e+02 6.000e+02 6.000e+02 6.000e+02 6.000e+02 6.000e+02 6.000e+02 6.000e+02 6.000e+02 6.000e+02 6.000e+02 6.000e+02 6.000e+02 6.000e+02 6.000e+02 6.000e+02 6.000e+02 6.000e+02 6.000e+02 6.000e+02 6.000e+02 6.000e+02 6.000e+02 6.000e+02 6.000e+02 6.000e+02 6.000e+02 6.000e+02 6.000e+02 6.000e+02 6.000e+02 6.000e+02 6.000e+02 6.000e+02 6.000e+02 6.000e+02 6.000e+02 6.000e+02 6.000e+02 6.000e+02 6.000e+02 6.000e+02 6.000e+02 6.000e+02 6.000e+02 6.000e+02 6.000e+02 6.000e+02 6.000e+02 6.000e+02 6.000e+02 6.000e+02 6.000e+02 6.000e+02 6.000e+02 6.000e+02 6.000e+02 6.000e+02 6.000e+02 6.000e+02 6.000e+02 6.000e+02 6.000e+02 6.000e+02 6.000e+02 6.000e+02 6.000e+02 6.000e+02 6.000e+02 6.000e+02 6.000e+02 6.000e+02 6.000e+02 6.000e+02 6.000e+02 6.000e+02 6.000e+02 6.000e+02 6.000e+02 6.000e+02 6.000e+02 6.000e+02 6.000e+02 6.000e+02 6.000e+02 6.000e+02 6.000e+02 6.000e+02 6.000e+02 6.000e+02 6.000e+02 6.000e+02 6.000e+02 6.000e+02 6.000e+02 6.000e+02 6.000e+02 6.000e+02 6.000e+02 6.000e+02 6.000e+02 6.000e+02 6.000e+02 6.000e+02 6.000e+02 6.000e+02 6.000e+02 6.000e+02 6.000e+02 6.000e+02 6.000e+02 6.000e+02 6.000e+02 6.000e+02 6.000e+02 6.000e+02 6.000e+02 6.000e+02 6.000e+02 6.000e+02 6.000e+02 6.000e+02 6.000e+02 6.000e+02 6.000e+02 6.000e+02 6.000e+02 6.000e+02 6.000e+02 6.000e+02 6.000e+02 6.000e+02 6.000e+02 6.000e+02 6.000e+02 6.000e+02 6.000e+02 6.000e+02 6.000e+02 6.000e+02 6.000e+02 6.000e+02 6.000e+02 6.000e+02 6.000e+02 6.000e+02 6.000e+02 6.000e+02 6.000e+02 6.000e+02 6.000e+02 6.000e+02 6.000e+02 6.000e+02 6.000e+02 6.000e+02 6.000e+02 6.000e+02 6.000e+02 6.000e+02 6.000e+02 6.000e+02 6.000e+02 6.000e+02 6.000e+02 6.000e+02 6.000e+02 6.000e+02 6.000e+02 6.000e+02 6.000e+02 6.000e+02 6.000e+02 6.000e+02 6.000e+02 6.000e+02 6.000e+02 6.000e+02 6.000e+02 6.000e+02 6.000e+02 6.000e+02 6.000e+02 6.000e+02 6.000e+02 6.000e+02 6.000e+02 6.000e+02 6.000e+02 6.000e+02 6.000e+02 6.000e+02 6.000e+02 6.000e+02 6.000e+02 6.000e+02 6.000e+02 6.000e+02 6.000e+02 6.000e+02 6.000e+02 6.000e+02 6.000e+02 6.000e+02 6.000e+02 6.000e+02 6.000e+02 6.000e+02 6.000e+02 6.000e+02 6.000e+02 6.000e+02 6.000e+02 6.000e+02 6.000e+02 6.000e+02 6.000e+02 6.000e+02 6.000e+02 6.000e+02 6.000e+02 6.000e+02 6.000e+02 6.000e+02 6.000e+02 6.000e+02 6.000e+02 6.000e+02 6.000e+02 6.000e+02 6.000e+02 6.000e+02 6.000e+02 6.000e+02 6.000e+02 6.000e+02 6.000e+02 6.000e+02 6.000e+02 6.000e+02 6.000e+02 6.000e+02 6.000e+02 6.000e+02 6.000e+02 6.000e+02 6.000e+02 6.000e+02 6.000e+02 6.000e+02 6.000e+02 6.000e+02 6.000e+02 6.000e+02 6.000e+02 6.000e+02 6.000e+02 6.000e+02 6.000e+02 6.000e+02 6.000e+02 6.000e+02 6.000e+02 6.000e+02 6.000e+02 6.000e+02 6.000e+02 6.000e+02 6.000e+02 6.000e+02 6.000e+02 6.000e+02 6.000e+02 6.000e+02 6.000e+02 6.000e+02 6.000e+02 6.000e+02 6.000e+02 6.000e+02 6.000e+02 6.000e+02 6.000e+02 6.000e+02 6.000e+02 6.000e+02 6.000e+02 6.000e+02 6.000e+02 6.000e+02 6.000e+02 6.000e+02 6.000e+02 6.000e+02 6.000e+02 6.000e+02 6.000e+02 6.000e+02 6.000e+02 6.000e+02 6.000e+02 6.000e+02 6.000e+02 6.000e+02 6.000e+02 6.000e+02 6.000e+02 6.000e+02
           </DataArray>
           <DataArray type="Float32" Name="nitrate/optimalNutrientConcentration" NumberOfComponents="1" format="ascii">
 1.200e+03 1.200e+03 1.200e+03 1.200e+03 1.200e+03 1.200e+03 1.200e+03 1.200e+03 1.200e+03 1.200e+03 1.200e+03 1.200e+03 1.200e+03 1.200e+03 1.200e+03 1.200e+03 1.200e+03 1.200e+03 1.200e+03 1.200e+03 1.200e+03 1.200e+03 1.200e+03 1.200e+03 1.200e+03 1.200e+03 1.200e+03 1.200e+03 1.200e+03 1.200e+03 1.200e+03 1.200e+03 1.200e+03 1.200e+03 1.200e+03 1.200e+03 1.200e+03 1.200e+03 1.200e+03 1.200e+03 1.200e+03 1.200e+03 1.200e+03 1.200e+03 1.200e+03 1.200e+03 1.200e+03 1.200e+03 1.200e+03 1.200e+03 1.200e+03 1.200e+03 1.200e+03 1.200e+03 1.200e+03 1.200e+03 1.200e+03 1.200e+03 1.200e+03 1.200e+03 1.200e+03 1.200e+03 1.200e+03 1.200e+03 1.200e+03 1.200e+03 1.200e+03 1.200e+03 1.200e+03 1.200e+03 1.200e+03 1.200e+03 1.200e+03 1.200e+03 1.200e+03 1.200e+03 1.200e+03 1.200e+03 1.200e+03 1.200e+03 1.200e+03 1.200e+03 1.200e+03 1.200e+03 1.200e+03 1.200e+03 1.200e+03 1.200e+03 1.200e+03 1.200e+03 1.200e+03 1.200e+03 1.200e+03 1.200e+03 1.200e+03 1.200e+03 1.200e+03 1.200e+03 1.200e+03 1.200e+03 1.200e+03 1.200e+03 1.200e+03 1.200e+03 1.200e+03 1.200e+03 1.200e+03 1.200e+03 1.200e+03 1.200e+03 1.200e+03 1.200e+03 1.200e+03 1.200e+03 1.200e+03 1.200e+03 1.200e+03 1.200e+03 1.200e+03 1.200e+03 1.200e+03 1.200e+03 1.200e+03 1.200e+03 1.200e+03 1.200e+03 1.200e+03 1.200e+03 1.200e+03 1.200e+03 1.200e+03 1.200e+03 1.200e+03 1.200e+03 1.200e+03 1.200e+03 1.200e+03 1.200e+03 1.200e+03 1.200e+03 1.200e+03 1.200e+03 1.200e+03 1.200e+03 1.200e+03 1.200e+03 1.200e+03 1.200e+03 1.200e+03 1.200e+03 1.200e+03 1.200e+03 1.200e+03 1.200e+03 1.200e+03 1.200e+03 1.200e+03 1.200e+03 1.200e+03 1.200e+03 1.200e+03 1.200e+03 1.200e+03 1.200e+03 1.200e+03 1.200e+03 1.200e+03 1.200e+03 1.200e+03 1.200e+03 1.200e+03 1.200e+03 1.200e+03 1.200e+03 1.200e+03 1.200e+03 1.200e+03 1.200e+03 1.200e+03 1.200e+03 1.200e+03 1.200e+03 1.200e+03 1.200e+03 1.200e+03 1.200e+03 1.200e+03 1.200e+03 1.200e+03 1.200e+03 1.200e+03 1.200e+03 1.200e+03 1.200e+03 1.200e+03 1.200e+03 1.200e+03 1.200e+03 1.200e+03 1.200e+03 1.200e+03 1.200e+03 1.200e+03 1.200e+03 1.200e+03 1.200e+03 1.200e+03 1.200e+03 1.200e+03 1.200e+03 1.200e+03 1.200e+03 1.200e+03 1.200e+03 1.200e+03 1.200e+03 1.200e+03 1.200e+03 1.200e+03 1.200e+03 1.200e+03 1.200e+03 1.200e+03 1.200e+03 1.200e+03 1.200e+03 1.200e+03 1.200e+03 1.200e+03 1.200e+03 1.200e+03 1.200e+03 1.200e+03 1.200e+03 1.200e+03 1.200e+03 1.200e+03 1.200e+03 1.200e+03 1.200e+03 1.200e+03 1.200e+03 1.200e+03 1.200e+03 1.200e+03 1.200e+03 1.200e+03 1.200e+03 1.200e+03 1.200e+03 1.200e+03 1.200e+03 1.200e+03 1.200e+03 1.200e+03 1.200e+03 1.200e+03 1.200e+03 1.200e+03 1.200e+03 1.200e+03 1.200e+03 1.200e+03 1.200e+03 1.200e+03 1.200e+03 1.200e+03 1.200e+03 1.200e+03 1.200e+03 1.200e+03 1.200e+03 1.200e+03 1.200e+03 1.200e+03 1.200e+03 1.200e+03 1.200e+03 1.200e+03 1.200e+03 1.200e+03 1.200e+03 1.200e+03 1.200e+03 1.200e+03 1.200e+03 1.200e+03 1.200e+03 1.200e+03 1.200e+03 1.200e+03 1.200e+03 1.200e+03 1.200e+03 1.200e+03 1.200e+03 1.200e+03 1.200e+03 1.200e+03 1.200e+03 1.200e+03 1.200e+03 1.200e+03 1.200e+03 1.200e+03 1.200e+03 1.200e+03 1.200e+03 1.200e+03 1.200e+03 1.200e+03 1.200e+03 1.200e+03 1.200e+03 1.200e+03 1.200e+03 1.200e+03 1.200e+03 1.200e+03 1.200e+03 1.200e+03 1.200e+03 1.200e+03 1.200e+03 1.200e+03 1.200e+03 1.200e+03 1.200e+03 1.200e+03 1.200e+03 1.200e+03 1.200e+03 1.200e+03 1.200e+03 1.200e+03 1.200e+03 1.200e+03 1.200e+03 1.200e+03 1.200e+03 1.200e+03 1.200e+03 1.200e+03 1.200e+03 1.200e+03 1.200e+03 1.200e+03 1.200e+03 1.200e+03 1.200e+03 1.200e+03 1.200e+03 1.200e+03 1.200e+03 1.200e+03 1.200e+03 1.200e+03 1.200e+03 1.200e+03 1.200e+03 1.200e+03 1.200e+03 1.200e+03 1.200e+03 1.200e+03 1.200e+03 1.200e+03 1.200e+03 1.200e+03 1.200e+03 1.200e+03 1.200e+03 1.200e+03 1.200e+03 1.200e+03 1.200e+03 1.200e+03 1.200e+03 1.200e+03 1.200e+03 1.200e+03 1.200e+03 1.200e+03 1.200e+03 1.200e+03 1.200e+03 1.200e+03 1.200e+03 1.200e+03 1.200e+03 1.200e+03 1.200e+03 1.200e+03 1.200e+03 1.200e+03 1.200e+03 1.200e+03 1.200e+03 1.200e+03 1.200e+03 1.200e+03 1.200e+03 1.200e+03 1.200e+03 1.200e+03 1.200e+03 1.200e+03 1.200e+03 1.200e+03 1.200e+03 1.200e+03 1.200e+03 1.200e+03 1.200e+03 1.200e+03 1.200e+03 1.200e+03 1.200e+03 1.200e+03 1.200e+03 1.200e+03 1.200e+03 1.200e+03 1.200e+03 1.200e+03 1.200e+03 1.200e+03 1.200e+03 1.200e+03 1.200e+03 1.200e+03 1.200e+03 1.200e+03 1.200e+03 1.200e+03 1.200e+03 1.200e+03 1.200e+03 1.200e+03 1.200e+03 1.200e+03 1.200e+03 1.200e+03 1.200e+03 1.200e+03 1.200e+03 1.200e+03 1.200e+03 1.200e+03 1.200e+03 1.200e+03 1.200e+03 1.200e+03 1.200e+03 1.200e+03 1.200e+03 1.200e+03 1.200e+03 1.200e+03 1.200e+03 1.200e+03 1.200e+03 1.200e+03 1.200e+03 1.200e+03 1.200e+03 1.200e+03 1.200e+03 1.200e+03 1.200e+03 1.200e+03 1.200e+03 1.200e+03 1.200e+03 1.200e+03 1.200e+03 1.200e+03 1.200e+03 1.200e+03 1.200e+03 1.200e+03 1.200e+03 1.200e+03 1.200e+03 1.200e+03 1.200e+03 1.200e+03 1.200e+03 1.200e+03 1.200e+03 1.200e+03 1.200e+03 1.200e+03 1.200e+03 1.200e+03 1.200e+03 1.200e+03 1.200e+03 1.200e+03 1.200e+03 1.200e+03 1.200e+03 1.200e+03 1.200e+03 1.200e+03 1.200e+03 1.200e+03 1.200e+03 1.200e+03 1.200e+03 1.200e+03 1.200e+03 1.200e+03 1.200e+03 1.200e+03 1.200e+03 1.200e+03 1.200e+03 1.200e+03 1.200e+03 1.200e+03 1.200e+03 1.200e+03 1.200e+03 1.200e+03 1.200e+03 1.200e+03 1.200e+03 1.200e+03 1.200e+03 1.200e+03 1.200e+03 1.200e+03 1.200e+03 1.200e+03 1.200e+03 1.200e+03 1.200e+03 1.200e+03 1.200e+03 1.200e+03 1.200e+03 1.200e+03 1.200e+03 1.200e+03 1.200e+03 1.200e+03 1.200e+03 1.200e+03 1.200e+03 1.200e+03 1.200e+03 1.200e+03 1.200e+03 1.200e+03 1.200e+03 1.200e+03 1.200e+03 1.200e+03 1.200e+03 1.200e+03 1.200e+03 1.200e+03 1.200e+03 1.200e+03 1.200e+03 1.200e+03 1.200e+03 1.200e+03 1.200e+03 1.200e+03 1.200e+03 1.200e+03 1.200e+03 1.200e+03 1.200e+03 1.200e+03 1.200e+03 1.200e+03 1.200e+03 1.200e+03 1.200e+03 1.200e+03 1.200e+03 1.200e+03 1.200e+03 1.200e+03 1.200e+03 1.200e+03 1.200e+03 1.200e+03 1.200e+03 1.200e+03 1.200e+03 1.200e+03 1.200e+03 1.200e+03 1.200e+03 1.200e+03 1.200e+03 1.200e+03 1.200e+03 1.200e+03 1.200e+03 1.200e+03 1.200e+03 1.200e+03 1.200e+03 1.200e+03 1.200e+03 1.200e+03 1.200e+03 1.200e+03 1.200e+03 1.200e+03 1.200e+03 1.200e+03 1.200e+03 1.200e+03 1.200e+03 1.200e+03
           </DataArray>
           <DataArray type="Float32" Name="nitrate/radiusDepletionZone" NumberOfComponents="1" format="ascii">