<?xml version="1.0"?>
<VTKFile type="UnstructuredGrid" version="0.1" byte_order="LittleEndian">
   <UnstructuredGrid>
      <Piece NumberOfPoints="1560" NumberOfCells="109">
         <Points>
            <DataArray type="Float32" Name="Position" NumberOfComponents="3" format="ascii">
0.021	-5.016	0.005
0.026	-5.001	0.019
0.021	-4.981	0.025
0.008	-4.965	0.022
-0.008	-4.959	0.011
-0.022	-4.964	-0.004
-0.027	-4.979	-0.018
-0.022	-4.999	-0.024
-0.009	-5.015	-0.021
0.007	-5.021	-0.010
-0.561	-5.374	0.650
-0.556	-5.360	0.664
-0.562	-5.342	0.673
-0.576	-5.326	0.671
-0.593	-5.319	0.661
-0.606	-5.324	0.645
-0.611	-5.339	0.630
-0.605	-5.357	0.622
-0.591	-5.373	0.624
-0.574	-5.379	0.634
-0.969	-5.785	1.093
-0.965	-5.773	1.109
-0.972	-5.756	1.120
-0.987	-5.741	1.120
-1.005	-5.734	1.111
-1.018	-5.738	1.094
-1.021	-5.750	1.078
-1.014	-5.767	1.067
-0.999	-5.782	1.067
-0.982	-5.789	1.076
-1.352	-6.220	1.461
-1.357	-6.215	1.481
-1.369	-6.203	1.494
-1.383	-6.188	1.494
-1.395	-6.176	1.481
-1.400	-6.172	1.461
-1.395	-6.176	1.441
-1.383	-6.188	1.429
-1.369	-6.203	1.429
-1.357	-6.215	1.441
0.023	-4.989	-0.024
0.022	-4.970	-0.015
0.013	-4.959	0.001
-0.001	-4.960	0.016
-0.016	-4.972	0.025
-0.024	-4.991	0.025
-0.023	-5.010	0.016
-0.014	-5.021	0.001
0.000	-5.020	-0.015
0.014	-5.008	-0.024
0.682	-5.274	0.586
0.683	-5.256	0.597
0.675	-5.246	0.613
0.660	-5.247	0.629
0.645	-5.259	0.637
0.635	-5.277	0.636
0.634	-5.295	0.625
0.642	-5.305	0.608
0.656	-5.305	0.593
0.672	-5.293	0.585
1.148	-5.660	0.997
1.151	-5.644	1.010
1.144	-5.635	1.028
1.130	-5.636	1.043
1.114	-5.647	1.051
1.102	-5.664	1.047
1.098	-5.680	1.034
1.105	-5.690	1.016
1.119	-5.689	1.001
1.136	-5.677	0.994
1.552	-6.045	1.349
1.572	-6.049	1.353
1.584	-6.061	1.365
1.584	-6.076	1.380
1.572	-6.088	1.392
1.552	-6.093	1.397
1.532	-6.088	1.392
1.519	-6.076	1.380
1.519	-6.061	1.365
1.532	-6.049	1.353
-0.007	-4.963	-0.019
0.008	-4.958	-0.006
0.021	-4.965	0.009
0.025	-4.981	0.022
0.019	-5.001	0.026
0.006	-5.017	0.021
-0.009	-5.022	0.008
-0.022	-5.015	-0.008
-0.026	-4.999	-0.021
-0.020	-4.979	-0.025
0.626	-5.275	-0.647
0.642	-5.270	-0.634
0.653	-5.277	-0.618
0.656	-5.293	-0.605
0.650	-5.312	-0.600
0.635	-5.327	-0.604
0.619	-5.332	-0.617
0.607	-5.325	-0.633
0.604	-5.309	-0.646
0.611	-5.290	-0.651
1.066	-5.634	-1.115
1.082	-5.631	-1.102
1.094	-5.638	-1.086
1.095	-5.653	-1.072
1.086	-5.671	-1.066
1.071	-5.685	-1.069
1.054	-5.689	-1.081
1.043	-5.681	-1.098
1.041	-5.666	-1.112
1.050	-5.648	-1.118
1.467	-6.058	-1.508
1.476	-6.041	-1.499
1.476	-6.020	-1.499
1.468	-6.003	-1.507
1.454	-5.996	-1.521
1.440	-6.002	-1.536
1.431	-6.019	-1.544
1.431	-6.040	-1.545
1.439	-6.057	-1.536
1.453	-6.064	-1.522
-0.021	-4.996	0.027
-0.023	-4.976	0.022
-0.017	-4.961	0.008
-0.005	-4.958	-0.008
0.009	-4.966	-0.021
0.020	-4.984	-0.026
0.022	-5.004	-0.020
0.016	-5.019	-0.007
0.004	-5.023	0.010
-0.010	-5.014	0.023
-0.711	-5.255	-0.560
-0.716	-5.235	-0.566
-0.713	-5.220	-0.579
-0.701	-5.214	-0.596
-0.687	-5.221	-0.610
-0.674	-5.237	-0.614
-0.668	-5.256	-0.609
-0.672	-5.272	-0.595
-0.683	-5.277	-0.578
-0.698	-5.271	-0.565
-1.200	-5.605	-0.976
-1.211	-5.588	-0.980
-1.213	-5.571	-0.992
-1.205	-5.562	-1.009
-1.191	-5.563	-1.024
-1.175	-5.575	-1.032
-1.163	-5.592	-1.028
-1.161	-5.609	-1.015
-1.169	-5.618	-0.998
-1.184	-5.617	-0.983
-1.564	-5.984	-1.421
-1.554	-5.984	-1.402
-1.558	-5.984	-1.381
-1.573	-5.984	-1.366
-1.593	-5.984	-1.363
-1.612	-5.984	-1.373
-1.622	-5.984	-1.391
-1.618	-5.984	-1.412
-1.603	-5.984	-1.427
-1.583	-5.984	-1.430
-0.148	-5.000	0.149
-0.033	-5.000	0.207
0.095	-5.000	0.187
0.187	-5.000	0.095
0.207	-5.000	-0.033
0.148	-5.000	-0.149
0.033	-5.000	-0.207
-0.095	-5.000	-0.187
-0.187	-5.000	-0.095
-0.207	-5.000	0.033
-0.147	-4.040	0.148
-0.032	-4.041	0.206
0.094	-4.041	0.186
0.185	-4.041	0.095
0.205	-4.040	-0.032
0.147	-4.040	-0.146
0.032	-4.040	-0.204
-0.094	-4.039	-0.184
-0.185	-4.040	-0.093
-0.205	-4.040	0.034
-0.145	-3.561	0.150
-0.031	-3.561	0.208
0.096	-3.561	0.187
0.186	-3.561	0.097
0.205	-3.560	-0.030
0.147	-3.560	-0.143
0.033	-3.559	-0.201
-0.093	-3.559	-0.181
-0.183	-3.560	-0.090
-0.203	-3.560	0.036
-0.145	-3.001	0.152
-0.031	-3.001	0.209
0.094	-3.000	0.189
0.184	-3.000	0.099
0.204	-2.999	-0.027
0.146	-2.999	-0.141
0.032	-3.000	-0.198
-0.094	-3.000	-0.178
-0.184	-3.000	-0.088
-0.203	-3.001	0.038
-0.147	-2.401	0.152
-0.034	-2.401	0.209
0.092	-2.400	0.189
0.181	-2.400	0.099
0.201	-2.399	-0.026
0.142	-2.399	-0.139
0.029	-2.400	-0.197
-0.096	-2.400	-0.176
-0.186	-2.401	-0.086
-0.205	-2.401	0.039
-0.149	-1.800	0.153
-0.037	-1.800	0.211
0.089	-1.800	0.191
0.178	-1.800	0.101
0.198	-1.800	-0.024
0.140	-1.800	-0.137
0.027	-1.800	-0.194
-0.098	-1.800	-0.174
-0.187	-1.800	-0.085
-0.207	-1.800	0.041
-0.148	-1.200	0.151
-0.035	-1.200	0.208
0.089	-1.200	0.189
0.179	-1.200	0.100
0.199	-1.201	-0.025
0.142	-1.201	-0.138
0.029	-1.201	-0.195
-0.096	-1.200	-0.176
-0.185	-1.200	-0.086
-0.205	-1.200	0.038
-0.147	-0.600	0.150
-0.035	-0.600	0.208
0.090	-0.600	0.188
0.179	-0.600	0.099
0.199	-0.601	-0.025
0.142	-0.601	-0.138
0.030	-0.601	-0.195
-0.094	-0.600	-0.176
-0.184	-0.600	-0.087
-0.204	-0.600	0.038
-0.146	0.001	0.147
-0.034	0.001	0.204
0.091	-0.000	0.185
0.180	-0.001	0.097
0.200	-0.001	-0.027
0.143	-0.001	-0.140
0.032	-0.001	-0.197
-0.093	-0.000	-0.178
-0.182	0.001	-0.090
-0.202	0.001	0.035
-0.140	0.562	0.146
-0.028	0.561	0.203
0.096	0.560	0.185
0.185	0.559	0.096
0.205	0.558	-0.028
0.149	0.558	-0.140
0.038	0.559	-0.198
-0.086	0.560	-0.179
-0.176	0.561	-0.090
-0.196	0.562	0.033
-0.137	1.041	0.142
-0.025	1.041	0.199
0.099	1.040	0.180
0.188	1.039	0.092
0.208	1.039	-0.032
0.152	1.038	-0.144
0.040	1.039	-0.201
-0.084	1.039	-0.182
-0.173	1.040	-0.094
-0.193	1.041	0.030
-0.133	1.760	0.141
-0.022	1.760	0.198
0.101	1.760	0.179
0.190	1.760	0.090
0.210	1.760	-0.033
0.153	1.759	-0.145
0.042	1.759	-0.201
-0.082	1.760	-0.182
-0.170	1.760	-0.094
-0.190	1.760	0.030
-0.133	2.576	0.138
-0.023	2.576	0.194
0.099	2.576	0.175
0.186	2.576	0.088
0.206	2.576	-0.035
0.150	2.576	-0.145
0.039	2.576	-0.201
-0.083	2.575	-0.181
-0.170	2.575	-0.094
-0.189	2.576	0.028
0.013	-5.112	-0.002
0.017	-5.104	0.002
0.017	-5.095	0.003
0.013	-5.087	-0.001
0.006	-5.085	-0.007
-0.000	-5.087	-0.013
-0.004	-5.095	-0.017
-0.004	-5.104	-0.017
0.000	-5.112	-0.014
0.007	-5.114	-0.008
-0.549	-5.147	0.610
-0.545	-5.139	0.613
-0.544	-5.130	0.613
-0.548	-5.122	0.610
-0.555	-5.119	0.604
-0.562	-5.122	0.599
-0.567	-5.130	0.596
-0.567	-5.139	0.596
-0.563	-5.147	0.599
-0.556	-5.149	0.605
-0.687	-5.117	0.823
-0.682	-5.110	0.825
-0.681	-5.100	0.825
-0.685	-5.093	0.821
-0.692	-5.090	0.816
-0.700	-5.092	0.811
-0.705	-5.100	0.809
-0.706	-5.109	0.810
-0.702	-5.117	0.813
-0.694	-5.120	0.819
-0.005	-5.189	-0.013
0.003	-5.185	-0.014
0.012	-5.185	-0.015
0.019	-5.191	-0.016
0.021	-5.200	-0.017
0.018	-5.209	-0.016
0.010	-5.214	-0.014
0.001	-5.213	-0.013
-0.006	-5.207	-0.012
-0.008	-5.198	-0.012
-0.120	-5.208	-0.752
-0.113	-5.203	-0.753
-0.104	-5.203	-0.755
-0.097	-5.208	-0.757
-0.094	-5.217	-0.758
-0.097	-5.226	-0.759
-0.104	-5.231	-0.758
-0.113	-5.231	-0.756
-0.121	-5.226	-0.754
-0.123	-5.217	-0.753
-0.245	-5.101	-1.270
-0.238	-5.095	-1.270
-0.228	-5.094	-1.272
-0.221	-5.099	-1.275
-0.218	-5.107	-1.278
-0.220	-5.116	-1.279
-0.227	-5.122	-1.279
-0.237	-5.123	-1.277
-0.244	-5.118	-1.274
-0.247	-5.109	-1.271
0.091	-6.057	-0.238
0.093	-6.053	-0.229
0.094	-6.055	-0.220
0.095	-6.061	-0.214
0.094	-6.071	-0.213
0.093	-6.079	-0.217
0.091	-6.082	-0.226
0.090	-6.081	-0.235
0.090	-6.074	-0.241
0.090	-6.065	-0.242
0.893	-6.111	-0.362
0.894	-6.108	-0.353
0.894	-6.109	-0.344
0.895	-6.116	-0.338
0.895	-6.125	-0.337
0.895	-6.133	-0.341
0.894	-6.137	-0.349
0.893	-6.136	-0.359
0.893	-6.129	-0.365
0.893	-6.120	-0.366
1.139	-6.098	-0.362
1.139	-6.094	-0.354
1.139	-6.096	-0.344
1.140	-6.102	-0.338
1.140	-6.112	-0.337
1.141	-6.120	-0.341
1.141	-6.124	-0.350
1.141	-6.122	-0.359
1.140	-6.115	-0.365
1.140	-6.106	-0.366
0.088	-6.160	-0.242
0.093	-6.153	-0.244
0.101	-6.150	-0.248
0.109	-6.153	-0.252
0.113	-6.160	-0.256
0.112	-6.170	-0.257
0.107	-6.177	-0.256
0.099	-6.180	-0.252
0.091	-6.177	-0.247
0.087	-6.169	-0.244
-0.295	-6.032	-0.952
-0.289	-6.025	-0.952
-0.280	-6.023	-0.955
-0.273	-6.026	-0.959
-0.269	-6.034	-0.963
-0.271	-6.042	-0.966
-0.277	-6.049	-0.966
-0.286	-6.051	-0.963
-0.293	-6.048	-0.959
-0.297	-6.040	-0.955
-0.311	-5.997	-1.015
-0.304	-5.991	-1.013
-0.295	-5.990	-1.015
-0.287	-5.994	-1.019
-0.284	-6.001	-1.024
-0.286	-6.009	-1.027
-0.294	-6.015	-1.029
-0.303	-6.016	-1.027
-0.310	-6.013	-1.023
-0.313	-6.005	-1.019
0.114	-6.256	-0.284
0.112	-6.249	-0.279
0.108	-6.247	-0.270
0.104	-6.251	-0.263
0.101	-6.258	-0.259
0.101	-6.268	-0.260
0.103	-6.275	-0.265
0.107	-6.277	-0.273
0.111	-6.273	-0.281
0.114	-6.266	-0.285
0.815	-6.304	0.070
0.812	-6.298	0.076
0.808	-6.297	0.084
0.806	-6.302	0.092
0.804	-6.310	0.096
0.805	-6.319	0.094
0.808	-6.325	0.088
0.811	-6.326	0.079
0.814	-6.322	0.071
0.815	-6.313	0.068
0.881	-6.294	0.091
0.878	-6.289	0.098
0.876	-6.290	0.107
0.874	-6.295	0.114
0.874	-6.304	0.117
0.876	-6.313	0.114
0.879	-6.318	0.107
0.882	-6.318	0.098
0.883	-6.312	0.091
0.883	-6.303	0.088
0.124	-6.371	-0.291
0.126	-6.365	-0.285
0.123	-6.356	-0.282
0.118	-6.349	-0.284
0.111	-6.346	-0.289
0.106	-6.348	-0.297
0.104	-6.354	-0.303
0.107	-6.362	-0.306
0.112	-6.370	-0.304
0.119	-6.373	-0.299
-0.400	-6.670	0.144
-0.398	-6.663	0.151
-0.401	-6.655	0.154
-0.406	-6.648	0.152
-0.413	-6.644	0.146
-0.418	-6.647	0.139
-0.420	-6.653	0.133
-0.418	-6.662	0.130
-0.412	-6.669	0.131
-0.406	-6.672	0.137
-0.507	-6.729	0.244
-0.505	-6.723	0.250
-0.507	-6.714	0.253
-0.513	-6.707	0.251
-0.520	-6.704	0.246
-0.525	-6.706	0.239
-0.527	-6.713	0.232
-0.525	-6.721	0.230
-0.520	-6.728	0.231
-0.513	-6.731	0.237
0.124	-6.448	-0.326
0.127	-6.443	-0.319
0.128	-6.445	-0.309
0.127	-6.450	-0.302
0.123	-6.459	-0.300
0.119	-6.466	-0.303
0.116	-6.470	-0.311
0.115	-6.469	-0.320
0.116	-6.464	-0.327
0.119	-6.455	-0.329
0.913	-6.813	-0.467
0.916	-6.809	-0.460
0.918	-6.810	-0.451
0.916	-6.815	-0.443
0.913	-6.824	-0.441
0.909	-6.831	-0.444
[...]
         <CellData>
           <DataArray type="Float32" Name="combinedRootClassID" NumberOfComponents="1" format="ascii">
 -5.000e+00 -5.000e+00 -5.000e+00 -5.000e+00 -5.000e+00 -5.000e+00 -5.000e+00 -5.000e+00 -5.000e+00 -5.000e+00 -5.000e+00 -5.000e+00 -2.000e+00 -2.000e+00 -2.000e+00 -2.000e+00 -2.000e+00 -2.000e+00 -2.000e+00 -2.000e+00 -2.000e+00 -2.000e+00 -2.000e+00 -2.000e+00 -7.000e+00 -7.000e+00 -7.000e+00 -7.000e+00 -7.000e+00 -7.000e+00 -7.000e+00 -7.000e+00 -7.000e+00 -7.000e+00 -7.000e+00 -7.000e+00 -7.000e+00 -7.000e+00 -7.000e+00 -7.000e+00 -7.000e+00 -7.000e+00 -7.000e+00 -7.000e+00 -7.000e+00 -7.000e+00 -7.000e+00 -7.000e+00 -7.000e+00 -7.000e+00 -7.000e+00 -7.000e+00 -7.000e+00 -7.000e+00 -7.000e+00 -7.000e+00 -7.000e+00 -7.000e+00 -7.000e+00 -7.000e+00 -7.000e+00 -7.000e+00 -7.000e+00 -7.000e+00 -7.000e+00 -7.000e+00 -7.000e+00 -7.000e+00 -7.000e+00 -7.000e+00 -7.000e+00 -7.000e+00 -7.000e+00 -7.000e+00 -7.000e+00 -7.000e+00 -7.000e+00 -7.000e+00 -7.000e+00 -7.000e+00 -4.000e+00 -4.000e+00 -4.000e+00 -4.000e+00 -4.000e+00 -4.000e+00 -4.000e+00 -4.000e+00 -4.000e+00 -4.000e+00 -4.000e+00 -4.000e+00 -4.000e+00 -4.000e+00 -4.000e+00 -4.000e+00 -4.000e+00 -4.000e+00 -4.000e+00 -4.000e+00 -4.000e+00 -4.000e+00 -4.000e+00 -4.000e+00 -4.000e+00 -4.000e+00 -4.000e+00 -4.000e+00 -4.000e+00
           </DataArray>
           <DataArray type="Float32" Name="nitrate/minimalNutrientConcentration" NumberOfComponents="1" format="ascii">
 6.000e+02 6.000e+02 6.000e+02 6.000e+02 6.000e+02 6.000e+02 6.000e+02 6.000e+02 6.000e+02 6.000e+02 6.000e+02 6.000e+02 6.000e+02 6.000e+02 6.000e+02 6.000e+02 6.000e+02 6.000e+02 6.000e+02 6.000e+02 6.000e+02 6.000e+02 6.000e+02 6.000e+02 6.000e+02 6.000e+02 6.000e+02 6.000e+02 6.000e+02 6.000e+02 6.000e+02 6.000e+02 6.000e+02 6.000e+02 6.000e+02 6.000e+02 6.000e+02 6.000e+02 6.000e+02 6.000e+02 6.000e+02 6.000e+02 6.000e+02 6.000e+02 6.000e+02 6.000e+02 6.000e+02 6.000e+02 6.000e+02 6.000e+02 6.000e+02 6.000e+02 6.000e+02 6.000e+02 6.000e+02 6.000e+02 6.000e+02 6.000e+02 6.000e+02 6.000e+02 6.000e+02 6.000e+02 6.000e+02 6.000e+02 6.000e+02 6.000e+02 6.000e+02 6.000e+02 6.000e+02 6.000e+02 6.000e+02 6.000e+02 6.000e+02 6.000e+02 6.000e+02 6.000e+02 6.000e+02 6.000e+02 6.000e+02 6.000e+02 6.000e+02 6.000e+02 6.000e+02 6.000e+02 6.000e+02 6.000e+02 6.000e+02 6.000e+02 6.000e+02 6.000e+02 6.000e+02 6.000e+02 6.000e+02 6.000e+02 6.000e+02 6.000e+02 6.000e+02 6.000e+02 6.000e+02 6.000e+02 6.000e+02 6.000e+02 6.000e+02 6.000e+02 6.000e+02 6.000e+02 6.000e+02 6.000e+02 6.000e+02
           </DataArray>
           <DataArray type="Float32" Name="nitrate/optimalNutrientConcentration" NumberOfComponents="1" format="ascii">
 1.200e+03 1.200e+03 1.200e+03 1.200e+03 1.200e+03 1.200e+03 1.200e+03 1.200e+03 1.200e+03 1.200e+03 1.200e+03 1.200e+03 1.200e+03 1.200e+03 1.200e+03 1.200e+03 1.200e+03 1.200e+03 1.200e+03 1.200e+03 1.200e+03 1.200e+03 1.200e+03 1.200e+03 1.200e+03 1.200e+03 1.200e+03 1.200e+03 1.200e+03 1.200e+03 1.200e+03 1.200e+03 1.200e+03 1.200e+03 1.200e+03 1.200e+03 1.200e+03 1.200e+03 1.200e+03 1.200e+03 1.200e+03 1.200e+03 1.200e+03 1.200e+03 1.200e+03 1.200e+03 1.200e+03 1.200e+03 1.200e+03 1.200e+03 1.200e+03 1.200e+03 1.200e+03 1.200e+03 1.200e+03 1.200e+03 1.200e+03 1.200e+03 1.200e+03 1.200e+03 1.200e+03 1.200e+03 1.200e+03 1.200e+03 1.200e+03 1.200e+03 1.200e+03 1.200e+03 1.200e+03 1.200e+03 1.200e+03 1.200e+03 1.200e+03 1.200e+03 1.200e+03 1.200e+03 1.200e+03 1.200e+03 1.200e+03 1.200e+03 1.200e+03 1.200e+03 1.200e+03 1.200e+03 1.200e+03 1.200e+03 1.200e+03 1.200e+03 1.200e+03 1.200e+03 1.200e+03 1.200e+03 1.200e+03 1.200e+03 1.200e+03 1.200e+03 1.200e+03 1.200e+03 1.200e+03 1.200e+03 1.200e+03 1.200e+03 1.200e+03 1.200e+03 1.200e+03 1.200e+03 1.200e+03 1.200e+03 1.200e+03
           </DataArray>
           <DataArray type="Float32" Name="nitrate/radiusDepletionZone" NumberOfComponents="1" format="ascii">
 3.400e-02 3.400e-02 3.074e-01 3.400e-02 3.400e-02 2.519e-01 3.400e-02 3.400e-02 3.074e-01 3.400e-02 3.400e-02 3.074e-01 1.500e+00 3.299e+00 1.122e+01 8.975e+00 6.831e+00 5.853e+00 5.119e+00 4.549e+00 4.093e+00 2.025e-01 2.022e-01 2.017e-01 1.501e-02 1.500e-02 1.501e-02 1.500e-02 1.500e-02 1.500e-02 1.500e-02 1.500e-02 1.500e-02 1.500e-02 1.500e-02 1.500e-02 1.500e-02 1.500e-02 1.500e-02 1.500e-02 1.500e-02 1.500e-02 1.500e-02 1.500e-02 1.500e-02 1.500e-02 1.500e-02 1.500e-02 1.500e-02 1.500e-02 1.500e-02 1.500e-02 1.500e-02 1.500e-02 1.500e-02 1.500e-02 1.500e-02 1.500e-02 1.500e-02 1.500e-02 1.500e-02 1.500e-02 1.500e-02 1.500e-02 1.500e-02 1.500e-02 1.500e-02 1.500e-02 1.500e-02 1.500e-02 1.500e-02 3.337e-01 1.500e-02 1.500e-02 1.500e-02 1.500e-02 1.500e-02 1.500e-02 1.500e-02 1.500e-02 1.212e+00 1.766e+01 1.210e+01 9.073e+00 6.482e+00 5.400e+00 4.627e+00 4.048e+00 3.598e+00 2.850e+00 2.590e+00 2.374e+00 2.191e+00 2.034e+00 1.898e+00 1.538e+00 1.447e+00 1.366e+00 1.294e+00 1.036e+00 9.864e-01 9.415e-01 7.321e-01 7.016e-01 6.735e-01 4.986e-01 4.801e-01 3.247e-01 1.800e-01
           </DataArray>
           <DataArray type="Float32" Name="nitrate/rootSegmentMinimalNutrientContent" NumberOfComponents="1" format="ascii">
 1.941e-01 1.502e-01 1.406e-01 1.941e-01 1.502e-01 1.406e-01 1.941e-01 1.502e-01 1.406e-01 1.941e-01 1.502e-01 1.406e-01 7.418e+00 3.665e+00 4.245e+00 4.517e+00 4.488e+00 4.462e+00 4.439e+00 4.419e+00 4.109e+00 3.510e+00 5.249e+00 5.850e+00 3.359e-02 1.021e-02 3.044e-02 2.189e-02 3.251e-02 9.839e-03 3.316e-02 2.886e-03 3.192e-02 2.885e-03 3.031e-02 6.289e-03 3.540e-02 3.185e-02 2.991e-02 3.194e-03 2.956e-02 2.714e-02 2.670e-02 3.452e-02 1.526e-02 2.431e-02 2.341e-02 2.740e-02 2.093e-02 1.872e-02 1.872e-02 1.823e-02 2.090e-02 1.888e-02 1.379e-02 3.218e-02 1.953e-02 1.299e-02 1.277e-02 9.952e-03 9.885e-03 8.240e-03 7.001e-03 5.837e-03 4.776e-03 3.344e-03 1.922e-03 3.566e-02 1.244e-02 5.233e-04 3.337e-02 1.209e-02 3.069e-02 1.597e-02 3.261e-02 1.775e-02 3.266e-02 5.552e-03 3.044e-02 1.304e-02 4.302e-01 2.071e-01 2.033e-01 1.998e-01 1.965e-01 1.934e-01 1.907e-01 1.883e-01 1.862e-01 1.845e-01 1.830e-01 1.815e-01 1.802e-01 1.789e-01 1.777e-01 1.766e-01 1.756e-01 1.746e-01 1.737e-01 1.729e-01 1.722e-01 1.716e-01 1.710e-01 1.705e-01 1.701e-01 1.697e-01 1.695e-01 1.693e-01 1.692e-01
           </DataArray>
           <DataArray type="Float32" Name="nitrate/rootSegmentNutrientUptake" NumberOfComponents="1" format="ascii">
 0.000e+00 0.000e+00 2.762e-02 0.000e+00 0.000e+00 2.737e-02 0.000e+00 0.000e+00 2.751e-02 0.000e+00 0.000e+00 2.747e-02 3.924e+00 1.297e+00 3.072e+00 3.342e+00 4.584e+00 2.563e+00 2.733e+00 2.080e+01 6.627e+00 0.000e+00 0.000e+00 0.000e+00 0.000e+00 0.000e+00 0.000e+00 0.000e+00 0.000e+00 0.000e+00 0.000e+00 0.000e+00 0.000e+00 0.000e+00 0.000e+00 0.000e+00 0.000e+00 0.000e+00 0.000e+00 0.000e+00 0.000e+00 0.000e+00 0.000e+00 0.000e+00 0.000e+00 0.000e+00 0.000e+00 0.000e+00 0.000e+00 0.000e+00 0.000e+00 0.000e+00 0.000e+00 0.000e+00 0.000e+00 0.000e+00 0.000e+00 0.000e+00 0.000e+00 0.000e+00 0.000e+00 0.000e+00 0.000e+00 0.000e+00 0.000e+00 0.000e+00 0.000e+00 0.000e+00 0.000e+00 0.000e+00 0.000e+00 7.829e-03 0.000e+00 0.000e+00 0.000e+00 0.000e+00 0.000e+00 0.000e+00 0.000e+00 0.000e+00 1.022e+00 5.978e-01 5.248e-01 5.218e-01 5.157e-01 5.115e-01 5.084e-01 5.004e-01 4.908e-01 4.813e-01 4.735e-01 4.609e-01 4.488e-01 4.357e-01 4.209e-01 4.048e-01 3.893e-01 3.714e-01 3.507e-01 3.292e-01 3.052e-01 2.762e-01 2.425e-01 2.072e-01 1.729e-01 1.364e-01 9.908e-02 5.970e-02 1.653e-02
           </DataArray>
           <DataArray type="Float32" Name="nitrate/rootSegmentOptimalNutrientContent" NumberOfComponents="1" format="ascii">
 3.882e-01 3.003e-01 2.812e-01 3.882e-01 3.003e-01 2.812e-01 3.882e-01 3.003e-01 2.812e-01 3.882e-01 3.003e-01 2.812e-01 1.484e+01 7.331e+00 8.490e+00 9.034e+00 8.976e+00 8.924e+00 8.878e+00 8.839e+00 8.218e+00 7.021e+00 1.050e+01 1.170e+01 6.718e-02 2.041e-02 6.088e-02 4.378e-02 6.502e-02 1.968e-02 6.633e-02 5.773e-03 6.383e-02 5.769e-03 6.062e-02 1.258e-02 7.079e-02 6.370e-02 5.982e-02 6.387e-03 5.911e-02 5.427e-02 5.340e-02 6.905e-02 3.052e-02 4.863e-02 4.682e-02 5.480e-02 4.186e-02 3.744e-02 3.745e-02 3.646e-02 4.179e-02 3.776e-02 2.757e-02 6.436e-02 3.906e-02 2.598e-02 2.555e-02 1.990e-02 1.977e-02 1.648e-02 1.400e-02 1.167e-02 9.552e-03 6.689e-03 3.844e-03 7.132e-02 2.489e-02 1.047e-03 6.674e-02 2.419e-02 6.138e-02 3.193e-02 6.521e-02 3.550e-02 6.532e-02 1.110e-02 6.088e-02 2.608e-02 8.605e-01 4.141e-01 4.067e-01 3.996e-01 3.929e-01 3.868e-01 3.814e-01 3.766e-01 3.725e-01 3.690e-01 3.660e-01 3.631e-01 3.604e-01 3.578e-01 3.554e-01 3.532e-01 3.511e-01 3.492e-01 3.474e-01 3.458e-01 3.444e-01 3.431e-01 3.420e-01 3.410e-01 3.402e-01 3.395e-01 3.390e-01 3.386e-01 3.384e-01
           </DataArray>
           <DataArray type="Float32" Name="parentRootClassID" NumberOfComponents="1" format="ascii">
 -2.000e+00 -2.000e+00 -2.000e+00 -2.000e+00 -2.000e+00 -2.000e+00 -2.000e+00 -2.000e+00 -2.000e+00 -2.000e+00 -2.000e+00 -2.000e+00 -3.000e+00 -3.000e+00 -3.000e+00 -3.000e+00 -3.000e+00 -3.000e+00 -3.000e+00 -3.000e+00 -3.000e+00 -3.000e+00 -3.000e+00 -3.000e+00 -4.000e+00 -4.000e+00 -4.000e+00 -4.000e+00 -4.000e+00 -4.000e+00 -4.000e+00 -4.000e+00 -4.000e+00 -4.000e+00 -4.000e+00 -4.000e+00 -4.000e+00 -4.000e+00 -4.000e+00 -4.000e+00 -4.000e+00 -4.000e+00 -4.000e+00 -4.000e+00 -4.000e+00 -4.000e+00 -4.000e+00 -4.000e+00 -4.000e+00 -4.000e+00 -4.000e+00 -4.000e+00 -4.000e+00 -4.000e+00 -4.000e+00 -4.000e+00 -4.000e+00 -4.000e+00 -4.000e+00 -4.000e+00 -4.000e+00 -4.000e+00 -4.000e+00 -4.000e+00 -4.000e+00 -4.000e+00 -4.000e+00 -4.000e+00 -4.000e+00 -4.000e+00 -4.000e+00 -4.000e+00 -4.000e+00 -4.000e+00 -4.000e+00 -4.000e+00 -4.000e+00 -4.000e+00 -4.000e+00 -4.000e+00 -3.000e+00 -3.000e+00 -3.000e+00 -3.000e+00 -3.000e+00 -3.000e+00 -3.000e+00 -3.000e+00 -3.000e+00 -3.000e+00 -3.000e+00 -3.000e+00 -3.000e+00 -3.000e+00 -3.000e+00 -3.000e+00 -3.000e+00 -3.000e+00 -3.000e+00 -3.000e+00 -3.000e+00 -3.000e+00 -3.000e+00 -3.000e+00 -3.000e+00 -3.000e+00 -3.000e+00 -3.000e+00 -3.000e+00
           </DataArray>
           <DataArray type="Float32" Name="plantID" NumberOfComponents="1" format="ascii">
 7.000e+00 7.000e+00 7.000e+00 7.000e+00 7.000e+00 7.000e+00 7.000e+00 7.000e+00 7.000e+00 7.000e+00 7.000e+00 7.000e+00 7.000e+00 7.000e+00 7.000e+00 7.000e+00 7.000e+00 7.000e+00 7.000e+00 7.000e+00 7.000e+00 7.000e+00 7.000e+00 7.000e+00 7.000e+00 7.000e+00 7.000e+00 7.000e+00 7.000e+00 7.000e+00 7.000e+00 7.000e+00 7.000e+00 7.000e+00 7.000e+00 7.000e+00 7.000e+00 7.000e+00 7.000e+00 7.000e+00 7.000e+00 7.000e+00 7.000e+00 7.000e+00 7.000e+00 7.000e+00 7.000e+00 7.000e+00 7.000e+00 7.000e+00 7.000e+00 7.000e+00 7.000e+00 7.000e+00 7.000e+00 7.000e+00 7.000e+00 7.000e+00 7.000e+00 7.000e+00 7.000e+00 7.000e+00 7.000e+00 7.000e+00 7.000e+00 7.000e+00 7.000e+00 7.000e+00 7.000e+00 7.000e+00 7.000e+00 7.000e+00 7.000e+00 7.000e+00 7.000e+00 7.000e+00 7.000e+00 7.000e+00 7.000e+00 7.000e+00 7.000e+00 7.000e+00 7.000e+00 7.000e+00 7.000e+00 7.000e+00 7.000e+00 7.000e+00 7.000e+00 7.000e+00 7.000e+00 7.000e+00 7.000e+00 7.000e+00 7.000e+00 7.000e+00 7.000e+00 7.000e+00 7.000e+00 7.000e+00 7.000e+00 7.000e+00 7.000e+00 7.000e+00 7.000e+00 7.000e+00 7.000e+00 7.000e+00 7.000e+00
           </DataArray>
           <DataArray type="Float32" Name="plantTypeID" NumberOfComponents="1" format="ascii">
 0.000e+00 0.000e+00 0.000e+00 0.000e+00 0.000e+00 0.000e+00 0.000e+00 0.000e+00 0.000e+00 0.000e+00 0.000e+00 0.000e+00 0.000e+00 0.000e+00 0.000e+00 0.000e+00 0.000e+00 0.000e+00 0.000e+00 0.000e+00 0.000e+00 0.000e+00 0.000e+00 0.000e+00 0.000e+00 0.000e+00 0.000e+00 0.000e+00 0.000e+00 0.000e+00 0.000e+00 0.000e+00 0.000e+00 0.000e+00 0.000e+00 0.000e+00 0.000e+00 0.000e+00 0.000e+00 0.000e+00 0.000e+00 0.000e+00 0.000e+00 0.000e+00 0.000e+00 0.000e+00 0.000e+00 0.000e+00 0.000e+00 0.000e+00 0.000e+00 0.000e+00 0.000e+00 0.000e+00 0.000e+00 0.000e+00 0.000e+00 0.000e+00 0.000e+00 0.000e+00 0.000e+00 0.000e+00 0.000e+00 0.000e+00 0.000e+00 0.000e+00 0.000e+00 0.000e+00 0.000e+00 0.000e+00 0.000e+00 0.000e+00 0.000e+00 0.000e+00 0.000e+00 0.000e+00 0.000e+00 0.000e+00 0.000e+00 0.000e+00 0.000e+00 0.000e+00 0.000e+00 0.000e+00 0.000e+00 0.000e+00 0.000e+00 0.000e+00 0.000e+00 0.000e+00 0.000e+00 0.000e+00 0.000e+00 0.000e+00 0.000e+00 0.000e+00 0.000e+00 0.000e+00 0.000e+00 0.000e+00 0.000e+00 0.000e+00 0.000e+00 0.000e+00 0.000e+00 0.000e+00 0.000e+00 0.000e+00 0.000e+00
           </DataArray>
           <DataArray type="Float32" Name="rootCircumference" NumberOfComponents="1" format="ascii">
 2.136e-01 2.136e-01 2.136e-01 2.136e-01 2.136e-01 2.136e-01 2.136e-01 2.136e-01 2.136e-01 2.136e-01 2.136e-01 2.136e-01 1.320e+00 1.304e+00 1.300e+00 1.295e+00 1.291e+00 1.287e+00 1.284e+00 1.281e+00 1.279e+00 1.276e+00 1.274e+00 1.271e+00 9.431e-02 9.425e-02 9.430e-02 9.426e-02 9.428e-02 9.425e-02 9.428e-02 9.425e-02 9.428e-02 9.425e-02 9.427e-02 9.425e-02 9.427e-02 9.427e-02 9.427e-02 9.425e-02 9.427e-02 9.427e-02 9.426e-02 9.430e-02 9.425e-02 9.426e-02 9.426e-02 9.426e-02 9.426e-02 9.426e-02 9.426e-02 9.426e-02 9.425e-02 9.425e-02 9.425e-02 9.430e-02 9.425e-02 9.425e-02 9.425e-02 9.425e-02 9.425e-02 9.425e-02 9.425e-02 9.425e-02 9.425e-02 9.425e-02 9.425e-02 9.429e-02 9.425e-02 9.425e-02 9.429e-02 9.425e-02 9.429e-02 9.425e-02 9.429e-02 9.425e-02 9.428e-02 9.425e-02 9.428e-02 9.425e-02 3.189e-01 3.128e-01 3.100e-01 3.073e-01 3.047e-01 3.023e-01 3.002e-01 2.983e-01 2.967e-01 2.953e-01 2.941e-01 2.929e-01 2.918e-01 2.908e-01 2.898e-01 2.889e-01 2.881e-01 2.873e-01 2.865e-01 2.859e-01 2.853e-01 2.848e-01 2.843e-01 2.839e-01 2.835e-01 2.832e-01 2.830e-01 2.829e-01 2.828e-01
           </DataArray>
           <DataArray type="Float32" Name="rootClassID" NumberOfComponents="1" format="ascii">
 9.900e+01 9.900e+01 9.900e+01 9.900e+01 9.900e+01 9.900e+01 9.900e+01 9.900e+01 9.900e+01 9.900e+01 9.900e+01 9.900e+01 -2.000e+00 -2.000e+00 -2.000e+00 -2.000e+00 -2.000e+00 -2.000e+00 -2.000e+00 -2.000e+00 -2.000e+00 -2.000e+00 -2.000e+00 -2.000e+00 9.700e+01 9.700e+01 9.700e+01 9.700e+01 9.700e+01 9.700e+01 9.700e+01 9.700e+01 9.700e+01 9.700e+01 9.700e+01 9.700e+01 9.700e+01 9.700e+01 9.700e+01 9.700e+01 9.700e+01 9.700e+01 9.700e+01 9.700e+01 9.700e+01 9.700e+01 9.700e+01 9.700e+01 9.700e+01 9.700e+01 9.700e+01 9.700e+01 9.700e+01 9.700e+01 9.700e+01 9.700e+01 9.700e+01 9.700e+01 9.700e+01 9.700e+01 9.700e+01 9.700e+01 9.700e+01 9.700e+01 9.700e+01 9.700e+01 9.700e+01 9.700e+01 9.700e+01 9.700e+01 9.700e+01 9.700e+01 9.700e+01 9.700e+01 9.700e+01 9.700e+01 9.700e+01 9.700e+01 9.700e+01 9.700e+01 -4.000e+00 -4.000e+00 -4.000e+00 -4.000e+00 -4.000e+00 -4.000e+00 -4.000e+00 -4.000e+00 -4.000e+00 -4.000e+00 -4.000e+00 -4.000e+00 -4.000e+00 -4.000e+00 -4.000e+00 -4.000e+00 -4.000e+00 -4.000e+00 -4.000e+00 -4.000e+00 -4.000e+00 -4.000e+00 -4.000e+00 -4.000e+00 -4.000e+00 -4.000e+00 -4.000e+00 -4.000e+00 -4.000e+00
           </DataArray>
           <DataArray type="Float32" Name="rootDiameter" NumberOfComponents="1" format="ascii">
 6.800e-02 6.800e-02 6.800e-02 6.800e-02 6.800e-02 6.800e-02 6.800e-02 6.800e-02 6.800e-02 6.800e-02 6.800e-02 6.800e-02 4.201e-01 4.152e-01 4.137e-01 4.123e-01 4.109e-01 4.097e-01 4.087e-01 4.078e-01 4.070e-01 4.063e-01 4.057e-01 4.045e-01 3.002e-02 3.000e-02 3.002e-02 3.000e-02 3.001e-02 3.000e-02 3.001e-02 3.000e-02 3.001e-02 3.000e-02 3.001e-02 3.000e-02 3.001e-02 3.001e-02 3.001e-02 3.000e-02 3.001e-02 3.001e-02 3.001e-02 3.002e-02 3.000e-02 3.000e-02 3.000e-02 3.000e-02 3.000e-02 3.000e-02 3.000e-02 3.000e-02 3.000e-02 3.000e-02 3.000e-02 3.002e-02 3.000e-02 3.000e-02 3.000e-02 3.000e-02 3.000e-02 3.000e-02 3.000e-02 3.000e-02 3.000e-02 3.000e-02 3.000e-02 3.001e-02 3.000e-02 3.000e-02 3.001e-02 3.000e-02 3.001e-02 3.000e-02 3.001e-02 3.000e-02 3.001e-02 3.000e-02 3.001e-02 3.000e-02 1.015e-01 9.958e-02 9.868e-02 9.782e-02 9.700e-02 9.624e-02 9.556e-02 9.496e-02 9.444e-02 9.400e-02 9.361e-02 9.324e-02 9.289e-02 9.256e-02 9.225e-02 9.196e-02 9.169e-02 9.144e-02 9.121e-02 9.100e-02 9.081e-02 9.064e-02 9.049e-02 9.036e-02 9.025e-02 9.016e-02 9.009e-02 9.004e-02 9.001e-02
           </DataArray>
           <DataArray type="Float32" Name="rootLength2Base" NumberOfComponents="1" format="ascii">
 0.000e+00 9.477e-01 1.681e+00 0.000e+00 9.477e-01 1.681e+00 0.000e+00 9.477e-01 1.681e+00 0.000e+00 9.477e-01 1.681e+00 0.000e+00 9.600e-01 1.440e+00 2.000e+00 2.600e+00 3.200e+00 3.800e+00 4.400e+00 5.000e+00 5.560e+00 6.040e+00 6.760e+00 0.000e+00 8.415e-01 0.000e+00 7.626e-01 0.000e+00 8.149e-01 0.000e+00 8.313e-01 0.000e+00 8.001e-01 0.000e+00 7.599e-01 0.000e+00 0.000e+00 0.000e+00 7.499e-01 0.000e+00 0.000e+00 0.000e+00 0.000e+00 8.650e-01 0.000e+00 0.000e+00 0.000e+00 0.000e+00 0.000e+00 0.000e+00 0.000e+00 0.000e+00 0.000e+00 0.000e+00 0.000e+00 8.063e-01 0.000e+00 0.000e+00 0.000e+00 0.000e+00 0.000e+00 0.000e+00 0.000e+00 0.000e+00 0.000e+00 0.000e+00 0.000e+00 8.936e-01 0.000e+00 0.000e+00 8.362e-01 0.000e+00 7.691e-01 0.000e+00 8.172e-01 0.000e+00 8.186e-01 0.000e+00 7.630e-01 0.000e+00 9.428e-01 1.414e+00 1.886e+00 2.357e+00 2.828e+00 3.300e+00 3.771e+00 4.243e+00 4.714e+00 5.185e+00 5.657e+00 6.128e+00 6.600e+00 7.071e+00 7.542e+00 8.014e+00 8.485e+00 8.957e+00 9.428e+00 9.899e+00 1.037e+01 1.084e+01 1.131e+01 1.179e+01 1.226e+01 1.273e+01 1.320e+01 1.367e+01
           </DataArray>
           <DataArray type="Float32" Name="rootPotentialSecondaryGrowth" NumberOfComponents="1" format="ascii">
 6.800e-02 6.800e-02 6.800e-02 6.800e-02 6.800e-02 6.800e-02 6.800e-02 6.800e-02 6.800e-02 6.800e-02 6.800e-02 6.800e-02 4.201e-01 4.152e-01 4.137e-01 4.123e-01 4.109e-01 4.097e-01 4.087e-01 4.078e-01 4.070e-01 4.063e-01 4.057e-01 4.045e-01 3.002e-02 3.000e-02 3.002e-02 3.000e-02 3.001e-02 3.000e-02 3.001e-02 3.000e-02 3.001e-02 3.000e-02 3.001e-02 3.000e-02 3.001e-02 3.001e-02 3.001e-02 3.000e-02 3.001e-02 3.001e-02 3.001e-02 3.002e-02 3.000e-02 3.000e-02 3.000e-02 3.000e-02 3.000e-02 3.000e-02 3.000e-02 3.000e-02 3.000e-02 3.000e-02 3.000e-02 3.002e-02 3.000e-02 3.000e-02 3.000e-02 3.000e-02 3.000e-02 3.000e-02 3.000e-02 3.000e-02 3.000e-02 3.000e-02 3.000e-02 3.001e-02 3.000e-02 3.000e-02 3.001e-02 3.000e-02 3.001e-02 3.000e-02 3.001e-02 3.000e-02 3.001e-02 3.000e-02 3.001e-02 3.000e-02 1.015e-01 9.958e-02 9.868e-02 9.782e-02 9.700e-02 9.624e-02 9.556e-02 9.496e-02 9.444e-02 9.400e-02 9.361e-02 9.324e-02 9.289e-02 9.256e-02 9.225e-02 9.196e-02 9.169e-02 9.144e-02 9.121e-02 9.100e-02 9.081e-02 9.064e-02 9.049e-02 9.036e-02 9.025e-02 9.016e-02 9.009e-02 9.004e-02 9.001e-02
           </DataArray>
           <DataArray type="Float32" Name="rootSegmentAge" NumberOfComponents="1" format="ascii">
 1.833e+00 7.000e-01 3.000e-01 1.833e+00 7.000e-01 3.000e-01 1.833e+00 7.000e-01 3.000e-01 1.833e+00 7.000e-01 3.000e-01 6.000e+00 5.400e+00 5.200e+00 5.000e+00 4.800e+00 4.600e+00 4.400e+00 4.200e+00 4.000e+00 3.800e+00 3.600e+00 3.200e+00 1.715e+00 4.000e-01 1.672e+00 7.000e-01 1.291e+00 3.000e-01 1.248e+00 1.000e-01 1.206e+00 1.000e-01 1.163e+00 2.000e-01 1.121e+00 1.078e+00 1.036e+00 1.000e-01 9.936e-01 9.512e-01 9.088e-01 1.630e+00 5.000e-01 8.664e-01 8.239e-01 7.815e-01 7.391e-01 6.966e-01 6.542e-01 6.118e-01 5.694e-01 5.269e-01 4.845e-01 1.588e+00 6.000e-01 4.421e-01 3.997e-01 3.572e-01 3.148e-01 2.724e-01 2.300e-01 1.875e-01 1.451e-01 1.027e-01 6.025e-02 1.545e+00 4.000e-01 1.782e-02 1.503e+00 4.000e-01 1.460e+00 5.000e-01 1.418e+00 5.000e-01 1.375e+00 2.000e-01 1.333e+00 4.000e-01 6.000e+00 5.600e+00 5.400e+00 5.200e+00 5.000e+00 4.800e+00 4.600e+00 4.400e+00 4.200e+00 4.000e+00 3.800e+00 3.600e+00 3.400e+00 3.200e+00 3.000e+00 2.800e+00 2.600e+00 2.400e+00 2.200e+00 2.000e+00 1.800e+00 1.600e+00 1.400e+00 1.200e+00 1.000e+00 8.000e-01 6.000e-01 4.000e-01 2.000e-01
           </DataArray>
           <DataArray type="Float32" Name="rootSegmentDryWeight" NumberOfComponents="1" format="ascii">