<?xml version="1.0"?>
<VTKFile type="UnstructuredGrid" version="0.1" byte_order="LittleEndian">
   <UnstructuredGrid>
      <Piece NumberOfPoints="33270" NumberOfCells="2376">
         <Points>
            <DataArray type="Float32" Name="Position" NumberOfComponents="3" format="ascii">
-0.087	-5.026	0.101
-0.086	-5.017	0.102
-0.091	-5.009	0.105
-0.098	-5.007	0.110
-0.106	-5.010	0.115
-0.111	-5.017	0.117
-0.111	-5.027	0.116
-0.107	-5.034	0.113
-0.099	-5.037	0.108
-0.092	-5.034	0.104
0.348	-5.093	0.823
0.347	-5.084	0.825
0.342	-5.077	0.829
0.335	-5.076	0.835
0.329	-5.080	0.840
0.325	-5.088	0.842
0.326	-5.098	0.841
0.331	-5.104	0.836
0.338	-5.106	0.830
0.344	-5.101	0.826
0.969	-5.146	1.441
0.968	-5.137	1.444
0.963	-5.132	1.450
0.957	-5.132	1.457
0.951	-5.138	1.462
0.949	-5.147	1.463
0.950	-5.155	1.460
0.955	-5.161	1.454
0.961	-5.160	1.447
0.967	-5.154	1.442
1.446	-5.276	1.880
1.444	-5.269	1.886
1.442	-5.260	1.886
1.440	-5.253	1.880
1.439	-5.250	1.871
1.440	-5.253	1.863
1.442	-5.260	1.857
1.444	-5.269	1.857
1.446	-5.276	1.863
1.446	-5.279	1.871
-0.189	-5.078	0.220
-0.186	-5.071	0.224
-0.186	-5.062	0.225
-0.191	-5.054	0.222
-0.197	-5.051	0.216
-0.203	-5.054	0.209
-0.206	-5.061	0.205
-0.205	-5.070	0.204
-0.201	-5.078	0.207
-0.195	-5.081	0.213
-0.818	-5.181	0.821
-0.815	-5.174	0.825
-0.816	-5.165	0.827
-0.820	-5.157	0.824
-0.826	-5.154	0.818
-0.832	-5.157	0.811
-0.835	-5.164	0.806
-0.834	-5.173	0.805
-0.830	-5.181	0.808
-0.823	-5.184	0.814
-1.445	-5.365	1.409
-1.442	-5.358	1.414
-1.443	-5.348	1.415
-1.447	-5.341	1.411
-1.453	-5.338	1.405
-1.459	-5.340	1.398
-1.462	-5.348	1.393
-1.461	-5.357	1.392
-1.457	-5.364	1.396
-1.451	-5.368	1.402
-1.922	-5.395	1.770
-1.919	-5.387	1.774
-1.920	-5.378	1.775
-1.923	-5.370	1.771
-1.929	-5.367	1.764
-1.934	-5.370	1.757
-1.937	-5.378	1.752
-1.937	-5.387	1.752
-1.933	-5.394	1.756
-1.928	-5.397	1.763
-0.971	-5.737	1.063
-0.964	-5.738	1.069
-0.962	-5.741	1.078
-0.966	-5.745	1.085
-0.974	-5.748	1.089
-0.983	-5.750	1.087
-0.989	-5.748	1.081
-0.991	-5.745	1.072
-0.987	-5.742	1.065
-0.980	-5.738	1.061
-0.802	-6.539	0.741
-0.796	-6.541	0.747
-0.795	-6.544	0.756
-0.800	-6.547	0.764
-0.808	-6.548	0.767
-0.817	-6.548	0.765
-0.823	-6.546	0.758
-0.824	-6.543	0.749
-0.819	-6.540	0.742
-0.811	-6.539	0.739
-0.883	-7.285	0.547
-0.878	-7.287	0.555
-0.880	-7.288	0.564
-0.886	-7.288	0.571
-0.895	-7.288	0.573
-0.903	-7.286	0.569
-0.908	-7.285	0.561
-0.906	-7.283	0.552
-0.900	-7.283	0.545
-0.891	-7.284	0.543
-0.955	-8.061	0.514
-0.951	-8.061	0.522
-0.952	-8.061	0.531
-0.959	-8.060	0.537
-0.968	-8.060	0.539
-0.976	-8.059	0.534
-0.980	-8.059	0.526
-0.979	-8.059	0.517
-0.972	-8.060	0.510
-0.963	-8.060	0.509
-0.957	-8.191	0.519
-0.953	-8.190	0.527
-0.955	-8.190	0.536
-0.961	-8.190	0.543
-0.971	-8.189	0.544
-0.979	-8.189	0.539
-0.983	-8.190	0.531
-0.981	-8.190	0.522
-0.974	-8.190	0.515
-0.965	-8.191	0.514
-5.587	-17.288	5.799
-5.582	-17.280	5.801
-5.582	-17.271	5.802
-5.587	-17.264	5.799
-5.596	-17.261	5.796
-5.604	-17.264	5.792
-5.608	-17.272	5.790
-5.608	-17.281	5.790
-5.603	-17.288	5.792
-5.594	-17.291	5.795
-5.713	-17.299	6.078
-5.709	-17.292	6.080
-5.709	-17.282	6.081
-5.714	-17.275	6.079
-5.722	-17.272	6.075
-5.730	-17.275	6.071
-5.735	-17.283	6.069
-5.735	-17.292	6.069
-5.729	-17.300	6.071
-5.721	-17.302	6.074
-5.607	-17.432	5.835
-5.603	-17.425	5.838
-5.603	-17.415	5.838
-5.608	-17.408	5.836
-5.615	-17.405	5.831
-5.623	-17.408	5.827
-5.628	-17.416	5.824
-5.627	-17.425	5.824
-5.622	-17.432	5.827
-5.615	-17.435	5.831
-5.810	-17.444	6.200
-5.806	-17.437	6.203
-5.806	-17.427	6.203
-5.811	-17.420	6.200
-5.819	-17.417	6.196
-5.826	-17.420	6.192
-5.831	-17.428	6.189
-5.831	-17.437	6.189
-5.826	-17.444	6.191
-5.818	-17.447	6.196
-5.638	-17.553	5.858
-5.630	-17.551	5.862
-5.624	-17.555	5.868
-5.622	-17.562	5.874
-5.625	-17.570	5.877
-5.632	-17.576	5.876
-5.640	-17.578	5.871
-5.646	-17.574	5.865
-5.648	-17.567	5.860
-5.645	-17.559	5.857
-5.477	-17.699	5.620
-5.469	-17.697	5.624
-5.463	-17.701	5.630
-5.461	-17.708	5.636
-5.464	-17.716	5.639
-5.471	-17.722	5.638
-5.479	-17.724	5.633
-5.485	-17.720	5.627
-5.487	-17.713	5.622
-5.484	-17.705	5.619
-5.649	-17.706	5.890
-5.650	-17.698	5.895
-5.654	-17.694	5.902
-5.659	-17.696	5.909
-5.664	-17.703	5.914
-5.666	-17.712	5.914
-5.665	-17.720	5.909
-5.661	-17.723	5.901
-5.655	-17.721	5.894
-5.651	-17.715	5.890
-5.387	-17.771	6.065
-5.388	-17.763	6.070
-5.392	-17.759	6.078
-5.398	-17.761	6.085
-5.402	-17.768	6.089
-5.404	-17.777	6.089
-5.403	-17.785	6.084
-5.399	-17.788	6.077
-5.394	-17.786	6.070
-5.389	-17.780	6.065
-5.681	-17.842	5.926
-5.673	-17.841	5.931
-5.668	-17.844	5.938
-5.667	-17.851	5.944
-5.671	-17.859	5.948
-5.679	-17.864	5.947
-5.687	-17.865	5.942
-5.692	-17.862	5.935
-5.693	-17.855	5.929
-5.688	-17.847	5.926
-5.548	-17.994	5.748
-5.540	-17.993	5.753
-5.535	-17.997	5.760
-5.535	-18.004	5.766
-5.539	-18.011	5.770
-5.546	-18.016	5.769
-5.554	-18.018	5.764
-5.559	-18.014	5.757
-5.560	-18.007	5.751
-5.556	-18.000	5.747
-5.704	-17.986	5.962
-5.696	-17.984	5.966
-5.690	-17.988	5.973
-5.689	-17.995	5.978
-5.693	-18.003	5.982
-5.700	-18.008	5.981
-5.709	-18.010	5.977
-5.714	-18.006	5.970
-5.716	-17.999	5.964
-5.712	-17.991	5.961
-5.608	-18.095	5.811
-5.600	-18.094	5.815
-5.594	-18.097	5.821
-5.593	-18.104	5.827
-5.597	-18.112	5.830
-5.604	-18.118	5.830
-5.612	-18.119	5.825
-5.618	-18.115	5.819
-5.619	-18.108	5.813
-5.615	-18.100	5.810
-5.728	-18.129	5.998
-5.720	-18.128	6.002
-5.714	-18.131	6.008
-5.712	-18.139	6.013
-5.715	-18.147	6.016
-5.722	-18.153	6.015
-5.730	-18.154	6.011
-5.736	-18.151	6.005
-5.738	-18.144	6.000
-5.735	-18.135	5.997
-5.627	-18.225	5.835
-5.619	-18.223	5.839
-5.613	-18.227	5.845
-5.611	-18.234	5.850
-5.614	-18.242	5.853
-5.621	-18.248	5.852
-5.629	-18.250	5.848
-5.635	-18.246	5.842
-5.637	-18.239	5.837
-5.634	-18.231	5.834
-5.740	-18.297	6.045
-5.735	-18.290	6.048
-5.736	-18.281	6.049
-5.741	-18.273	6.046
-5.748	-18.270	6.042
-5.755	-18.273	6.037
-5.760	-18.281	6.034
-5.760	-18.290	6.033
-5.755	-18.297	6.036
-5.747	-18.300	6.041
-5.832	-18.307	6.195
-5.828	-18.300	6.198
-5.828	-18.291	6.199
-5.833	-18.283	6.196
-5.841	-18.280	6.192
-5.848	-18.283	6.187
-5.852	-18.291	6.184
-5.852	-18.300	6.183
-5.847	-18.307	6.186
-5.840	-18.310	6.190
-5.772	-18.418	6.066
-5.764	-18.417	6.070
-5.758	-18.420	6.077
-5.757	-18.427	6.082
-5.760	-18.435	6.085
-5.768	-18.441	6.084
-5.776	-18.443	6.080
-5.781	-18.439	6.074
-5.783	-18.432	6.068
-5.780	-18.424	6.065
-5.688	-18.502	5.938
-5.680	-18.500	5.942
-5.674	-18.504	5.948
-5.672	-18.511	5.954
-5.676	-18.519	5.957
-5.683	-18.525	5.956
-5.691	-18.526	5.951
-5.697	-18.523	5.945
-5.698	-18.516	5.940
-5.695	-18.508	5.937
-5.798	-18.581	6.121
-5.801	-18.572	6.121
-5.800	-18.564	6.116
-5.797	-18.560	6.108
-5.792	-18.561	6.101
-5.787	-18.568	6.096
-5.784	-18.576	6.096
-5.784	-18.584	6.101
-5.788	-18.588	6.109
-5.793	-18.587	6.116
-5.937	-18.626	6.032
-5.940	-18.618	6.032
-5.940	-18.610	6.028
-5.936	-18.606	6.020
-5.931	-18.607	6.013
-5.926	-18.613	6.008
-5.923	-18.622	6.008
-5.924	-18.630	6.013
-5.927	-18.634	6.020
-5.932	-18.633	6.028
-1.049	-5.838	1.151
-1.049	-5.829	1.152
-1.053	-5.822	1.156
-1.061	-5.820	1.161
-1.068	-5.823	1.165
-1.073	-5.831	1.168
-1.073	-5.840	1.167
-1.068	-5.847	1.163
-1.061	-5.849	1.158
-1.053	-5.846	1.153
-0.600	-5.912	1.832
-0.599	-5.903	1.834
-0.603	-5.896	1.837
-0.611	-5.893	1.842
-0.619	-5.896	1.846
-0.624	-5.903	1.847
-0.625	-5.912	1.846
-0.621	-5.920	1.843
-0.613	-5.922	1.838
-0.605	-5.920	1.834
-0.253	-6.103	2.598
-0.252	-6.094	2.599
-0.255	-6.086	2.603
-0.263	-6.083	2.607
-0.271	-6.085	2.610
-0.277	-6.092	2.612
-0.279	-6.101	2.610
-0.275	-6.109	2.607
-0.267	-6.112	2.603
-0.259	-6.110	2.599
-0.075	-6.171	2.985
-0.074	-6.161	2.986
-0.077	-6.154	2.989
-0.085	-6.150	2.993
-0.093	-6.152	2.996
-0.099	-6.159	2.998
-0.101	-6.168	2.997
-0.097	-6.176	2.994
-0.089	-6.180	2.990
-0.081	-6.178	2.986
-5.805	-18.717	6.130
-5.806	-18.709	6.135
-5.810	-18.704	6.142
-5.816	-18.706	6.149
-5.821	-18.712	6.153
-5.824	-18.721	6.153
-5.823	-18.729	6.149
-5.819	-18.733	6.142
-5.813	-18.732	6.135
-5.808	-18.726	6.130
-5.722	-18.743	6.195
-5.722	-18.735	6.199
-5.727	-18.731	6.207
-5.732	-18.732	6.214
-5.738	-18.738	6.218
-5.741	-18.747	6.218
-5.740	-18.755	6.214
-5.735	-18.759	6.206
-5.730	-18.758	6.199
-5.724	-18.752	6.195
-5.841	-18.871	6.187
-5.844	-18.863	6.188
-5.845	-18.854	6.184
-5.842	-18.849	6.177
-5.838	-18.850	6.169
-5.833	-18.855	6.163
-5.829	-18.864	6.162
-5.829	-18.872	6.166
-5.831	-18.877	6.173
-5.836	-18.877	6.181
-5.941	-18.905	6.132
-5.944	-18.896	6.133
-5.945	-18.888	6.129
-5.942	-18.883	6.122
-5.938	-18.883	6.113
-5.933	-18.888	6.108
-5.929	-18.897	6.107
-5.929	-18.905	6.111
-5.931	-18.910	6.118
-5.936	-18.910	6.126
-5.860	-18.997	6.199
-5.852	-18.995	6.203
-5.847	-18.999	6.210
-5.846	-19.006	6.216
-5.850	-19.014	6.219
-5.858	-19.019	6.218
-5.866	-19.020	6.214
-5.871	-19.017	6.207
-5.872	-19.010	6.201
-5.868	-19.002	6.198
-5.827	-19.056	6.157
-5.819	-19.056	6.161
-5.810	-19.056	6.160
-5.803	-19.056	6.153
-5.802	-19.056	6.144
-5.806	-19.056	6.136
-5.814	-19.056	6.132
-5.823	-19.056	6.133
-5.830	-19.056	6.140
-5.831	-19.056	6.149
-5.873	-19.164	6.246
-5.868	-19.157	6.248
-5.868	-19.148	6.249
-5.873	-19.140	6.246
-5.881	-19.137	6.242
-5.889	-19.140	6.238
-5.893	-19.148	6.235
-5.893	-19.157	6.235
-5.888	-19.165	6.237
-5.880	-19.167	6.242
-5.904	-19.166	6.304
-5.899	-19.159	6.306
-5.899	-19.149	6.307
-5.904	-19.142	6.304
-5.912	-19.139	6.300
-5.920	-19.142	6.296
-5.924	-19.150	6.293
-5.924	-19.159	6.293
-5.919	-19.166	6.295
-5.911	-19.169	6.299
-5.902	-19.286	6.266
-5.894	-19.285	6.271
-5.888	-19.288	6.277
-5.887	-19.295	6.283
-5.891	-19.303	6.286
-5.898	-19.309	6.285
-5.906	-19.310	6.281
-5.912	-19.306	6.275
-5.914	-19.299	6.269
-5.910	-19.291	6.266
-5.874	-19.326	6.250
-5.870	-19.317	6.250
-5.871	-19.308	6.250
-5.878	-19.302	6.250
-5.887	-19.300	6.250
-5.895	-19.304	6.250
-5.900	-19.313	6.250
-5.898	-19.322	6.250
-5.892	-19.328	6.250
-5.883	-19.330	6.250
-5.922	-19.451	6.322
-5.925	-19.442	6.324
[...]
         <CellData>
           <DataArray type="Float32" Name="combinedRootClassID" NumberOfComponents="1" format="ascii">
 -1.300e+01 -1.300e+01 -1.300e+01 -1.300e+01 -1.300e+01 -1.300e+01 -1.300e+01 -1.300e+01 -1.300e+01 -1.300e+01 -1.300e+01 -1.300e+01 -1.300e+01 -1.300e+01 -1.300e+01 -1.300e+01 -1.300e+01 -1.300e+01 -1.300e+01 -1.300e+01 -1.300e+01 -1.300e+01 -1.300e+01 -1.300e+01 -1.300e+01 -1.300e+01 -1.300e+01 -1.300e+01 -1.300e+01 -1.300e+01 -1.300e+01 -1.300e+01 -1.300e+01 -1.300e+01 -1.300e+01 -1.300e+01 -1.300e+01 -1.300e+01 -1.300e+01 -1.300e+01 -1.300e+01 -1.300e+01 -1.300e+01 -1.300e+01 -1.300e+01 -1.300e+01 -1.300e+01 -1.300e+01 -1.300e+01 -1.300e+01 -1.300e+01 -1.300e+01 -1.300e+01 -1.300e+01 -1.300e+01 -1.300e+01 -1.300e+01 -1.300e+01 -1.300e+01 -1.300e+01 -1.300e+01 -1.300e+01 -1.300e+01 -1.300e+01 -1.300e+01 -1.300e+01 -1.300e+01 -1.300e+01 -1.300e+01 -1.300e+01 -1.300e+01 -1.300e+01 -1.300e+01 -1.300e+01 -1.300e+01 -1.300e+01 -1.300e+01 -1.300e+01 -1.300e+01 -1.300e+01 -1.300e+01 -1.300e+01 -1.300e+01 -1.300e+01 -1.300e+01 -1.300e+01 -1.300e+01 -1.300e+01 -1.300e+01 -1.300e+01 -1.300e+01 -1.300e+01 -1.300e+01 -1.300e+01 -1.300e+01 -1.300e+01 -1.300e+01 -1.300e+01 -1.300e+01 -1.300e+01 -1.300e+01 -1.300e+01 -1.300e+01 -1.300e+01 -1.300e+01 -1.300e+01 -1.300e+01 -1.300e+01 -1.300e+01 -1.300e+01 -1.300e+01 -1.300e+01 -1.300e+01 -1.300e+01 -1.300e+01 -1.300e+01 -1.300e+01 -1.300e+01 -1.300e+01 -1.300e+01 -1.300e+01 -1.300e+01 -1.300e+01 -1.300e+01 -1.300e+01 -1.300e+01 -1.300e+01 -1.300e+01 -1.300e+01 -1.300e+01 -1.300e+01 -1.300e+01 -1.300e+01 -1.300e+01 -1.300e+01 -1.300e+01 -1.300e+01 -1.300e+01 -1.300e+01 -1.300e+01 -1.300e+01 -1.300e+01 -1.300e+01 -1.300e+01 -1.300e+01 -1.300e+01 -1.300e+01 -1.300e+01 -1.300e+01 -1.300e+01 -1.300e+01 -1.300e+01 -1.300e+01 -1.300e+01 -1.300e+01 -1.300e+01 -1.300e+01 -1.300e+01 -1.300e+01 -1.300e+01 -1.300e+01 -1.300e+01 -1.300e+01 -1.300e+01 -1.300e+01 -1.300e+01 -1.300e+01 -1.300e+01 -1.300e+01 -1.300e+01 -1.300e+01 -1.300e+01 -1.300e+01 -1.300e+01 -1.300e+01 -1.300e+01 -1.300e+01 -1.300e+01 -1.300e+01 -1.300e+01 -1.300e+01 -1.300e+01 -1.300e+01 -1.300e+01 -1.300e+01 -1.300e+01 -1.300e+01 -1.300e+01 -1.300e+01 -1.300e+01 -1.300e+01 -1.300e+01 -1.300e+01 -1.300e+01 -1.300e+01 -1.300e+01 -1.300e+01 -1.300e+01 -1.300e+01 -1.300e+01 -1.300e+01 -1.300e+01 -1.300e+01 -1.300e+01 -1.300e+01 -1.300e+01 -1.300e+01 -1.300e+01 -1.300e+01 -1.300e+01 -1.300e+01 -1.300e+01 -1.300e+01 -1.300e+01 -1.300e+01 -1.300e+01 -1.300e+01 -1.300e+01 -1.300e+01 -1.300e+01 -1.300e+01 -1.300e+01 -1.300e+01 -1.300e+01 -1.300e+01 -1.300e+01 -1.300e+01 -1.300e+01 -1.300e+01 -1.300e+01 -1.300e+01 -1.300e+01 -1.300e+01 -1.300e+01 -1.300e+01 -1.300e+01 -1.300e+01 -1.300e+01 -1.300e+01 -5.000e+00 -5.000e+00 -5.000e+00 -5.000e+00 -5.000e+00 -5.000e+00 -5.000e+00 -5.000e+00 -5.000e+00 -5.000e+00 -5.000e+00 -5.000e+00 -5.000e+00 -5.000e+00 -5.000e+00 -5.000e+00 -5.000e+00 -5.000e+00 -5.000e+00 -5.000e+00 -5.000e+00 -5.000e+00 -5.000e+00 -5.000e+00 -5.000e+00 -5.000e+00 -5.000e+00 -5.000e+00 -5.000e+00 -5.000e+00 -5.000e+00 -5.000e+00 -5.000e+00 -1.300e+01 -1.300e+01 -1.300e+01 -1.300e+01 -1.300e+01 -1.300e+01 -1.300e+01 -1.300e+01 -1.300e+01 -1.300e+01 -1.300e+01 -1.300e+01 -1.300e+01 -1.300e+01 -1.300e+01 -1.300e+01 -1.300e+01 -1.300e+01 -1.300e+01 -1.300e+01 -1.300e+01 -1.300e+01 -1.300e+01 -1.300e+01 -1.300e+01 -1.300e+01 -1.300e+01 -1.300e+01 -1.300e+01 -1.300e+01 -1.300e+01 -1.300e+01 -1.300e+01 -1.300e+01 -1.300e+01 -1.300e+01 -1.300e+01 -1.300e+01 -1.300e+01 -1.300e+01 -1.300e+01 -1.300e+01 -1.300e+01 -1.300e+01 -1.300e+01 -1.300e+01 -1.300e+01 -1.300e+01 -1.300e+01 -1.300e+01 -1.300e+01 -1.300e+01 -1.300e+01 -1.300e+01 -1.300e+01 -1.300e+01 -1.300e+01 -1.300e+01 -1.300e+01 -1.300e+01 -1.300e+01 -1.300e+01 -1.300e+01 -1.300e+01 -1.300e+01 -1.300e+01 -1.300e+01 -1.300e+01 -1.300e+01 -1.300e+01 -1.300e+01 -1.300e+01 -1.300e+01 -1.300e+01 -1.300e+01 -1.300e+01 -1.300e+01 -1.300e+01 -1.300e+01 -1.300e+01 -1.300e+01 -1.300e+01 -1.300e+01 -1.300e+01 -1.300e+01 -1.300e+01 -1.300e+01 -1.300e+01 -1.300e+01 -1.300e+01 -1.300e+01 -1.300e+01 -1.300e+01 -1.300e+01 -1.300e+01 -1.300e+01 -1.300e+01 -1.300e+01 -1.300e+01 -1.300e+01 -1.300e+01 -1.300e+01 -1.300e+01 -1.300e+01 -1.300e+01 -1.300e+01 -1.300e+01 -1.300e+01 -1.300e+01 -1.300e+01 -1.300e+01 -1.300e+01 -1.300e+01 -1.300e+01 -1.300e+01 -1.300e+01 -1.300e+01 -1.300e+01 -1.300e+01 -1.300e+01 -1.300e+01 -1.300e+01 -1.300e+01 -1.300e+01 -1.300e+01 -1.300e+01 -1.300e+01 -1.300e+01 -1.300e+01 -1.300e+01 -1.300e+01 -1.300e+01 -1.300e+01 -1.300e+01 -1.300e+01 -1.300e+01 -1.300e+01 -1.300e+01 -1.300e+01 -1.300e+01 -1.300e+01 -1.300e+01 -1.300e+01 -1.300e+01 -1.300e+01 -1.300e+01 -1.300e+01 -1.300e+01 -1.300e+01 -1.300e+01 -1.300e+01 -1.300e+01 -1.300e+01 -1.300e+01 -1.300e+01 -1.300e+01 -1.300e+01 -1.300e+01 -1.300e+01 -1.300e+01 -1.300e+01 -1.300e+01 -1.300e+01 -1.300e+01 -1.300e+01 -1.300e+01 -1.300e+01 -1.300e+01 -1.300e+01 -1.300e+01 -1.300e+01 -1.300e+01 -1.300e+01 -1.300e+01 -1.300e+01 -1.300e+01 -1.300e+01 -1.300e+01 -1.300e+01 -1.300e+01 -1.300e+01 -1.300e+01 -1.300e+01 -1.300e+01 -1.300e+01 -1.300e+01 -1.300e+01 -1.300e+01 -1.300e+01 -1.300e+01 -1.300e+01 -1.300e+01 -1.300e+01 -1.300e+01 -1.300e+01 -1.300e+01 -1.300e+01 -1.300e+01 -1.300e+01 -1.300e+01 -1.300e+01 -1.300e+01 -1.300e+01 -1.300e+01 -1.300e+01 -1.300e+01 -1.300e+01 -1.300e+01 -1.300e+01 -1.300e+01 -1.300e+01 -1.300e+01 -1.300e+01 -1.300e+01 -1.300e+01 -1.300e+01 -1.300e+01 -1.300e+01 -1.300e+01 -1.300e+01 -1.300e+01 -1.300e+01 -1.300e+01 -1.300e+01 -1.300e+01 -1.300e+01 -1.300e+01 -1.300e+01 -1.300e+01 -1.300e+01 -1.300e+01 -1.300e+01 -1.300e+01 -1.300e+01 -1.300e+01 -1.300e+01 -1.300e+01 -1.300e+01 -1.300e+01 -1.300e+01 -1.300e+01 -1.300e+01 -1.300e+01 -5.000e+00 -5.000e+00 -5.000e+00 -5.000e+00 -5.000e+00 -5.000e+00 -5.000e+00 -5.000e+00 -5.000e+00 -5.000e+00 -5.000e+00 -5.000e+00 -5.000e+00 -5.000e+00 -5.000e+00 -5.000e+00 -5.000e+00 -5.000e+00 -5.000e+00 -5.000e+00 -5.000e+00 -5.000e+00 -5.000e+00 -5.000e+00 -5.000e+00 -5.000e+00 -5.000e+00 -5.000e+00 -5.000e+00 -5.000e+00 -5.000e+00 -5.000e+00 -5.000e+00 -1.300e+01 -1.300e+01 -1.300e+01 -1.300e+01 -1.300e+01 -1.300e+01 -1.300e+01 -1.300e+01 -1.300e+01 -1.300e+01 -1.300e+01 -1.300e+01 -1.300e+01 -1.300e+01 -1.300e+01 -1.300e+01 -1.300e+01 -1.300e+01 -1.300e+01 -1.300e+01 -1.300e+01 -1.300e+01 -1.300e+01 -1.300e+01 -1.300e+01 -1.300e+01 -1.300e+01 -1.300e+01 -1.300e+01 -1.300e+01 -1.300e+01 -1.300e+01 -1.300e+01 -1.300e+01 -1.300e+01 -1.300e+01 -1.300e+01 -1.300e+01 -1.300e+01 -1.300e+01 -1.300e+01 -1.300e+01 -1.300e+01 -1.300e+01 -1.300e+01 -1.300e+01 -1.300e+01 -1.300e+01 -1.300e+01 -1.300e+01 -1.300e+01 -1.300e+01 -1.300e+01 -1.300e+01 -1.300e+01 -1.300e+01 -1.300e+01 -1.300e+01 -1.300e+01 -1.300e+01 -1.300e+01 -1.300e+01 -1.300e+01 -1.300e+01 -1.300e+01 -1.300e+01 -1.300e+01 -1.300e+01 -1.300e+01 -1.300e+01 -1.300e+01 -1.300e+01 -1.300e+01 -1.300e+01 -1.300e+01 -1.300e+01 -1.300e+01 -1.300e+01 -1.300e+01 -1.300e+01 -1.300e+01 -1.300e+01 -1.300e+01 -1.300e+01 -1.300e+01 -1.300e+01 -1.300e+01 -1.300e+01 -1.300e+01 -1.300e+01 -1.300e+01 -1.300e+01 -1.300e+01 -1.300e+01 -1.300e+01 -1.300e+01 -1.300e+01 -1.300e+01 -1.300e+01 -1.300e+01 -1.300e+01 -1.300e+01 -1.300e+01 -1.300e+01 -1.300e+01 -1.300e+01 -1.300e+01 -1.300e+01 -1.300e+01 -1.300e+01 -1.300e+01 -1.300e+01 -1.300e+01 -1.300e+01 -1.300e+01 -1.300e+01 -1.300e+01 -1.300e+01 -1.300e+01 -1.300e+01 -1.300e+01 -1.300e+01 -1.300e+01 -1.300e+01 -1.300e+01 -1.300e+01 -1.300e+01 -1.300e+01 -1.300e+01 -1.300e+01 -1.300e+01 -1.300e+01 -1.300e+01 -1.300e+01 -1.300e+01 -1.300e+01 -1.300e+01 -1.300e+01 -1.300e+01 -1.300e+01 -1.300e+01 -1.300e+01 -1.300e+01 -1.300e+01 -1.300e+01 -1.300e+01 -1.300e+01 -1.300e+01 -1.300e+01 -1.300e+01 -1.300e+01 -1.300e+01 -1.300e+01 -1.300e+01 -1.300e+01 -1.300e+01 -1.300e+01 -1.300e+01 -1.300e+01 -1.300e+01 -1.300e+01 -1.300e+01 -1.300e+01 -1.300e+01 -1.300e+01 -1.300e+01 -1.300e+01 -1.300e+01 -1.300e+01 -1.300e+01 -1.300e+01 -1.300e+01 -1.300e+01 -1.300e+01 -1.300e+01 -1.300e+01 -1.300e+01 -1.300e+01 -1.300e+01 -1.300e+01 -1.300e+01 -1.300e+01 -1.300e+01 -1.300e+01 -1.300e+01 -1.300e+01 -1.300e+01 -1.300e+01 -1.300e+01 -1.300e+01 -1.300e+01 -1.300e+01 -1.300e+01 -1.300e+01 -1.300e+01 -1.300e+01 -1.300e+01 -1.300e+01 -1.300e+01 -1.300e+01 -1.300e+01 -1.300e+01 -1.300e+01 -1.300e+01 -1.300e+01 -1.300e+01 -1.300e+01 -1.300e+01 -1.300e+01 -1.300e+01 -1.300e+01 -1.300e+01 -1.300e+01 -1.300e+01 -1.300e+01 -1.300e+01 -1.300e+01 -1.300e+01 -1.300e+01 -1.300e+01 -1.300e+01 -1.300e+01 -1.300e+01 -1.300e+01 -1.300e+01 -1.300e+01 -1.300e+01 -1.300e+01 -1.300e+01 -1.300e+01 -1.300e+01 -1.300e+01 -1.300e+01 -1.300e+01 -1.300e+01 -1.300e+01 -1.300e+01 -1.300e+01 -1.300e+01 -1.300e+01 -1.300e+01 -1.300e+01 -1.300e+01 -5.000e+00 -5.000e+00 -5.000e+00 -5.000e+00 -5.000e+00 -5.000e+00 -5.000e+00 -5.000e+00 -5.000e+00 -5.000e+00 -5.000e+00 -5.000e+00 -5.000e+00 -5.000e+00 -5.000e+00 -5.000e+00 -5.000e+00 -5.000e+00 -5.000e+00 -5.000e+00 -5.000e+00 -5.000e+00 -5.000e+00 -5.000e+00 -5.000e+00 -5.000e+00 -5.000e+00 -5.000e+00 -5.000e+00 -5.000e+00 -5.000e+00 -5.000e+00 -5.000e+00 -1.300e+01 -1.300e+01 -1.300e+01 -1.300e+01 -1.300e+01 -1.300e+01 -1.300e+01 -1.300e+01 -1.300e+01 -1.300e+01 -1.300e+01 -1.300e+01 -1.300e+01 -1.300e+01 -1.300e+01 -1.300e+01 -1.300e+01 -1.300e+01 -1.300e+01 -1.300e+01 -1.300e+01 -1.300e+01 -1.300e+01 -1.300e+01 -1.300e+01 -1.300e+01 -1.300e+01 -1.300e+01 -1.300e+01 -1.300e+01 -1.300e+01 -1.300e+01 -1.300e+01 -1.300e+01 -1.300e+01 -1.300e+01 -1.300e+01 -1.300e+01 -1.300e+01 -1.300e+01 -1.300e+01 -1.300e+01 -1.300e+01 -1.300e+01 -1.300e+01 -1.300e+01 -1.300e+01 -1.300e+01 -1.300e+01 -1.300e+01 -1.300e+01 -1.300e+01 -1.300e+01 -1.300e+01 -1.300e+01 -1.300e+01 -1.300e+01 -1.300e+01 -1.300e+01 -1.300e+01 -1.300e+01 -1.300e+01 -1.300e+01 -1.300e+01 -1.300e+01 -1.300e+01 -1.300e+01 -1.300e+01 -1.300e+01 -1.300e+01 -1.300e+01 -1.300e+01 -1.300e+01 -1.300e+01 -1.300e+01 -1.300e+01 -1.300e+01 -1.300e+01 -1.300e+01 -1.300e+01 -1.300e+01 -1.300e+01 -1.300e+01 -1.300e+01 -1.300e+01 -1.300e+01 -1.300e+01 -1.300e+01 -1.300e+01 -1.300e+01 -1.300e+01 -1.300e+01 -1.300e+01 -1.300e+01 -1.300e+01 -1.300e+01 -1.300e+01 -1.300e+01 -1.300e+01 -1.300e+01 -1.300e+01 -1.300e+01 -1.300e+01 -1.300e+01 -1.300e+01 -1.300e+01 -1.300e+01 -1.300e+01 -1.300e+01 -1.300e+01 -1.300e+01 -1.300e+01 -1.300e+01 -1.300e+01 -1.300e+01 -1.300e+01 -1.300e+01 -1.300e+01 -1.300e+01 -1.300e+01 -1.300e+01 -1.300e+01 -1.300e+01 -1.300e+01 -1.300e+01 -1.300e+01 -1.300e+01 -1.300e+01 -1.300e+01 -1.300e+01 -1.300e+01 -1.300e+01 -1.300e+01 -1.300e+01 -1.300e+01 -1.300e+01 -1.300e+01 -1.300e+01 -1.300e+01 -1.300e+01 -1.300e+01 -1.300e+01 -1.300e+01 -1.300e+01 -1.300e+01 -1.300e+01 -1.300e+01 -1.300e+01 -1.300e+01 -1.300e+01 -1.300e+01 -1.300e+01 -1.300e+01 -1.300e+01 -1.300e+01 -1.300e+01 -1.300e+01 -1.300e+01 -1.300e+01 -1.300e+01 -1.300e+01 -1.300e+01 -1.300e+01 -1.300e+01 -1.300e+01 -1.300e+01 -1.300e+01 -1.300e+01 -1.300e+01 -1.300e+01 -1.300e+01 -1.300e+01 -1.300e+01 -1.300e+01 -1.300e+01 -1.300e+01 -1.300e+01 -1.300e+01 -1.300e+01 -1.300e+01 -1.300e+01 -1.300e+01 -1.300e+01 -1.300e+01 -1.300e+01 -1.300e+01 -1.300e+01 -1.300e+01 -1.300e+01 -1.300e+01 -1.300e+01 -1.300e+01 -1.300e+01 -1.300e+01 -1.300e+01 -1.300e+01 -1.300e+01 -1.300e+01 -1.300e+01 -1.300e+01 -1.300e+01 -1.300e+01 -1.300e+01 -1.300e+01 -1.300e+01 -1.300e+01 -1.300e+01 -1.300e+01 -1.300e+01 -1.300e+01 -1.300e+01 -1.300e+01 -1.300e+01 -1.300e+01 -1.300e+01 -1.300e+01 -1.300e+01 -1.300e+01 -1.300e+01 -1.300e+01 -1.300e+01 -1.300e+01 -1.300e+01 -1.300e+01 -1.300e+01 -1.300e+01 -1.300e+01 -1.300e+01 -1.300e+01 -1.300e+01 -1.300e+01 -1.300e+01 -1.300e+01 -1.300e+01 -1.300e+01 -1.300e+01 -1.300e+01 -1.300e+01 -1.300e+01 -1.300e+01 -1.300e+01 -1.300e+01 -5.000e+00 -5.000e+00 -5.000e+00 -5.000e+00 -5.000e+00 -5.000e+00 -5.000e+00 -5.000e+00 -5.000e+00 -5.000e+00 -5.000e+00 -5.000e+00 -5.000e+00 -5.000e+00 -5.000e+00 -5.000e+00 -5.000e+00 -5.000e+00 -5.000e+00 -5.000e+00 -5.000e+00 -5.000e+00 -5.000e+00 -5.000e+00 -5.000e+00 -5.000e+00 -5.000e+00 -5.000e+00 -5.000e+00 -5.000e+00 -5.000e+00 -5.000e+00 -5.000e+00 -1.700e+01 -1.700e+01 -1.700e+01 -1.700e+01 -1.700e+01 -1.700e+01 -1.700e+01 -1.700e+01 -1.700e+01 -1.700e+01 -1.700e+01 -1.700e+01 -1.700e+01 -1.700e+01 -1.700e+01 -1.700e+01 -1.700e+01 -1.700e+01 -1.700e+01 -1.700e+01 -1.700e+01 -1.700e+01 -1.700e+01 -1.700e+01 -1.700e+01 -1.700e+01 -1.700e+01 -1.700e+01 -1.700e+01 -1.700e+01 -1.700e+01 -1.700e+01 -1.700e+01 -1.700e+01 -1.700e+01 -1.700e+01 -1.700e+01 -1.700e+01 -1.700e+01 -1.700e+01 -1.700e+01 -1.700e+01 -1.700e+01 -1.700e+01 -1.700e+01 -1.700e+01 -1.700e+01 -1.700e+01 -1.700e+01 -1.700e+01 -1.700e+01 -1.700e+01 -1.700e+01 -1.700e+01 -1.700e+01 -1.700e+01 -1.700e+01 -9.000e+00 -9.000e+00 -9.000e+00 -9.000e+00 -9.000e+00 -9.000e+00 -9.000e+00 -9.000e+00 -9.000e+00 -9.000e+00 -9.000e+00 -9.000e+00 -9.000e+00 -9.000e+00 -9.000e+00 -9.000e+00 -9.000e+00 -9.000e+00 -9.000e+00 -9.000e+00 -9.000e+00 -9.000e+00 -9.000e+00 -1.700e+01 -1.700e+01 -1.700e+01 -1.700e+01 -1.700e+01 -1.700e+01 -1.700e+01 -1.700e+01 -1.700e+01 -1.700e+01 -1.700e+01 -1.700e+01 -1.700e+01 -1.700e+01 -1.700e+01 -1.700e+01 -1.700e+01 -1.700e+01 -1.700e+01 -1.700e+01 -1.700e+01 -1.700e+01 -1.700e+01 -1.700e+01 -1.700e+01 -1.700e+01 -1.700e+01 -1.700e+01 -1.700e+01 -1.700e+01 -1.700e+01 -1.700e+01 -1.700e+01 -1.700e+01 -1.700e+01 -1.700e+01 -1.700e+01 -1.700e+01 -1.700e+01 -1.700e+01 -1.700e+01 -1.700e+01 -1.700e+01 -1.700e+01 -1.700e+01 -1.700e+01 -1.700e+01 -1.700e+01 -1.700e+01 -1.700e+01 -1.700e+01 -1.700e+01 -1.700e+01 -1.700e+01 -1.700e+01 -9.000e+00 -9.000e+00 -9.000e+00 -9.000e+00 -9.000e+00 -9.000e+00 -9.000e+00 -9.000e+00 -9.000e+00 -9.000e+00 -9.000e+00 -9.000e+00 -9.000e+00 -9.000e+00 -9.000e+00 -9.000e+00 -9.000e+00 -9.000e+00 -9.000e+00 -9.000e+00 -9.000e+00 -9.000e+00 -9.000e+00 -1.700e+01 -1.700e+01 -1.700e+01 -1.700e+01 -1.700e+01 -1.700e+01 -1.700e+01 -1.700e+01 -1.700e+01 -1.700e+01 -1.700e+01 -1.700e+01 -1.700e+01 -1.700e+01 -1.700e+01 -1.700e+01 -1.700e+01 -1.700e+01 -1.700e+01 -1.700e+01 -1.700e+01 -1.700e+01 -1.700e+01 -1.700e+01 -1.700e+01 -1.700e+01 -1.700e+01 -1.700e+01 -1.700e+01 -1.700e+01 -1.700e+01 -1.700e+01 -1.700e+01 -1.700e+01 -1.700e+01 -1.700e+01 -1.700e+01 -1.700e+01 -1.700e+01 -1.700e+01 -1.700e+01 -1.700e+01 -1.700e+01 -1.700e+01 -1.700e+01 -1.700e+01 -1.700e+01 -1.700e+01 -1.700e+01 -1.700e+01 -1.700e+01 -1.700e+01 -1.700e+01 -1.700e+01 -1.700e+01 -1.700e+01 -1.700e+01 -1.700e+01 -9.000e+00 -9.000e+00 -9.000e+00 -9.000e+00 -9.000e+00 -9.000e+00 -9.000e+00 -9.000e+00 -9.000e+00 -9.000e+00 -9.000e+00 -9.000e+00 -9.000e+00 -9.000e+00 -9.000e+00 -9.000e+00 -9.000e+00 -9.000e+00 -9.000e+00 -9.000e+00 -9.000e+00 -9.000e+00 -9.000e+00 -1.700e+01 -1.700e+01 -1.700e+01 -1.700e+01 -1.700e+01 -1.700e+01 -1.700e+01 -1.700e+01 -1.700e+01 -1.700e+01 -1.700e+01 -1.700e+01 -1.700e+01 -1.700e+01 -1.700e+01 -1.700e+01 -1.700e+01 -1.700e+01 -1.700e+01 -1.700e+01 -1.700e+01 -1.700e+01 -1.700e+01 -1.700e+01 -1.700e+01 -1.700e+01 -1.700e+01 -1.700e+01 -1.700e+01 -1.700e+01 -1.700e+01 -1.700e+01 -1.700e+01 -1.700e+01 -1.700e+01 -1.700e+01 -1.700e+01 -1.700e+01 -1.700e+01 -1.700e+01 -1.700e+01 -1.700e+01 -1.700e+01 -1.700e+01 -1.700e+01 -1.700e+01 -1.700e+01 -1.700e+01 -1.700e+01 -1.700e+01 -1.700e+01 -1.700e+01 -1.700e+01 -1.700e+01 -9.000e+00 -9.000e+00 -9.000e+00 -9.000e+00 -9.000e+00 -9.000e+00 -9.000e+00 -9.000e+00 -9.000e+00 -9.000e+00 -9.000e+00 -9.000e+00 -9.000e+00 -9.000e+00 -9.000e+00 -9.000e+00 -9.000e+00 -9.000e+00 -9.000e+00 -9.000e+00 -9.000e+00 -9.000e+00 -9.000e+00 -1.800e+01 -1.800e+01 -1.800e+01 -1.800e+01 -1.800e+01 -1.800e+01 -1.800e+01 -1.800e+01 -1.800e+01 -1.800e+01 -1.800e+01 -1.800e+01 -1.800e+01 -1.800e+01 -1.800e+01 -1.800e+01 -1.800e+01 -1.800e+01 -1.800e+01 -1.800e+01 -1.800e+01 -1.800e+01 -1.800e+01 -1.800e+01 -1.800e+01 -1.800e+01 -1.800e+01 -1.800e+01 -1.800e+01 -1.800e+01 -1.800e+01 -1.800e+01 -2.000e+00 -2.000e+00 -2.000e+00 -2.000e+00 -2.000e+00 -2.000e+00 -2.000e+00 -2.000e+00 -2.000e+00 -2.000e+00 -2.000e+00 -2.000e+00 -1.500e+01 -7.000e+00 -7.000e+00 -7.000e+00 -7.000e+00 -7.000e+00 -7.000e+00 -1.500e+01 -1.500e+01 -1.500e+01 -7.000e+00 -7.000e+00 -7.000e+00 -7.000e+00 -7.000e+00 -7.000e+00 -7.000e+00 -7.000e+00 -1.500e+01 -1.500e+01 -1.500e+01 -7.000e+00 -7.000e+00 -7.000e+00 -7.000e+00 -7.000e+00 -7.000e+00 -7.000e+00 -7.000e+00 -7.000e+00 -7.000e+00 -7.000e+00 -7.000e+00 -7.000e+00 -7.000e+00 -7.000e+00 -7.000e+00 -7.000e+00 -7.000e+00 -7.000e+00 -7.000e+00 -7.000e+00 -7.000e+00 -7.000e+00 -7.000e+00 -7.000e+00 -7.000e+00 -7.000e+00 -7.000e+00 -7.000e+00 -7.000e+00 -7.000e+00 -7.000e+00 -7.000e+00 -7.000e+00 -7.000e+00 -7.000e+00 -7.000e+00 -7.000e+00 -7.000e+00 -7.000e+00 -7.000e+00 -7.000e+00 -7.000e+00 -7.000e+00 -7.000e+00 -7.000e+00 -7.000e+00 -7.000e+00 -1.500e+01 -1.500e+01 -7.000e+00 -7.000e+00 -7.000e+00 -7.000e+00 -7.000e+00 -7.000e+00 -7.000e+00 -7.000e+00 -7.000e+00 -7.000e+00 -7.000e+00 -7.000e+00 -7.000e+00 -7.000e+00 -7.000e+00 -7.000e+00 -7.000e+00 -7.000e+00 -7.000e+00 -7.000e+00 -7.000e+00 -7.000e+00 -7.000e+00 -7.000e+00 -7.000e+00 -7.000e+00 -7.000e+00 -7.000e+00 -7.000e+00 -7.000e+00 -7.000e+00 -7.000e+00 -7.000e+00 -7.000e+00 -7.000e+00 -7.000e+00 -1.500e+01 -1.500e+01 -7.000e+00 -7.000e+00 -7.000e+00 -7.000e+00 -7.000e+00 -7.000e+00 -7.000e+00 -7.000e+00 -7.000e+00 -7.000e+00 -7.000e+00 -7.000e+00 -7.000e+00 -7.000e+00 -7.000e+00 -7.000e+00 -7.000e+00 -7.000e+00 -7.000e+00 -7.000e+00 -7.000e+00 -7.000e+00 -7.000e+00 -7.000e+00 -7.000e+00 -7.000e+00 -7.000e+00 -7.000e+00 -7.000e+00 -7.000e+00 -7.000e+00 -7.000e+00 -7.000e+00 -1.500e+01 -1.500e+01 -1.500e+01 -7.000e+00 -7.000e+00 -7.000e+00 -7.000e+00 -7.000e+00 -7.000e+00 -7.000e+00 -7.000e+00 -7.000e+00 -7.000e+00 -7.000e+00 -7.000e+00 -7.000e+00 -7.000e+00 -7.000e+00 -7.000e+00 -7.000e+00 -7.000e+00 -7.000e+00 -7.000e+00 -7.000e+00 -7.000e+00 -7.000e+00 -7.000e+00 -7.000e+00 -7.000e+00 -7.000e+00 -7.000e+00 -7.000e+00 -1.500e+01 -1.500e+01 -1.500e+01 -7.000e+00 -7.000e+00 -7.000e+00 -7.000e+00 -7.000e+00 -7.000e+00 -7.000e+00 -7.000e+00 -7.000e+00 -7.000e+00 -7.000e+00 -7.000e+00 -7.000e+00 -7.000e+00 -7.000e+00 -7.000e+00 -7.000e+00 -7.000e+00 -7.000e+00 -7.000e+00 -7.000e+00 -7.000e+00 -7.000e+00 -7.000e+00 -7.000e+00 -7.000e+00 -7.000e+00 -1.500e+01 -1.500e+01 -7.000e+00 -7.000e+00 -7.000e+00 -7.000e+00 -7.000e+00 -7.000e+00 -7.000e+00 -7.000e+00 -7.000e+00 -7.000e+00 -7.000e+00 -7.000e+00 -7.000e+00 -7.000e+00 -7.000e+00 -7.000e+00 -7.000e+00 -7.000e+00 -7.000e+00 -7.000e+00 -7.000e+00 -1.500e+01 -1.500e+01 -1.500e+01 -7.000e+00 -7.000e+00 -7.000e+00 -7.000e+00 -7.000e+00 -7.000e+00 -7.000e+00 -7.000e+00 -7.000e+00 -7.000e+00 -7.000e+00 -7.000e+00 -7.000e+00 -7.000e+00 -7.000e+00 -7.000e+00 -7.000e+00 -1.500e+01 -1.500e+01 -7.000e+00 -7.000e+00 -7.000e+00 -7.000e+00 -7.000e+00 -7.000e+00 -7.000e+00 -7.000e+00 -7.000e+00 -7.000e+00 -7.000e+00 -7.000e+00 -7.000e+00 -7.000e+00 -7.000e+00 -7.000e+00 -1.500e+01 -7.000e+00 -7.000e+00 -7.000e+00 -7.000e+00 -7.000e+00 -7.000e+00 -7.000e+00 -7.000e+00 -1.500e+01 -1.500e+01 -7.000e+00 -7.000e+00 -7.000e+00 -7.000e+00 -7.000e+00 -7.000e+00 -1.500e+01 -1.500e+01 -1.500e+01 -7.000e+00 -7.000e+00 -7.000e+00 -7.000e+00 -7.000e+00 -7.000e+00 -7.000e+00 -7.000e+00 -1.500e+01 -7.000e+00 -7.000e+00 -7.000e+00 -7.000e+00 -7.000e+00 -7.000e+00 -1.500e+01 -7.000e+00 -7.000e+00 -7.000e+00 -7.000e+00 -7.000e+00 -7.000e+00 -1.500e+01 -1.500e+01 -1.500e+01 -7.000e+00 -7.000e+00 -7.000e+00 -7.000e+00 -7.000e+00 -7.000e+00 -7.000e+00 -1.500e+01 -7.000e+00 -7.000e+00 -7.000e+00 -7.000e+00 -7.000e+00 -7.000e+00 -7.000e+00 -7.000e+00 -7.000e+00 -7.000e+00 -7.000e+00 -7.000e+00 -1.500e+01 -7.000e+00 -7.000e+00 -7.000e+00 -7.000e+00 -7.000e+00 -7.000e+00 -1.500e+01 -7.000e+00 -7.000e+00 -7.000e+00 -7.000e+00 -7.000e+00 -7.000e+00 -1.500e+01 -1.500e+01 -1.500e+01 -1.500e+01