<?xml version="1.0"?>
<VTKFile type="UnstructuredGrid" version="0.1" byte_order="LittleEndian">
   <UnstructuredGrid>
      <Piece NumberOfPoints="60730" NumberOfCells="4459">
         <Points>
            <DataArray type="Float32" Name="Position" NumberOfComponents="3" format="ascii">
-0.087	-5.026	0.101
-0.086	-5.017	0.102
-0.091	-5.009	0.105
-0.098	-5.007	0.110
-0.106	-5.010	0.115
-0.111	-5.017	0.117
-0.111	-5.027	0.116
-0.107	-5.034	0.113
-0.099	-5.037	0.108
-0.092	-5.034	0.104
0.348	-5.093	0.823
0.347	-5.084	0.825
0.342	-5.077	0.829
0.335	-5.076	0.835
0.329	-5.080	0.840
0.325	-5.088	0.842
0.326	-5.098	0.841
0.331	-5.104	0.836
0.338	-5.106	0.830
0.344	-5.101	0.826
0.969	-5.146	1.441
0.968	-5.137	1.444
0.963	-5.132	1.450
0.957	-5.132	1.457
0.951	-5.138	1.462
0.949	-5.147	1.463
0.950	-5.155	1.460
0.955	-5.160	1.453
0.961	-5.160	1.447
0.967	-5.154	1.442
1.573	-5.329	1.976
1.573	-5.320	1.979
1.568	-5.315	1.985
1.562	-5.315	1.992
1.556	-5.320	1.996
1.552	-5.329	1.997
1.553	-5.337	1.993
1.557	-5.343	1.987
1.564	-5.343	1.980
1.570	-5.337	1.976
1.830	-5.429	2.256
1.830	-5.421	2.259
1.825	-5.415	2.265
1.819	-5.415	2.271
1.812	-5.420	2.275
1.808	-5.428	2.276
1.808	-5.437	2.273
1.813	-5.442	2.267
1.819	-5.443	2.260
1.826	-5.438	2.256
-0.189	-5.078	0.220
-0.186	-5.071	0.224
-0.186	-5.062	0.225
-0.191	-5.054	0.222
-0.197	-5.051	0.216
-0.203	-5.054	0.209
-0.206	-5.061	0.205
-0.205	-5.070	0.204
-0.201	-5.078	0.207
-0.195	-5.081	0.213
-0.818	-5.181	0.821
-0.815	-5.174	0.825
-0.816	-5.165	0.827
-0.820	-5.157	0.824
-0.826	-5.154	0.818
-0.832	-5.157	0.811
-0.835	-5.164	0.806
-0.834	-5.173	0.805
-0.830	-5.181	0.808
-0.823	-5.184	0.814
-1.445	-5.365	1.409
-1.443	-5.358	1.414
-1.443	-5.348	1.415
-1.448	-5.341	1.412
-1.453	-5.338	1.405
-1.459	-5.340	1.398
-1.462	-5.348	1.393
-1.461	-5.357	1.392
-1.457	-5.364	1.395
-1.451	-5.367	1.402
-2.115	-5.411	1.878
-2.113	-5.404	1.883
-2.113	-5.395	1.883
-2.116	-5.387	1.878
-2.120	-5.384	1.871
-2.124	-5.387	1.863
-2.127	-5.395	1.858
-2.126	-5.404	1.858
-2.124	-5.411	1.862
-2.119	-5.414	1.870
-2.457	-5.419	2.004
-2.455	-5.412	2.009
-2.455	-5.402	2.009
-2.458	-5.395	2.003
-2.461	-5.392	1.995
-2.464	-5.396	1.987
-2.465	-5.403	1.982
-2.465	-5.412	1.982
-2.463	-5.420	1.987
-2.460	-5.422	1.996
-0.971	-5.737	1.063
-0.964	-5.738	1.069
-0.962	-5.741	1.078
-0.966	-5.745	1.085
-0.974	-5.748	1.089
-0.983	-5.750	1.087
-0.989	-5.748	1.081
-0.991	-5.745	1.072
-0.987	-5.742	1.065
-0.980	-5.738	1.061
-0.802	-6.539	0.741
-0.796	-6.541	0.747
-0.795	-6.544	0.756
-0.800	-6.547	0.764
-0.808	-6.548	0.767
-0.817	-6.548	0.765
-0.823	-6.546	0.758
-0.824	-6.543	0.749
-0.819	-6.540	0.742
-0.811	-6.539	0.739
-0.883	-7.285	0.547
-0.878	-7.287	0.555
-0.880	-7.288	0.564
-0.886	-7.288	0.571
-0.895	-7.288	0.573
-0.903	-7.286	0.569
-0.908	-7.285	0.561
-0.906	-7.283	0.552
-0.900	-7.283	0.545
-0.891	-7.284	0.543
-0.954	-8.061	0.514
-0.951	-8.061	0.522
-0.953	-8.061	0.531
-0.960	-8.060	0.538
-0.969	-8.060	0.538
-0.977	-8.059	0.534
-0.980	-8.059	0.525
-0.979	-8.059	0.516
-0.972	-8.060	0.510
-0.962	-8.061	0.509
-1.024	-8.930	0.583
-1.020	-8.930	0.591
-1.022	-8.929	0.600
-1.028	-8.929	0.606
-1.038	-8.930	0.608
-1.046	-8.930	0.604
-1.050	-8.930	0.595
-1.048	-8.931	0.586
-1.042	-8.931	0.580
-1.033	-8.931	0.578
-1.013	-9.019	0.583
-1.009	-9.019	0.591
-1.010	-9.019	0.600
-1.016	-9.019	0.607
-1.025	-9.021	0.609
-1.033	-9.022	0.605
-1.038	-9.022	0.597
-1.037	-9.022	0.588
-1.031	-9.022	0.581
-1.022	-9.021	0.579
-5.586	-17.287	5.798
-5.581	-17.280	5.800
-5.582	-17.271	5.801
-5.588	-17.263	5.800
-5.596	-17.261	5.797
-5.604	-17.264	5.793
-5.609	-17.272	5.791
-5.608	-17.281	5.790
-5.602	-17.288	5.792
-5.594	-17.291	5.794
-5.876	-17.369	6.569
-5.872	-17.362	6.571
-5.873	-17.352	6.572
-5.878	-17.345	6.570
-5.887	-17.343	6.568
-5.895	-17.347	6.565
-5.900	-17.354	6.563
-5.899	-17.364	6.562
-5.893	-17.371	6.563
-5.884	-17.373	6.566
-6.008	-17.423	7.076
-6.003	-17.415	7.078
-6.004	-17.406	7.079
-6.010	-17.399	7.078
-6.019	-17.397	7.076
-6.027	-17.401	7.073
-6.032	-17.409	7.071
-6.031	-17.418	7.070
-6.025	-17.425	7.071
-6.016	-17.427	7.073
-5.607	-17.432	5.835
-5.602	-17.425	5.838
-5.603	-17.415	5.838
-5.608	-17.408	5.836
-5.616	-17.405	5.832
-5.623	-17.408	5.828
-5.628	-17.416	5.825
-5.628	-17.425	5.824
-5.622	-17.433	5.827
-5.614	-17.435	5.831
-6.011	-17.479	6.610
-6.007	-17.471	6.613
-6.008	-17.462	6.614
-6.013	-17.455	6.612
-6.021	-17.452	6.608
-6.029	-17.455	6.604
-6.033	-17.463	6.601
-6.032	-17.472	6.600
-6.027	-17.479	6.602
-6.019	-17.482	6.606
-6.342	-17.598	7.291
-6.338	-17.590	7.294
-6.339	-17.581	7.295
-6.344	-17.574	7.294
-6.353	-17.571	7.290
-6.360	-17.575	7.286
-6.365	-17.582	7.283
-6.364	-17.591	7.282
-6.358	-17.599	7.284
-6.350	-17.601	7.287
-6.465	-17.622	7.572
-6.460	-17.614	7.575
-6.461	-17.605	7.575
-6.466	-17.597	7.574
-6.475	-17.595	7.570
-6.482	-17.598	7.566
-6.487	-17.606	7.564
-6.486	-17.615	7.563
-6.481	-17.622	7.565
-6.473	-17.625	7.568
-5.637	-17.553	5.857
-5.629	-17.552	5.862
-5.623	-17.555	5.868
-5.622	-17.563	5.874
-5.626	-17.570	5.877
-5.633	-17.576	5.876
-5.641	-17.577	5.872
-5.647	-17.574	5.866
-5.648	-17.567	5.860
-5.644	-17.559	5.857
-5.248	-17.974	5.258
-5.240	-17.973	5.263
-5.235	-17.976	5.269
-5.234	-17.983	5.275
-5.238	-17.991	5.279
-5.245	-17.997	5.278
-5.253	-17.998	5.273
-5.258	-17.995	5.267
-5.259	-17.988	5.261
-5.256	-17.980	5.257
-4.862	-18.379	4.740
-4.854	-18.378	4.745
-4.848	-18.382	4.752
-4.847	-18.388	4.758
-4.851	-18.396	4.761
-4.859	-18.402	4.760
-4.867	-18.403	4.755
-4.872	-18.400	4.748
-4.873	-18.393	4.742
-4.869	-18.385	4.739
-5.649	-17.705	5.890
-5.650	-17.697	5.895
-5.654	-17.694	5.903
-5.659	-17.697	5.910
-5.663	-17.704	5.914
-5.665	-17.713	5.914
-5.664	-17.720	5.908
-5.660	-17.723	5.901
-5.655	-17.721	5.893
-5.651	-17.714	5.889
-4.976	-17.878	6.285
-4.976	-17.871	6.291
-4.979	-17.868	6.300
-4.984	-17.871	6.307
-4.988	-17.879	6.311
-4.990	-17.887	6.309
-4.990	-17.894	6.303
-4.987	-17.897	6.295
-4.983	-17.894	6.287
-4.978	-17.886	6.283
-4.263	-18.196	6.515
-4.262	-18.190	6.522
-4.263	-18.188	6.531
-4.267	-18.192	6.539
-4.272	-18.199	6.542
-4.276	-18.207	6.540
-4.277	-18.213	6.533
-4.276	-18.215	6.524
-4.271	-18.211	6.516
-4.267	-18.204	6.513
-4.206	-18.232	6.529
-4.204	-18.227	6.536
-4.206	-18.225	6.545
-4.210	-18.229	6.553
-4.215	-18.236	6.556
-4.220	-18.244	6.553
-4.222	-18.249	6.546
-4.220	-18.251	6.537
-4.216	-18.247	6.530
-4.211	-18.240	6.526
-5.680	-17.842	5.926
-5.672	-17.841	5.931
-5.668	-17.844	5.939
-5.668	-17.851	5.945
-5.672	-17.858	5.948
-5.680	-17.864	5.947
-5.687	-17.865	5.942
-5.692	-17.862	5.935
-5.692	-17.855	5.928
-5.687	-17.848	5.925
-5.241	-18.337	5.424
-5.233	-18.335	5.430
-5.229	-18.338	5.437
-5.229	-18.345	5.444
-5.233	-18.352	5.447
-5.241	-18.358	5.445
-5.248	-18.359	5.440
-5.252	-18.356	5.432
-5.252	-18.350	5.426
-5.248	-18.342	5.423
-4.834	-18.728	5.035
-4.834	-18.724	5.043
-4.834	-18.725	5.053
-4.834	-18.732	5.059
-4.834	-18.741	5.061
-4.834	-18.749	5.056
-4.834	-18.753	5.048
-4.834	-18.752	5.039
-4.834	-18.745	5.032
-4.834	-18.736	5.031
-5.705	-17.985	5.963
-5.697	-17.984	5.967
-5.691	-17.987	5.973
-5.689	-17.994	5.978
-5.692	-18.003	5.981
-5.699	-18.009	5.980
-5.708	-18.010	5.976
-5.714	-18.007	5.970
-5.716	-18.000	5.965
-5.712	-17.991	5.962
-5.298	-18.361	5.320
-5.290	-18.359	5.325
-5.284	-18.362	5.331
-5.283	-18.370	5.337
-5.286	-18.378	5.339
-5.293	-18.384	5.338
-5.300	-18.386	5.333
-5.306	-18.382	5.327
-5.308	-18.375	5.321
-5.305	-18.367	5.319
-5.043	-18.541	5.030
-5.036	-18.539	5.035
-5.030	-18.542	5.042
-5.029	-18.550	5.048
-5.032	-18.558	5.050
-5.038	-18.564	5.048
-5.046	-18.566	5.043
-5.051	-18.563	5.036
-5.053	-18.556	5.031
-5.050	-18.548	5.028
-5.728	-18.129	5.998
-5.721	-18.127	6.002
-5.714	-18.131	6.008
-5.712	-18.138	6.014
-5.715	-18.147	6.016
-5.722	-18.153	6.015
-5.729	-18.155	6.010
-5.736	-18.152	6.004
-5.738	-18.144	5.999
-5.735	-18.136	5.997
-5.301	-18.446	5.384
-5.294	-18.443	5.390
-5.288	-18.447	5.396
-5.286	-18.454	5.401
-5.288	-18.463	5.403
-5.294	-18.469	5.401
-5.301	-18.472	5.396
-5.307	-18.468	5.390
-5.309	-18.461	5.384
-5.307	-18.452	5.382
-4.872	-18.616	4.980
-4.877	-18.608	4.980
-4.883	-18.603	4.984
-4.890	-18.603	4.991
-4.894	-18.608	4.997
-4.894	-18.616	5.002
-4.890	-18.624	5.002
-4.883	-18.630	4.998
-4.876	-18.630	4.991
-4.872	-18.624	4.984
-5.739	-18.297	6.045
-5.736	-18.290	6.049
-5.736	-18.281	6.050
-5.741	-18.273	6.048
-5.749	-18.270	6.043
-5.756	-18.273	6.037
-5.759	-18.281	6.033
-5.759	-18.290	6.032
-5.754	-18.297	6.035
-5.746	-18.300	6.039
-6.230	-18.417	6.713
-6.227	-18.410	6.718
-6.227	-18.400	6.719
-6.232	-18.393	6.716
-6.239	-18.390	6.711
-6.246	-18.393	6.705
-6.250	-18.400	6.701
-6.249	-18.409	6.700
-6.244	-18.417	6.702
-6.237	-18.420	6.708
-6.520	-18.480	7.041
-6.517	-18.472	7.045
-6.517	-18.463	7.046
-6.522	-18.455	7.044
-6.529	-18.453	7.038
-6.535	-18.455	7.032
-6.539	-18.463	7.028
-6.538	-18.472	7.027
-6.533	-18.479	7.029
-6.526	-18.482	7.035
-5.772	-18.418	6.066
-5.764	-18.417	6.070
-5.758	-18.420	6.077
-5.757	-18.428	6.082
-5.761	-18.435	6.086
-5.768	-18.441	6.085
-5.776	-18.442	6.080
-5.782	-18.439	6.074
-5.783	-18.432	6.068
-5.779	-18.424	6.065
-5.360	-18.856	5.453
-5.352	-18.855	5.458
-5.346	-18.859	5.464
-5.345	-18.866	5.470
-5.349	-18.874	5.473
-5.356	-18.879	5.472
-5.364	-18.881	5.467
-5.370	-18.877	5.461
-5.371	-18.870	5.455
-5.367	-18.862	5.452
-5.071	-19.121	5.055
-5.063	-19.119	5.060
-5.058	-19.123	5.067
-5.056	-19.130	5.072
-5.060	-19.138	5.075
-5.067	-19.144	5.074
-5.075	-19.145	5.069
-5.080	-19.142	5.063
-5.082	-19.135	5.057
-5.078	-19.127	5.054
-5.799	-18.580	6.121
-5.801	-18.571	6.121
-5.799	-18.563	6.116
-5.795	-18.560	6.108
-5.790	-18.562	6.101
-5.786	-18.568	6.096
-5.784	-18.578	6.097
-5.785	-18.585	6.101
-5.789	-18.589	6.109
-5.794	-18.587	6.116
-6.464	-18.724	5.697
-6.464	-18.715	5.695
-6.461	-18.709	5.690
-6.455	-18.707	5.683
-6.449	-18.712	5.677
-6.446	-18.720	5.674
-6.446	-18.729	5.676
-6.449	-18.735	5.682
-6.455	-18.737	5.689
-6.461	-18.732	5.695
-6.981	-18.793	5.126
-6.978	-18.784	5.123
[...]
         <CellData>
           <DataArray type="Float32" Name="combinedRootClassID" NumberOfComponents="1" format="ascii">
 -1.300e+01 -1.300e+01 -1.300e+01 -1.300e+01 -1.300e+01 -1.300e+01 -1.300e+01 -1.300e+01 -1.300e+01 -1.300e+01 -1.300e+01 -1.300e+01 -1.300e+01 -1.300e+01 -1.300e+01 -1.300e+01 -1.300e+01 -1.300e+01 -1.300e+01 -1.300e+01 -1.300e+01 -1.300e+01 -1.300e+01 -1.300e+01 -1.300e+01 -1.300e+01 -1.300e+01 -1.300e+01 -1.300e+01 -1.300e+01 -1.300e+01 -1.300e+01 -1.300e+01 -1.300e+01 -1.300e+01 -1.300e+01 -1.300e+01 -1.300e+01 -1.300e+01 -1.300e+01 -1.300e+01 -1.300e+01 -1.300e+01 -1.300e+01 -1.300e+01 -1.300e+01 -1.300e+01 -1.300e+01 -1.300e+01 -1.300e+01 -1.300e+01 -1.300e+01 -1.300e+01 -1.300e+01 -1.300e+01 -1.300e+01 -1.300e+01 -1.300e+01 -1.300e+01 -1.300e+01 -1.300e+01 -1.300e+01 -1.300e+01 -1.300e+01 -1.300e+01 -1.300e+01 -1.300e+01 -1.300e+01 -1.300e+01 -1.300e+01 -1.300e+01 -1.300e+01 -1.300e+01 -1.300e+01 -1.300e+01 -1.300e+01 -1.300e+01 -1.300e+01 -1.300e+01 -1.300e+01 -1.300e+01 -1.300e+01 -1.300e+01 -1.300e+01 -1.300e+01 -1.300e+01 -1.300e+01 -1.300e+01 -1.300e+01 -1.300e+01 -1.300e+01 -1.300e+01 -1.300e+01 -1.300e+01 -1.300e+01 -1.300e+01 -1.300e+01 -1.300e+01 -1.300e+01 -1.300e+01 -1.300e+01 -1.300e+01 -1.300e+01 -1.300e+01 -1.300e+01 -1.300e+01 -1.300e+01 -1.300e+01 -1.300e+01 -1.300e+01 -1.300e+01 -1.300e+01 -1.300e+01 -1.300e+01 -1.300e+01 -1.300e+01 -1.300e+01 -1.300e+01 -1.300e+01 -1.300e+01 -1.300e+01 -1.300e+01 -1.300e+01 -1.300e+01 -1.300e+01 -1.300e+01 -1.300e+01 -1.300e+01 -1.300e+01 -1.300e+01 -1.300e+01 -1.300e+01 -1.300e+01 -1.300e+01 -1.300e+01 -1.300e+01 -1.300e+01 -1.300e+01 -1.300e+01 -1.300e+01 -1.300e+01 -1.300e+01 -1.300e+01 -1.300e+01 -1.300e+01 -1.300e+01 -1.300e+01 -1.300e+01 -1.300e+01 -1.300e+01 -1.300e+01 -1.300e+01 -1.300e+01 -1.300e+01 -1.300e+01 -1.300e+01 -1.300e+01 -1.300e+01 -1.300e+01 -1.300e+01 -1.300e+01 -1.300e+01 -1.300e+01 -1.300e+01 -1.300e+01 -1.300e+01 -1.300e+01 -1.300e+01 -1.300e+01 -1.300e+01 -1.300e+01 -1.300e+01 -1.300e+01 -1.300e+01 -1.300e+01 -1.300e+01 -1.300e+01 -1.300e+01 -1.300e+01 -1.300e+01 -1.300e+01 -1.300e+01 -1.300e+01 -1.300e+01 -1.300e+01 -1.300e+01 -1.300e+01 -1.300e+01 -1.300e+01 -1.300e+01 -1.300e+01 -1.300e+01 -1.300e+01 -1.300e+01 -1.300e+01 -1.300e+01 -1.300e+01 -1.300e+01 -1.300e+01 -1.300e+01 -1.300e+01 -1.300e+01 -1.300e+01 -1.300e+01 -1.300e+01 -1.300e+01 -1.300e+01 -1.300e+01 -1.300e+01 -1.300e+01 -1.300e+01 -1.300e+01 -1.300e+01 -1.300e+01 -1.300e+01 -1.300e+01 -1.300e+01 -1.300e+01 -1.300e+01 -1.300e+01 -1.300e+01 -1.300e+01 -1.300e+01 -1.300e+01 -1.300e+01 -1.300e+01 -1.300e+01 -1.300e+01 -1.300e+01 -1.300e+01 -1.300e+01 -1.300e+01 -1.300e+01 -1.300e+01 -1.300e+01 -1.300e+01 -1.300e+01 -1.300e+01 -1.300e+01 -1.300e+01 -1.300e+01 -1.300e+01 -1.300e+01 -1.300e+01 -1.300e+01 -1.300e+01 -1.300e+01 -1.300e+01 -1.300e+01 -1.300e+01 -1.300e+01 -1.300e+01 -1.300e+01 -1.300e+01 -1.300e+01 -1.300e+01 -1.300e+01 -1.300e+01 -1.300e+01 -1.300e+01 -1.300e+01 -1.300e+01 -1.300e+01 -1.300e+01 -1.300e+01 -1.300e+01 -1.300e+01 -1.300e+01 -1.300e+01 -1.300e+01 -1.300e+01 -1.300e+01 -1.300e+01 -1.300e+01 -1.300e+01 -1.300e+01 -1.300e+01 -1.300e+01 -1.300e+01 -1.300e+01 -1.300e+01 -1.300e+01 -1.300e+01 -1.300e+01 -1.300e+01 -1.300e+01 -1.300e+01 -1.300e+01 -1.300e+01 -1.300e+01 -1.300e+01 -1.300e+01 -1.300e+01 -1.300e+01 -1.300e+01 -1.300e+01 -1.300e+01 -1.300e+01 -1.300e+01 -1.300e+01 -1.300e+01 -1.300e+01 -1.300e+01 -1.300e+01 -1.300e+01 -1.300e+01 -1.300e+01 -1.300e+01 -1.300e+01 -1.300e+01 -1.300e+01 -1.300e+01 -1.300e+01 -1.300e+01 -1.300e+01 -1.300e+01 -1.300e+01 -1.300e+01 -1.300e+01 -1.300e+01 -1.300e+01 -1.300e+01 -1.300e+01 -1.300e+01 -1.300e+01 -1.300e+01 -1.300e+01 -1.300e+01 -1.300e+01 -1.300e+01 -1.300e+01 -1.300e+01 -1.300e+01 -1.300e+01 -1.300e+01 -1.300e+01 -1.300e+01 -1.300e+01 -1.300e+01 -1.300e+01 -1.300e+01 -1.300e+01 -1.300e+01 -1.300e+01 -1.300e+01 -1.300e+01 -1.300e+01 -1.300e+01 -1.300e+01 -1.300e+01 -1.300e+01 -1.300e+01 -1.300e+01 -1.300e+01 -1.300e+01 -1.300e+01 -1.300e+01 -1.300e+01 -1.300e+01 -1.300e+01 -1.300e+01 -1.300e+01 -1.300e+01 -1.300e+01 -1.300e+01 -1.300e+01 -1.300e+01 -1.300e+01 -1.300e+01 -1.300e+01 -1.300e+01 -1.300e+01 -1.300e+01 -1.300e+01 -1.300e+01 -1.300e+01 -1.300e+01 -1.300e+01 -1.300e+01 -1.300e+01 -1.300e+01 -1.300e+01 -1.300e+01 -1.300e+01 -1.300e+01 -1.300e+01 -1.300e+01 -1.300e+01 -1.300e+01 -1.300e+01 -1.300e+01 -1.300e+01 -1.300e+01 -1.300e+01 -1.300e+01 -1.300e+01 -1.300e+01 -1.300e+01 -1.300e+01 -1.300e+01 -1.300e+01 -1.300e+01 -1.300e+01 -1.300e+01 -1.300e+01 -1.300e+01 -1.300e+01 -1.300e+01 -1.300e+01 -1.300e+01 -1.300e+01 -1.300e+01 -1.300e+01 -1.300e+01 -1.300e+01 -1.300e+01 -1.300e+01 -1.300e+01 -1.300e+01 -1.300e+01 -1.300e+01 -1.300e+01 -1.300e+01 -1.300e+01 -1.300e+01 -1.300e+01 -1.300e+01 -1.300e+01 -1.300e+01 -1.300e+01 -1.300e+01 -1.300e+01 -1.300e+01 -1.300e+01 -1.300e+01 -1.300e+01 -1.300e+01 -1.300e+01 -1.300e+01 -1.300e+01 -1.300e+01 -1.300e+01 -1.300e+01 -1.300e+01 -1.300e+01 -1.300e+01 -1.300e+01 -1.300e+01 -1.300e+01 -1.300e+01 -1.300e+01 -1.300e+01 -1.300e+01 -1.300e+01 -1.300e+01 -5.000e+00 -5.000e+00 -5.000e+00 -5.000e+00 -5.000e+00 -5.000e+00 -5.000e+00 -5.000e+00 -5.000e+00 -5.000e+00 -5.000e+00 -5.000e+00 -5.000e+00 -5.000e+00 -5.000e+00 -5.000e+00 -5.000e+00 -5.000e+00 -5.000e+00 -5.000e+00 -5.000e+00 -5.000e+00 -5.000e+00 -5.000e+00 -5.000e+00 -5.000e+00 -5.000e+00 -5.000e+00 -5.000e+00 -5.000e+00 -5.000e+00 -5.000e+00 -5.000e+00 -5.000e+00 -5.000e+00 -5.000e+00 -5.000e+00 -5.000e+00 -5.000e+00 -5.000e+00 -5.000e+00 -5.000e+00 -5.000e+00 -1.300e+01 -1.300e+01 -1.300e+01 -1.300e+01 -1.300e+01 -1.300e+01 -1.300e+01 -1.300e+01 -1.300e+01 -1.300e+01 -1.300e+01 -1.300e+01 -1.300e+01 -1.300e+01 -1.300e+01 -1.300e+01 -1.300e+01 -1.300e+01 -1.300e+01 -1.300e+01 -1.300e+01 -1.300e+01 -1.300e+01 -1.300e+01 -1.300e+01 -1.300e+01 -1.300e+01 -1.300e+01 -1.300e+01 -1.300e+01 -1.300e+01 -1.300e+01 -1.300e+01 -1.300e+01 -1.300e+01 -1.300e+01 -1.300e+01 -1.300e+01 -1.300e+01 -1.300e+01 -1.300e+01 -1.300e+01 -1.300e+01 -1.300e+01 -1.300e+01 -1.300e+01 -1.300e+01 -1.300e+01 -1.300e+01 -1.300e+01 -1.300e+01 -1.300e+01 -1.300e+01 -1.300e+01 -1.300e+01 -1.300e+01 -1.300e+01 -1.300e+01 -1.300e+01 -1.300e+01 -1.300e+01 -1.300e+01 -1.300e+01 -1.300e+01 -1.300e+01 -1.300e+01 -1.300e+01 -1.300e+01 -1.300e+01 -1.300e+01 -1.300e+01 -1.300e+01 -1.300e+01 -1.300e+01 -1.300e+01 -1.300e+01 -1.300e+01 -1.300e+01 -1.300e+01 -1.300e+01 -1.300e+01 -1.300e+01 -1.300e+01 -1.300e+01 -1.300e+01 -1.300e+01 -1.300e+01 -1.300e+01 -1.300e+01 -1.300e+01 -1.300e+01 -1.300e+01 -1.300e+01 -1.300e+01 -1.300e+01 -1.300e+01 -1.300e+01 -1.300e+01 -1.300e+01 -1.300e+01 -1.300e+01 -1.300e+01 -1.300e+01 -1.300e+01 -1.300e+01 -1.300e+01 -1.300e+01 -1.300e+01 -1.300e+01 -1.300e+01 -1.300e+01 -1.300e+01 -1.300e+01 -1.300e+01 -1.300e+01 -1.300e+01 -1.300e+01 -1.300e+01 -1.300e+01 -1.300e+01 -1.300e+01 -1.300e+01 -1.300e+01 -1.300e+01 -1.300e+01 -1.300e+01 -1.300e+01 -1.300e+01 -1.300e+01 -1.300e+01 -1.300e+01 -1.300e+01 -1.300e+01 -1.300e+01 -1.300e+01 -1.300e+01 -1.300e+01 -1.300e+01 -1.300e+01 -1.300e+01 -1.300e+01 -1.300e+01 -1.300e+01 -1.300e+01 -1.300e+01 -1.300e+01 -1.300e+01 -1.300e+01 -1.300e+01 -1.300e+01 -1.300e+01 -1.300e+01 -1.300e+01 -1.300e+01 -1.300e+01 -1.300e+01 -1.300e+01 -1.300e+01 -1.300e+01 -1.300e+01 -1.300e+01 -1.300e+01 -1.300e+01 -1.300e+01 -1.300e+01 -1.300e+01 -1.300e+01 -1.300e+01 -1.300e+01 -1.300e+01 -1.300e+01 -1.300e+01 -1.300e+01 -1.300e+01 -1.300e+01 -1.300e+01 -1.300e+01 -1.300e+01 -1.300e+01 -1.300e+01 -1.300e+01 -1.300e+01 -1.300e+01 -1.300e+01 -1.300e+01 -1.300e+01 -1.300e+01 -1.300e+01 -1.300e+01 -1.300e+01 -1.300e+01 -1.300e+01 -1.300e+01 -1.300e+01 -1.300e+01 -1.300e+01 -1.300e+01 -1.300e+01 -1.300e+01 -1.300e+01 -1.300e+01 -1.300e+01 -1.300e+01 -1.300e+01 -1.300e+01 -1.300e+01 -1.300e+01 -1.300e+01 -1.300e+01 -1.300e+01 -1.300e+01 -1.300e+01 -1.300e+01 -1.300e+01 -1.300e+01 -1.300e+01 -1.300e+01 -1.300e+01 -1.300e+01 -1.300e+01 -1.300e+01 -1.300e+01 -1.300e+01 -1.300e+01 -1.300e+01 -1.300e+01 -1.300e+01 -1.300e+01 -1.300e+01 -1.300e+01 -1.300e+01 -1.300e+01 -1.300e+01 -1.300e+01 -1.300e+01 -1.300e+01 -1.300e+01 -1.300e+01 -1.300e+01 -1.300e+01 -1.300e+01 -1.300e+01 -1.300e+01 -1.300e+01 -1.300e+01 -1.300e+01 -1.300e+01 -1.300e+01 -1.300e+01 -1.300e+01 -1.300e+01 -1.300e+01 -1.300e+01 -1.300e+01 -1.300e+01 -1.300e+01 -1.300e+01 -1.300e+01 -1.300e+01 -1.300e+01 -1.300e+01 -1.300e+01 -1.300e+01 -1.300e+01 -1.300e+01 -1.300e+01 -1.300e+01 -1.300e+01 -1.300e+01 -1.300e+01 -1.300e+01 -1.300e+01 -1.300e+01 -1.300e+01 -1.300e+01 -1.300e+01 -1.300e+01 -1.300e+01 -1.300e+01 -1.300e+01 -1.300e+01 -1.300e+01 -1.300e+01 -1.300e+01 -1.300e+01 -1.300e+01 -1.300e+01 -1.300e+01 -1.300e+01 -1.300e+01 -1.300e+01 -1.300e+01 -1.300e+01 -1.300e+01 -1.300e+01 -1.300e+01 -1.300e+01 -1.300e+01 -1.300e+01 -1.300e+01 -1.300e+01 -1.300e+01 -1.300e+01 -1.300e+01 -1.300e+01 -1.300e+01 -1.300e+01 -1.300e+01 -1.300e+01 -1.300e+01 -1.300e+01 -1.300e+01 -1.300e+01 -1.300e+01 -1.300e+01 -1.300e+01 -1.300e+01 -1.300e+01 -1.300e+01 -1.300e+01 -1.300e+01 -1.300e+01 -1.300e+01 -1.300e+01 -1.300e+01 -1.300e+01 -1.300e+01 -1.300e+01 -1.300e+01 -1.300e+01 -1.300e+01 -1.300e+01 -1.300e+01 -1.300e+01 -1.300e+01 -1.300e+01 -1.300e+01 -1.300e+01 -1.300e+01 -1.300e+01 -1.300e+01 -1.300e+01 -1.300e+01 -1.300e+01 -1.300e+01 -1.300e+01 -1.300e+01 -1.300e+01 -1.300e+01 -1.300e+01 -1.300e+01 -1.300e+01 -1.300e+01 -1.300e+01 -1.300e+01 -1.300e+01 -1.300e+01 -1.300e+01 -1.300e+01 -1.300e+01 -1.300e+01 -1.300e+01 -1.300e+01 -1.300e+01 -1.300e+01 -1.300e+01 -1.300e+01 -1.300e+01 -1.300e+01 -1.300e+01 -1.300e+01 -1.300e+01 -1.300e+01 -1.300e+01 -1.300e+01 -1.300e+01 -1.300e+01 -1.300e+01 -1.300e+01 -1.300e+01 -1.300e+01 -1.300e+01 -1.300e+01 -1.300e+01 -1.300e+01 -1.300e+01 -1.300e+01 -1.300e+01 -1.300e+01 -1.300e+01 -1.300e+01 -1.300e+01 -1.300e+01 -1.300e+01 -1.300e+01 -1.300e+01 -1.300e+01 -1.300e+01 -1.300e+01 -1.300e+01 -1.300e+01 -1.300e+01 -1.300e+01 -1.300e+01 -1.300e+01 -1.300e+01 -1.300e+01 -1.300e+01 -1.300e+01 -1.300e+01 -1.300e+01 -1.300e+01 -1.300e+01 -1.300e+01 -1.300e+01 -1.300e+01 -1.300e+01 -1.300e+01 -1.300e+01 -1.300e+01 -1.300e+01 -1.300e+01 -1.300e+01 -1.300e+01 -1.300e+01 -1.300e+01 -1.300e+01 -1.300e+01 -1.300e+01 -1.300e+01 -1.300e+01 -1.300e+01 -1.300e+01 -1.300e+01 -1.300e+01 -1.300e+01 -1.300e+01 -1.300e+01 -1.300e+01 -1.300e+01 -1.300e+01 -1.300e+01 -1.300e+01 -1.300e+01 -1.300e+01 -1.300e+01 -1.300e+01 -1.300e+01 -1.300e+01 -1.300e+01 -1.300e+01 -1.300e+01 -1.300e+01 -1.300e+01 -1.300e+01 -1.300e+01 -5.000e+00 -5.000e+00 -5.000e+00 -5.000e+00 -5.000e+00 -5.000e+00 -5.000e+00 -5.000e+00 -5.000e+00 -5.000e+00 -5.000e+00 -5.000e+00 -5.000e+00 -5.000e+00 -5.000e+00 -5.000e+00 -5.000e+00 -5.000e+00 -5.000e+00 -5.000e+00 -5.000e+00 -5.000e+00 -5.000e+00 -5.000e+00 -5.000e+00 -5.000e+00 -5.000e+00 -5.000e+00 -5.000e+00 -5.000e+00 -5.000e+00 -5.000e+00 -5.000e+00 -5.000e+00 -5.000e+00 -5.000e+00 -5.000e+00 -5.000e+00 -5.000e+00 -5.000e+00 -5.000e+00 -5.000e+00 -5.000e+00 -1.300e+01 -1.300e+01 -1.300e+01 -1.300e+01 -1.300e+01 -1.300e+01 -1.300e+01 -1.300e+01 -1.300e+01 -1.300e+01 -1.300e+01 -1.300e+01 -1.300e+01 -1.300e+01 -1.300e+01 -1.300e+01 -1.300e+01 -1.300e+01 -1.300e+01 -1.300e+01 -1.300e+01 -1.300e+01 -1.300e+01 -1.300e+01 -1.300e+01 -1.300e+01 -1.300e+01 -1.300e+01 -1.300e+01 -1.300e+01 -1.300e+01 -1.300e+01 -1.300e+01 -1.300e+01 -1.300e+01 -1.300e+01 -1.300e+01 -1.300e+01 -1.300e+01 -1.300e+01 -1.300e+01 -1.300e+01 -1.300e+01 -1.300e+01 -1.300e+01 -1.300e+01 -1.300e+01 -1.300e+01 -1.300e+01 -1.300e+01 -1.300e+01 -1.300e+01 -1.300e+01 -1.300e+01 -1.300e+01 -1.300e+01 -1.300e+01 -1.300e+01 -1.300e+01 -1.300e+01 -1.300e+01 -1.300e+01 -1.300e+01 -1.300e+01 -1.300e+01 -1.300e+01 -1.300e+01 -1.300e+01 -1.300e+01 -1.300e+01 -1.300e+01 -1.300e+01 -1.300e+01 -1.300e+01 -1.300e+01 -1.300e+01 -1.300e+01 -1.300e+01 -1.300e+01 -1.300e+01 -1.300e+01 -1.300e+01 -1.300e+01 -1.300e+01 -1.300e+01 -1.300e+01 -1.300e+01 -1.300e+01 -1.300e+01 -1.300e+01 -1.300e+01 -1.300e+01 -1.300e+01 -1.300e+01 -1.300e+01 -1.300e+01 -1.300e+01 -1.300e+01 -1.300e+01 -1.300e+01 -1.300e+01 -1.300e+01 -1.300e+01 -1.300e+01 -1.300e+01 -1.300e+01 -1.300e+01 -1.300e+01 -1.300e+01 -1.300e+01 -1.300e+01 -1.300e+01 -1.300e+01 -1.300e+01 -1.300e+01 -1.300e+01 -1.300e+01 -1.300e+01 -1.300e+01 -1.300e+01 -1.300e+01 -1.300e+01 -1.300e+01 -1.300e+01 -1.300e+01 -1.300e+01 -1.300e+01 -1.300e+01 -1.300e+01 -1.300e+01 -1.300e+01 -1.300e+01 -1.300e+01 -1.300e+01 -1.300e+01 -1.300e+01 -1.300e+01 -1.300e+01 -1.300e+01 -1.300e+01 -1.300e+01 -1.300e+01 -1.300e+01 -1.300e+01 -1.300e+01 -1.300e+01 -1.300e+01 -1.300e+01 -1.300e+01 -1.300e+01 -1.300e+01 -1.300e+01 -1.300e+01 -1.300e+01 -1.300e+01 -1.300e+01 -1.300e+01 -1.300e+01 -1.300e+01 -1.300e+01 -1.300e+01 -1.300e+01 -1.300e+01 -1.300e+01 -1.300e+01 -1.300e+01 -1.300e+01 -1.300e+01 -1.300e+01 -1.300e+01 -1.300e+01 -1.300e+01 -1.300e+01 -1.300e+01 -1.300e+01 -1.300e+01 -1.300e+01 -1.300e+01 -1.300e+01 -1.300e+01 -1.300e+01 -1.300e+01 -1.300e+01 -1.300e+01 -1.300e+01 -1.300e+01 -1.300e+01 -1.300e+01 -1.300e+01 -1.300e+01 -1.300e+01 -1.300e+01 -1.300e+01 -1.300e+01 -1.300e+01 -1.300e+01 -1.300e+01 -1.300e+01 -1.300e+01 -1.300e+01 -1.300e+01 -1.300e+01 -1.300e+01 -1.300e+01 -1.300e+01 -1.300e+01 -1.300e+01 -1.300e+01 -1.300e+01 -1.300e+01 -1.300e+01 -1.300e+01 -1.300e+01 -1.300e+01 -1.300e+01 -1.300e+01 -1.300e+01 -1.300e+01 -1.300e+01 -1.300e+01 -1.300e+01 -1.300e+01 -1.300e+01 -1.300e+01 -1.300e+01 -1.300e+01 -1.300e+01 -1.300e+01 -1.300e+01 -1.300e+01 -1.300e+01 -1.300e+01 -1.300e+01 -1.300e+01 -1.300e+01 -1.300e+01 -1.300e+01 -1.300e+01 -1.300e+01 -1.300e+01 -1.300e+01 -1.300e+01 -1.300e+01 -1.300e+01 -1.300e+01 -1.300e+01 -1.300e+01 -1.300e+01 -1.300e+01 -1.300e+01 -1.300e+01 -1.300e+01 -1.300e+01 -1.300e+01 -1.300e+01 -1.300e+01 -1.300e+01 -1.300e+01 -1.300e+01 -1.300e+01 -1.300e+01 -1.300e+01 -1.300e+01 -1.300e+01 -1.300e+01 -1.300e+01 -1.300e+01 -1.300e+01 -1.300e+01 -1.300e+01 -1.300e+01 -1.300e+01 -1.300e+01 -1.300e+01 -1.300e+01 -1.300e+01 -1.300e+01 -1.300e+01 -1.300e+01 -1.300e+01 -1.300e+01 -1.300e+01 -1.300e+01 -1.300e+01 -1.300e+01 -1.300e+01 -1.300e+01 -1.300e+01 -1.300e+01 -1.300e+01 -1.300e+01 -1.300e+01 -1.300e+01 -1.300e+01 -1.300e+01 -1.300e+01 -1.300e+01 -1.300e+01 -1.300e+01 -1.300e+01 -1.300e+01 -1.300e+01 -1.300e+01 -1.300e+01 -1.300e+01 -1.300e+01 -1.300e+01 -1.300e+01 -1.300e+01 -1.300e+01 -1.300e+01 -1.300e+01 -1.300e+01 -1.300e+01 -1.300e+01 -1.300e+01 -1.300e+01 -1.300e+01 -1.300e+01 -1.300e+01 -1.300e+01 -1.300e+01 -1.300e+01 -1.300e+01 -1.300e+01 -1.300e+01 -1.300e+01 -1.300e+01 -1.300e+01 -1.300e+01 -1.300e+01 -1.300e+01 -1.300e+01 -1.300e+01 -1.300e+01 -1.300e+01 -1.300e+01 -1.300e+01 -1.300e+01 -1.300e+01 -1.300e+01 -1.300e+01 -1.300e+01 -1.300e+01 -1.300e+01 -1.300e+01 -1.300e+01 -1.300e+01 -1.300e+01 -1.300e+01 -1.300e+01 -1.300e+01 -1.300e+01 -1.300e+01 -1.300e+01 -1.300e+01 -1.300e+01 -1.300e+01 -1.300e+01 -1.300e+01 -1.300e+01 -1.300e+01 -1.300e+01 -1.300e+01 -1.300e+01 -1.300e+01 -1.300e+01 -1.300e+01 -1.300e+01 -1.300e+01 -1.300e+01 -1.300e+01 -1.300e+01 -1.300e+01 -1.300e+01 -1.300e+01 -1.300e+01 -1.300e+01 -1.300e+01 -1.300e+01 -1.300e+01 -1.300e+01 -1.300e+01 -1.300e+01 -1.300e+01 -1.300e+01 -1.300e+01 -1.300e+01 -1.300e+01 -1.300e+01 -1.300e+01 -1.300e+01 -1.300e+01 -1.300e+01 -1.300e+01 -1.300e+01 -1.300e+01 -1.300e+01 -1.300e+01 -1.300e+01 -1.300e+01 -1.300e+01 -1.300e+01 -1.300e+01 -1.300e+01 -1.300e+01 -1.300e+01 -1.300e+01 -1.300e+01 -1.300e+01 -1.300e+01 -1.300e+01 -1.300e+01 -1.300e+01 -1.300e+01 -1.300e+01 -1.300e+01 -1.300e+01 -1.300e+01 -1.300e+01 -1.300e+01 -1.300e+01 -1.300e+01 -1.300e+01 -1.300e+01 -1.300e+01 -1.300e+01 -1.300e+01 -1.300e+01 -1.300e+01 -1.300e+01 -1.300e+01 -1.300e+01 -1.300e+01 -1.300e+01 -1.300e+01 -1.300e+01 -1.300e+01 -1.300e+01 -1.300e+01 -1.300e+01 -1.300e+01 -1.300e+01 -1.300e+01 -1.300e+01 -1.300e+01 -1.300e+01 -1.300e+01 -1.300e+01 -1.300e+01 -1.300e+01 -1.300e+01 -1.300e+01 -1.300e+01 -1.300e+01 -1.300e+01 -1.300e+01 -5.000e+00 -5.000e+00 -5.000e+00 -5.000e+00 -5.000e+00 -5.000e+00 -5.000e+00 -5.000e+00 -5.000e+00 -5.000e+00 -5.000e+00 -5.000e+00 -5.000e+00 -5.000e+00 -5.000e+00 -5.000e+00 -5.000e+00 -5.000e+00 -5.000e+00 -5.000e+00 -5.000e+00 -5.000e+00 -5.000e+00 -5.000e+00 -5.000e+00 -5.000e+00 -5.000e+00 -5.000e+00 -5.000e+00 -5.000e+00 -5.000e+00 -5.000e+00 -5.000e+00 -5.000e+00 -5.000e+00 -5.000e+00 -5.000e+00 -5.000e+00 -5.000e+00 -5.000e+00 -5.000e+00 -5.000e+00 -5.000e+00 -1.300e+01 -1.300e+01 -1.300e+01 -1.300e+01 -1.300e+01 -1.300e+01 -1.300e+01 -1.300e+01 -1.300e+01 -1.300e+01 -1.300e+01 -1.300e+01 -1.300e+01 -1.300e+01 -1.300e+01 -1.300e+01 -1.300e+01 -1.300e+01 -1.300e+01 -1.300e+01 -1.300e+01 -1.300e+01 -1.300e+01 -1.300e+01 -1.300e+01 -1.300e+01 -1.300e+01 -1.300e+01 -1.300e+01 -1.300e+01 -1.300e+01 -1.300e+01 -1.300e+01 -1.300e+01 -1.300e+01 -1.300e+01 -1.300e+01 -1.300e+01 -1.300e+01 -1.300e+01 -1.300e+01 -1.300e+01 -1.300e+01 -1.300e+01 -1.300e+01 -1.300e+01 -1.300e+01 -1.300e+01 -1.300e+01 -1.300e+01 -1.300e+01 -1.300e+01 -1.300e+01 -1.300e+01 -1.300e+01 -1.300e+01 -1.300e+01 -1.300e+01 -1.300e+01 -1.300e+01 -1.300e+01 -1.300e+01 -1.300e+01 -1.300e+01 -1.300e+01 -1.300e+01 -1.300e+01 -1.300e+01 -1.300e+01 -1.300e+01 -1.300e+01 -1.300e+01 -1.300e+01 -1.300e+01 -1.300e+01 -1.300e+01 -1.300e+01 -1.300e+01 -1.300e+01 -1.300e+01 -1.300e+01 -1.300e+01 -1.300e+01 -1.300e+01 -1.300e+01 -1.300e+01 -1.300e+01 -1.300e+01 -1.300e+01 -1.300e+01 -1.300e+01 -1.300e+01 -1.300e+01 -1.300e+01 -1.300e+01 -1.300e+01 -1.300e+01 -1.300e+01 -1.300e+01 -1.300e+01 -1.300e+01 -1.300e+01 -1.300e+01 -1.300e+01 -1.300e+01 -1.300e+01 -1.300e+01 -1.300e+01 -1.300e+01 -1.300e+01 -1.300e+01 -1.300e+01 -1.300e+01 -1.300e+01 -1.300e+01 -1.300e+01 -1.300e+01 -1.300e+01 -1.300e+01 -1.300e+01 -1.300e+01 -1.300e+01 -1.300e+01 -1.300e+01 -1.300e+01 -1.300e+01 -1.300e+01 -1.300e+01 -1.300e+01 -1.300e+01 -1.300e+01 -1.300e+01 -1.300e+01 -1.300e+01 -1.300e+01 -1.300e+01 -1.300e+01 -1.300e+01 -1.300e+01 -1.300e+01 -1.300e+01 -1.300e+01 -1.300e+01 -1.300e+01 -1.300e+01 -1.300e+01 -1.300e+01 -1.300e+01 -1.300e+01 -1.300e+01 -1.300e+01 -1.300e+01 -1.300e+01 -1.300e+01 -1.300e+01 -1.300e+01 -1.300e+01 -1.300e+01 -1.300e+01 -1.300e+01 -1.300e+01 -1.300e+01 -1.300e+01 -1.300e+01 -1.300e+01 -1.300e+01 -1.300e+01 -1.300e+01 -1.300e+01 -1.300e+01 -1.300e+01 -1.300e+01 -1.300e+01 -1.300e+01 -1.300e+01 -1.300e+01 -1.300e+01 -1.300e+01 -1.300e+01 -1.300e+01 -1.300e+01 -1.300e+01 -1.300e+01 -1.300e+01 -1.300e+01 -1.300e+01 -1.300e+01 -1.300e+01 -1.300e+01 -1.300e+01 -1.300e+01 -1.300e+01 -1.300e+01 -1.300e+01 -1.300e+01 -1.300e+01 -1.300e+01 -1.300e+01 -1.300e+01 -1.300e+01 -1.300e+01 -1.300e+01 -1.300e+01 -1.300e+01 -1.300e+01 -1.300e+01 -1.300e+01 -1.300e+01 -1.300e+01 -1.300e+01 -1.300e+01 -1.300e+01 -1.300e+01 -1.300e+01 -1.300e+01 -1.300e+01 -1.300e+01 -1.300e+01 -1.300e+01 -1.300e+01 -1.300e+01 -1.300e+01 -1.300e+01 -1.300e+01 -1.300e+01 -1.300e+01 -1.300e+01 -1.300e+01 -1.300e+01 -1.300e+01 -1.300e+01 -1.300e+01 -1.300e+01 -1.300e+01 -1.300e+01 -1.300e+01 -1.300e+01 -1.300e+01 -1.300e+01 -1.300e+01 -1.300e+01 -1.300e+01 -1.300e+01 -1.300e+01 -1.300e+01 -1.300e+01 -1.300e+01 -1.300e+01 -1.300e+01 -1.300e+01 -1.300e+01 -1.300e+01 -1.300e+01 -1.300e+01 -1.300e+01 -1.300e+01 -1.300e+01 -1.300e+01 -1.300e+01 -1.300e+01 -1.300e+01 -1.300e+01 -1.300e+01 -1.300e+01 -1.300e+01 -1.300e+01 -1.300e+01 -1.300e+01 -1.300e+01 -1.300e+01 -1.300e+01 -1.300e+01 -1.300e+01 -1.300e+01 -1.300e+01 -1.300e+01 -1.300e+01 -1.300e+01 -1.300e+01 -1.300e+01 -1.300e+01 -1.300e+01 -1.300e+01 -1.300e+01 -1.300e+01 -1.300e+01 -1.300e+01 -1.300e+01 -1.300e+01 -1.300e+01 -1.300e+01 -1.300e+01 -1.300e+01 -1.300e+01 -1.300e+01 -1.300e+01 -1.300e+01 -1.300e+01 -1.300e+01 -1.300e+01 -1.300e+01 -1.300e+01 -1.300e+01 -1.300e+01 -1.300e+01 -1.300e+01 -1.300e+01 -1.300e+01 -1.300e+01 -1.300e+01