<?xml version="1.0"?>
<VTKFile type="UnstructuredGrid" version="0.1" byte_order="LittleEndian">
   <UnstructuredGrid>
      <Piece NumberOfPoints="800" NumberOfCells="57">
         <Points>
            <DataArray type="Float32" Name="Position" NumberOfComponents="3" format="ascii">
0.020	-5.017	0.007
0.026	-5.001	0.019
0.022	-4.981	0.025
0.009	-4.964	0.021
-0.007	-4.958	0.009
-0.021	-4.963	-0.006
-0.027	-4.979	-0.018
-0.023	-4.999	-0.024
-0.010	-5.016	-0.019
0.006	-5.022	-0.008
-0.320	-5.180	0.383
-0.314	-5.164	0.396
-0.318	-5.144	0.401
-0.331	-5.128	0.397
-0.347	-5.121	0.385
-0.360	-5.127	0.370
-0.366	-5.143	0.358
-0.362	-5.163	0.353
-0.350	-5.179	0.357
-0.334	-5.186	0.368
0.023	-4.989	-0.024
0.021	-4.970	-0.016
0.011	-4.958	-0.001
-0.003	-4.959	0.014
-0.017	-4.972	0.024
-0.024	-4.991	0.025
-0.022	-5.011	0.017
-0.012	-5.022	0.002
0.002	-5.021	-0.013
0.016	-5.008	-0.023
0.403	-5.110	0.330
0.401	-5.091	0.338
0.391	-5.080	0.352
0.376	-5.081	0.368
0.363	-5.093	0.378
0.356	-5.113	0.379
0.357	-5.132	0.370
0.367	-5.143	0.356
0.382	-5.143	0.341
0.395	-5.130	0.331
-0.009	-4.963	-0.018
0.006	-4.957	-0.005
0.019	-4.964	0.010
0.024	-4.981	0.022
0.020	-5.001	0.025
0.008	-5.017	0.019
-0.007	-5.023	0.006
-0.020	-5.016	-0.009
-0.025	-4.999	-0.021
-0.021	-4.979	-0.024
0.357	-5.097	-0.381
0.372	-5.092	-0.368
0.385	-5.099	-0.353
0.390	-5.115	-0.341
0.386	-5.136	-0.338
0.374	-5.152	-0.344
0.359	-5.157	-0.357
0.346	-5.151	-0.373
0.341	-5.134	-0.384
0.345	-5.114	-0.387
-0.021	-4.996	0.027
-0.022	-4.975	0.022
-0.015	-4.960	0.009
-0.002	-4.957	-0.008
0.011	-4.966	-0.021
0.020	-4.985	-0.026
0.021	-5.005	-0.021
0.014	-5.020	-0.008
0.001	-5.023	0.009
-0.012	-5.014	0.022
-0.400	-5.072	-0.361
-0.400	-5.063	-0.343
-0.400	-5.066	-0.322
-0.400	-5.081	-0.307
-0.400	-5.102	-0.304
-0.400	-5.120	-0.313
-0.400	-5.130	-0.332
-0.400	-5.127	-0.353
-0.400	-5.112	-0.368
-0.400	-5.091	-0.371
-0.146	-5.000	0.146
-0.032	-5.000	0.204
0.094	-5.000	0.184
0.184	-5.000	0.093
0.204	-5.000	-0.032
0.146	-5.000	-0.146
0.032	-5.000	-0.204
-0.094	-5.000	-0.184
-0.184	-5.000	-0.093
-0.204	-5.000	0.032
-0.144	-4.040	0.146
-0.032	-4.041	0.203
0.093	-4.041	0.183
0.182	-4.041	0.094
0.202	-4.040	-0.031
0.144	-4.040	-0.144
0.032	-4.040	-0.201
-0.093	-4.039	-0.181
-0.182	-4.040	-0.092
-0.202	-4.040	0.033
-0.143	-3.561	0.148
-0.030	-3.561	0.205
0.094	-3.561	0.185
0.183	-3.561	0.095
0.203	-3.560	-0.029
0.145	-3.560	-0.141
0.033	-3.559	-0.198
-0.092	-3.559	-0.178
-0.181	-3.560	-0.089
-0.200	-3.560	0.036
-0.143	-3.001	0.150
-0.031	-3.001	0.207
0.093	-3.000	0.187
0.182	-3.000	0.097
0.201	-2.999	-0.027
0.144	-2.999	-0.139
0.032	-3.000	-0.196
-0.093	-3.000	-0.176
-0.181	-3.000	-0.086
-0.201	-3.001	0.038
-0.146	-2.401	0.150
-0.033	-2.401	0.207
0.090	-2.400	0.187
0.179	-2.400	0.098
0.198	-2.399	-0.026
0.141	-2.399	-0.138
0.029	-2.400	-0.194
-0.095	-2.400	-0.174
-0.184	-2.401	-0.085
-0.203	-2.401	0.039
-0.148	-1.800	0.152
-0.036	-1.800	0.209
0.088	-1.800	0.189
0.176	-1.800	0.100
0.196	-1.800	-0.023
0.139	-1.800	-0.135
0.027	-1.800	-0.192
-0.097	-1.800	-0.172
-0.185	-1.800	-0.084
-0.205	-1.800	0.040
-0.147	-1.200	0.150
-0.035	-1.200	0.207
0.088	-1.200	0.187
0.177	-1.200	0.099
0.197	-1.201	-0.025
0.140	-1.201	-0.136
0.029	-1.201	-0.193
-0.095	-1.200	-0.174
-0.183	-1.200	-0.086
-0.203	-1.200	0.038
-0.146	-0.600	0.149
-0.034	-0.600	0.206
0.089	-0.600	0.187
0.178	-0.600	0.098
0.198	-0.601	-0.025
0.141	-0.601	-0.137
0.030	-0.601	-0.193
-0.094	-0.600	-0.174
-0.182	-0.600	-0.086
-0.202	-0.600	0.037
-0.145	0.001	0.146
-0.034	0.001	0.203
0.090	-0.000	0.184
0.178	-0.001	0.096
0.199	-0.001	-0.027
0.142	-0.001	-0.139
0.031	-0.001	-0.196
-0.092	-0.000	-0.177
-0.181	0.001	-0.089
-0.201	0.001	0.034
-0.139	0.562	0.145
-0.028	0.561	0.202
0.095	0.560	0.183
0.184	0.559	0.096
0.204	0.558	-0.027
0.148	0.558	-0.139
0.037	0.559	-0.196
-0.086	0.560	-0.177
-0.175	0.561	-0.090
-0.195	0.562	0.033
-0.136	1.041	0.141
-0.025	1.041	0.198
0.098	1.040	0.179
0.187	1.039	0.091
0.207	1.039	-0.031
0.151	1.038	-0.143
0.040	1.039	-0.200
-0.083	1.039	-0.181
-0.172	1.040	-0.093
-0.192	1.041	0.030
-0.132	1.760	0.140
-0.022	1.760	0.197
0.101	1.760	0.177
0.189	1.760	0.090
0.208	1.760	-0.033
0.152	1.759	-0.144
0.042	1.759	-0.200
-0.081	1.760	-0.181
-0.169	1.760	-0.093
-0.189	1.760	0.029
-0.133	2.576	0.138
-0.023	2.576	0.194
0.099	2.576	0.175
0.186	2.576	0.088
0.206	2.576	-0.035
0.150	2.576	-0.145
0.039	2.576	-0.201
-0.083	2.575	-0.181
-0.170	2.575	-0.094
-0.189	2.576	0.028
0.014	-5.112	-0.002
0.017	-5.104	0.002
0.016	-5.095	0.003
0.012	-5.088	0.000
0.005	-5.085	-0.006
-0.001	-5.087	-0.012
-0.004	-5.095	-0.017
-0.003	-5.104	-0.018
0.001	-5.111	-0.015
0.008	-5.114	-0.009
-0.326	-5.158	0.318
-0.317	-5.158	0.322
-0.308	-5.158	0.321
-0.302	-5.158	0.314
-0.300	-5.158	0.305
-0.304	-5.158	0.297
-0.313	-5.158	0.292
-0.322	-5.158	0.294
-0.328	-5.158	0.300
-0.330	-5.158	0.310
-0.004	-5.189	-0.014
0.004	-5.184	-0.015
0.013	-5.186	-0.017
0.020	-5.192	-0.017
0.021	-5.201	-0.016
0.018	-5.209	-0.015
0.010	-5.214	-0.013
0.000	-5.213	-0.012
-0.006	-5.206	-0.011
-0.008	-5.197	-0.012
-0.086	-5.246	-0.528
-0.078	-5.242	-0.529
-0.069	-5.243	-0.531
-0.063	-5.249	-0.531
-0.061	-5.258	-0.530
-0.065	-5.267	-0.529
-0.073	-5.271	-0.527
-0.082	-5.270	-0.526
-0.088	-5.263	-0.525
-0.090	-5.254	-0.526
0.092	-6.057	-0.238
0.093	-6.053	-0.230
0.094	-6.054	-0.221
0.095	-6.061	-0.214
0.094	-6.070	-0.213
0.093	-6.078	-0.217
0.091	-6.082	-0.225
0.090	-6.081	-0.234
0.090	-6.074	-0.241
0.091	-6.065	-0.242
0.317	-6.080	-0.258
0.325	-6.076	-0.258
0.334	-6.078	-0.258
0.341	-6.084	-0.258
0.343	-6.093	-0.258
0.338	-6.101	-0.258
0.330	-6.106	-0.258
0.321	-6.104	-0.258
0.314	-6.098	-0.258
0.313	-6.089	-0.258
0.088	-6.157	-0.245
0.094	-6.151	-0.248
0.102	-6.150	-0.252
0.110	-6.155	-0.255
0.113	-6.163	-0.256
0.112	-6.172	-0.255
0.106	-6.178	-0.251
0.097	-6.180	-0.248
0.090	-6.175	-0.245
0.086	-6.167	-0.244
0.016	-6.169	-0.409
0.022	-6.163	-0.412
0.030	-6.162	-0.416
0.038	-6.166	-0.419
0.041	-6.174	-0.420
0.040	-6.184	-0.418
0.034	-6.190	-0.415
0.025	-6.191	-0.412
0.018	-6.186	-0.409
0.014	-6.178	-0.407
0.113	-6.255	-0.284
0.112	-6.249	-0.277
0.110	-6.248	-0.269
0.106	-6.252	-0.261
0.103	-6.260	-0.258
0.102	-6.269	-0.260
0.103	-6.275	-0.266
0.105	-6.277	-0.275
0.109	-6.272	-0.283
0.111	-6.264	-0.286
0.251	-6.286	-0.240
0.251	-6.280	-0.234
0.248	-6.278	-0.225
0.245	-6.283	-0.217
0.242	-6.291	-0.214
0.241	-6.300	-0.216
0.241	-6.306	-0.223
0.244	-6.307	-0.232
0.247	-6.303	-0.239
0.250	-6.295	-0.242
0.122	-6.371	-0.289
0.122	-6.365	-0.282
0.119	-6.357	-0.280
0.115	-6.349	-0.283
0.110	-6.346	-0.290
0.108	-6.347	-0.299
0.108	-6.353	-0.306
0.111	-6.362	-0.308
0.115	-6.369	-0.305
0.120	-6.373	-0.298
0.011	-6.422	-0.247
0.011	-6.415	-0.240
0.008	-6.407	-0.238
0.004	-6.399	-0.241
-0.001	-6.396	-0.248
-0.003	-6.397	-0.257
-0.003	-6.403	-0.264
-0.000	-6.412	-0.266
0.004	-6.419	-0.263
0.009	-6.423	-0.256
0.122	-6.446	-0.325
0.124	-6.443	-0.318
0.126	-6.444	-0.309
0.126	-6.451	-0.302
0.124	-6.459	-0.300
0.121	-6.467	-0.304
0.118	-6.471	-0.312
0.116	-6.470	-0.321
0.117	-6.463	-0.327
0.119	-6.454	-0.329
0.212	-6.470	-0.347
0.215	-6.466	-0.339
0.216	-6.468	-0.330
0.216	-6.474	-0.324
0.214	-6.483	-0.322
0.211	-6.491	-0.326
0.208	-6.495	-0.334
0.207	-6.494	-0.342
0.207	-6.487	-0.349
0.209	-6.478	-0.351
0.125	-6.543	-0.345
0.130	-6.540	-0.337
0.134	-6.542	-0.329
0.135	-6.550	-0.323
0.133	-6.559	-0.322
0.130	-6.566	-0.326
0.125	-6.569	-0.333
0.121	-6.567	-0.341
0.120	-6.560	-0.347
0.122	-6.551	-0.348
0.176	-6.555	-0.371
0.180	-6.552	-0.364
0.184	-6.555	-0.355
0.185	-6.562	-0.350
0.184	-6.571	-0.348
0.180	-6.578	-0.352
0.175	-6.581	-0.360
0.172	-6.579	-0.368
0.170	-6.572	-0.373
0.172	-6.563	-0.375
0.123	-6.651	-0.345
0.124	-6.643	-0.349
0.130	-6.638	-0.354
0.136	-6.638	-0.361
0.142	-6.644	-0.365
0.145	-6.653	-0.366
0.143	-6.662	-0.363
0.138	-6.667	-0.357
0.131	-6.666	-0.350
0.125	-6.660	-0.346
0.103	-6.655	-0.366
0.105	-6.647	-0.369
0.110	-6.642	-0.375
0.117	-6.642	-0.382
0.123	-6.648	-0.386
0.125	-6.657	-0.387
0.123	-6.666	-0.383
0.118	-6.671	-0.378
0.111	-6.670	-0.371
0.106	-6.664	-0.367
0.001	-5.300	-0.018
0.001	-5.291	-0.020
0.005	-5.284	-0.026
0.011	-5.283	-0.033
0.016	-5.288	-0.039
0.020	-5.296	-0.041
0.020	-5.305	-0.039
0.016	-5.311	-0.033
0.010	-5.312	-0.026
0.004	-5.308	-0.021
-0.359	-5.358	-0.331
-0.359	-5.349	-0.333
-0.355	-5.343	-0.338
-0.349	-5.342	-0.345
-0.344	-5.346	-0.351
-0.340	-5.355	-0.353
-0.341	-5.364	-0.351
-0.344	-5.370	-0.346
-0.350	-5.371	-0.339
-0.356	-5.367	-0.333
0.025	-5.388	-0.059
0.023	-5.382	-0.052
0.020	-5.381	-0.044
0.018	-5.386	-0.036
0.016	-5.394	-0.033
0.016	-5.403	-0.035
0.018	-5.409	-0.042
0.021	-5.410	-0.050
0.024	-5.405	-0.058
0.025	-5.397	-0.061
0.476	-5.410	0.089
0.474	-5.404	0.096
0.471	-5.403	0.105
0.469	-5.408	0.112
0.467	-5.417	0.116
0.467	-5.426	0.113
0.469	-5.432	0.107
0.472	-5.433	0.098
0.475	-5.428	0.090
0.476	-5.419	0.087
0.041	-5.504	-0.066
0.040	-5.499	-0.058
0.036	-5.492	-0.054
0.031	-5.484	-0.056
0.026	-5.480	-0.063
0.023	-5.481	-0.072
0.024	-5.486	-0.080
0.028	-5.493	-0.083
0.033	-5.500	-0.081
0.038	-5.505	-0.075
-0.299	-5.721	0.026
-0.295	-5.721	0.034
-0.296	-5.721	0.043
-0.303	-5.721	0.050
-0.312	-5.721	0.051
-0.320	-5.721	0.047
-0.324	-5.721	0.039
-0.323	-5.721	0.029
-0.316	-5.721	0.023
-0.307	-5.721	0.021
0.053	-5.599	-0.095
0.055	-5.593	-0.089
0.052	-5.584	-0.085
0.046	-5.578	-0.086
0.039	-5.575	-0.091
0.033	-5.577	-0.098
0.031	-5.583	-0.105
0.034	-5.591	-0.108
0.040	-5.598	-0.107
0.047	-5.601	-0.102
-0.182	-5.774	0.148
-0.180	-5.767	0.154
-0.182	-5.759	0.157
-0.188	-5.752	0.157
-0.196	-5.749	0.152
-0.201	-5.751	0.145
-0.203	-5.757	0.138
-0.201	-5.766	0.135
-0.195	-5.773	0.136
-0.187	-5.776	0.141
0.064	-5.682	-0.136
0.063	-5.674	-0.131
0.060	-5.669	-0.124
0.054	-5.670	-0.117
0.048	-5.676	-0.113
0.044	-5.685	-0.113
0.044	-5.693	-0.118
0.048	-5.697	-0.126
0.054	-5.696	-0.133
0.060	-5.690	-0.137
0.315	-5.807	0.100
0.323	-5.807	0.104
0.333	-5.807	0.102
0.339	-5.807	0.096
0.341	-5.807	0.087
0.336	-5.807	0.078
0.328	-5.807	0.074
[...]
         <CellData>
           <DataArray type="Float32" Name="combinedRootClassID" NumberOfComponents="1" format="ascii">
 -5.000e+00 -5.000e+00 -5.000e+00 -5.000e+00 -2.000e+00 -2.000e+00 -2.000e+00 -2.000e+00 -2.000e+00 -2.000e+00 -2.000e+00 -2.000e+00 -2.000e+00 -2.000e+00 -2.000e+00 -2.000e+00 -7.000e+00 -7.000e+00 -7.000e+00 -7.000e+00 -7.000e+00 -7.000e+00 -7.000e+00 -7.000e+00 -7.000e+00 -7.000e+00 -7.000e+00 -7.000e+00 -7.000e+00 -7.000e+00 -7.000e+00 -7.000e+00 -7.000e+00 -4.000e+00 -4.000e+00 -4.000e+00 -4.000e+00 -4.000e+00 -4.000e+00 -4.000e+00 -4.000e+00 -4.000e+00 -4.000e+00 -4.000e+00 -4.000e+00 -4.000e+00 -4.000e+00 -4.000e+00 -4.000e+00 -4.000e+00 -4.000e+00 -4.000e+00 -4.000e+00 -4.000e+00 -4.000e+00 -4.000e+00 -4.000e+00
           </DataArray>
           <DataArray type="Float32" Name="nitrate/minimalNutrientConcentration" NumberOfComponents="1" format="ascii">
 6.000e+02 6.000e+02 6.000e+02 6.000e+02 6.000e+02 6.000e+02 6.000e+02 6.000e+02 6.000e+02 6.000e+02 6.000e+02 6.000e+02 6.000e+02 6.000e+02 6.000e+02 6.000e+02 6.000e+02 6.000e+02 6.000e+02 6.000e+02 6.000e+02 6.000e+02 6.000e+02 6.000e+02 6.000e+02 6.000e+02 6.000e+02 6.000e+02 6.000e+02 6.000e+02 6.000e+02 6.000e+02 6.000e+02 6.000e+02 6.000e+02 6.000e+02 6.000e+02 6.000e+02 6.000e+02 6.000e+02 6.000e+02 6.000e+02 6.000e+02 6.000e+02 6.000e+02 6.000e+02 6.000e+02 6.000e+02 6.000e+02 6.000e+02 6.000e+02 6.000e+02 6.000e+02 6.000e+02 6.000e+02 6.000e+02 6.000e+02
           </DataArray>
           <DataArray type="Float32" Name="nitrate/optimalNutrientConcentration" NumberOfComponents="1" format="ascii">
 1.200e+03 1.200e+03 1.200e+03 1.200e+03 1.200e+03 1.200e+03 1.200e+03 1.200e+03 1.200e+03 1.200e+03 1.200e+03 1.200e+03 1.200e+03 1.200e+03 1.200e+03 1.200e+03 1.200e+03 1.200e+03 1.200e+03 1.200e+03 1.200e+03 1.200e+03 1.200e+03 1.200e+03 1.200e+03 1.200e+03 1.200e+03 1.200e+03 1.200e+03 1.200e+03 1.200e+03 1.200e+03 1.200e+03 1.200e+03 1.200e+03 1.200e+03 1.200e+03 1.200e+03 1.200e+03 1.200e+03 1.200e+03 1.200e+03 1.200e+03 1.200e+03 1.200e+03 1.200e+03 1.200e+03 1.200e+03 1.200e+03 1.200e+03 1.200e+03 1.200e+03 1.200e+03 1.200e+03 1.200e+03 1.200e+03 1.200e+03
           </DataArray>
           <DataArray type="Float32" Name="nitrate/radiusDepletionZone" NumberOfComponents="1" format="ascii">
 3.400e-02 3.400e-02 3.400e-02 3.400e-02 1.496e+00 2.725e+00 8.530e+00 6.822e+00 5.146e+00 4.410e+00 3.858e+00 3.428e+00 2.762e+00 2.013e-01 2.011e-01 2.007e-01 1.500e-02 1.500e-02 1.500e-02 1.500e-02 1.500e-02 1.500e-02 1.500e-02 1.500e-02 1.500e-02 1.500e-02 1.500e-02 1.500e-02 1.500e-02 1.500e-02 1.500e-02 1.500e-02 1.500e-02 1.080e+00 1.361e+01 8.996e+00 6.745e+00 5.395e+00 3.958e+00 3.392e+00 2.967e+00 2.637e+00 2.373e+00 1.864e+00 1.708e+00 1.577e+00 1.464e+00 1.151e+00 1.079e+00 1.015e+00 7.796e-01 7.385e-01 7.015e-01 5.145e-01 4.910e-01 3.294e-01 1.813e-01
           </DataArray>
           <DataArray type="Float32" Name="nitrate/rootSegmentMinimalNutrientContent" NumberOfComponents="1" format="ascii">
 1.094e-01 1.094e-01 1.094e-01 1.094e-01 7.165e+00 3.551e+00 4.125e+00 4.403e+00 4.388e+00 4.374e+00 4.361e+00 4.348e+00 4.047e+00 3.461e+00 5.179e+00 5.815e+00 1.824e-02 2.103e-02 9.532e-03 7.164e-03 5.936e-03 5.137e-03 3.816e-03 2.317e-03 1.152e-03 1.923e-02 1.913e-02 1.696e-02 1.520e-02 1.470e-02 1.483e-02 1.042e-02 1.086e-02 3.929e-01 1.907e-01 1.883e-01 1.862e-01 1.845e-01 1.830e-01 1.815e-01 1.802e-01 1.789e-01 1.777e-01 1.766e-01 1.756e-01 1.746e-01 1.737e-01 1.729e-01 1.722e-01 1.716e-01 1.710e-01 1.705e-01 1.701e-01 1.697e-01 1.695e-01 1.693e-01 1.692e-01
           </DataArray>
           <DataArray type="Float32" Name="nitrate/rootSegmentNutrientUptake" NumberOfComponents="1" format="ascii">
 0.000e+00 0.000e+00 0.000e+00 0.000e+00 3.712e+00 1.051e+00 2.463e+00 2.703e+00 4.179e+00 2.159e+00 2.541e+00 2.000e+01 2.384e+00 0.000e+00 0.000e+00 0.000e+00 0.000e+00 0.000e+00 0.000e+00 0.000e+00 0.000e+00 0.000e+00 0.000e+00 0.000e+00 0.000e+00 0.000e+00 0.000e+00 0.000e+00 0.000e+00 0.000e+00 0.000e+00 0.000e+00 0.000e+00 8.677e-01 5.038e-01 4.393e-01 4.326e-01 4.243e-01 4.173e-01 4.108e-01 3.997e-01 3.872e-01 3.740e-01 3.626e-01 3.474e-01 3.327e-01 3.162e-01 2.965e-01 2.761e-01 2.537e-01 2.293e-01 2.022e-01 1.730e-01 1.406e-01 1.035e-01 6.148e-02 1.668e-02
           </DataArray>
           <DataArray type="Float32" Name="nitrate/rootSegmentOptimalNutrientContent" NumberOfComponents="1" format="ascii">
 2.189e-01 2.189e-01 2.189e-01 2.189e-01 1.433e+01 7.102e+00 8.249e+00 8.805e+00 8.776e+00 8.748e+00 8.721e+00 8.696e+00 8.095e+00 6.921e+00 1.036e+01 1.163e+01 3.649e-02 4.205e-02 1.906e-02 1.433e-02 1.187e-02 1.027e-02 7.633e-03 4.634e-03 2.303e-03 3.846e-02 3.826e-02 3.392e-02 3.040e-02 2.940e-02 2.967e-02 2.085e-02 2.172e-02 7.859e-01 3.814e-01 3.766e-01 3.725e-01 3.690e-01 3.660e-01 3.631e-01 3.604e-01 3.578e-01 3.554e-01 3.532e-01 3.511e-01 3.492e-01 3.474e-01 3.458e-01 3.444e-01 3.431e-01 3.420e-01 3.410e-01 3.402e-01 3.395e-01 3.390e-01 3.386e-01 3.384e-01
           </DataArray>
           <DataArray type="Float32" Name="parentRootClassID" NumberOfComponents="1" format="ascii">
 -2.000e+00 -2.000e+00 -2.000e+00 -2.000e+00 -3.000e+00 -3.000e+00 -3.000e+00 -3.000e+00 -3.000e+00 -3.000e+00 -3.000e+00 -3.000e+00 -3.000e+00 -3.000e+00 -3.000e+00 -3.000e+00 -4.000e+00 -4.000e+00 -4.000e+00 -4.000e+00 -4.000e+00 -4.000e+00 -4.000e+00 -4.000e+00 -4.000e+00 -4.000e+00 -4.000e+00 -4.000e+00 -4.000e+00 -4.000e+00 -4.000e+00 -4.000e+00 -4.000e+00 -3.000e+00 -3.000e+00 -3.000e+00 -3.000e+00 -3.000e+00 -3.000e+00 -3.000e+00 -3.000e+00 -3.000e+00 -3.000e+00 -3.000e+00 -3.000e+00 -3.000e+00 -3.000e+00 -3.000e+00 -3.000e+00 -3.000e+00 -3.000e+00 -3.000e+00 -3.000e+00 -3.000e+00 -3.000e+00 -3.000e+00 -3.000e+00
           </DataArray>
           <DataArray type="Float32" Name="plantID" NumberOfComponents="1" format="ascii">
 6.000e+00 6.000e+00 6.000e+00 6.000e+00 6.000e+00 6.000e+00 6.000e+00 6.000e+00 6.000e+00 6.000e+00 6.000e+00 6.000e+00 6.000e+00 6.000e+00 6.000e+00 6.000e+00 6.000e+00 6.000e+00 6.000e+00 6.000e+00 6.000e+00 6.000e+00 6.000e+00 6.000e+00 6.000e+00 6.000e+00 6.000e+00 6.000e+00 6.000e+00 6.000e+00 6.000e+00 6.000e+00 6.000e+00 6.000e+00 6.000e+00 6.000e+00 6.000e+00 6.000e+00 6.000e+00 6.000e+00 6.000e+00 6.000e+00 6.000e+00 6.000e+00 6.000e+00 6.000e+00 6.000e+00 6.000e+00 6.000e+00 6.000e+00 6.000e+00 6.000e+00 6.000e+00 6.000e+00 6.000e+00 6.000e+00 6.000e+00
           </DataArray>
           <DataArray type="Float32" Name="plantTypeID" NumberOfComponents="1" format="ascii">
 0.000e+00 0.000e+00 0.000e+00 0.000e+00 0.000e+00 0.000e+00 0.000e+00 0.000e+00 0.000e+00 0.000e+00 0.000e+00 0.000e+00 0.000e+00 0.000e+00 0.000e+00 0.000e+00 0.000e+00 0.000e+00 0.000e+00 0.000e+00 0.000e+00 0.000e+00 0.000e+00 0.000e+00 0.000e+00 0.000e+00 0.000e+00 0.000e+00 0.000e+00 0.000e+00 0.000e+00 0.000e+00 0.000e+00 0.000e+00 0.000e+00 0.000e+00 0.000e+00 0.000e+00 0.000e+00 0.000e+00 0.000e+00 0.000e+00 0.000e+00 0.000e+00 0.000e+00 0.000e+00 0.000e+00 0.000e+00 0.000e+00 0.000e+00 0.000e+00 0.000e+00 0.000e+00 0.000e+00 0.000e+00 0.000e+00 0.000e+00
           </DataArray>
           <DataArray type="Float32" Name="rootCircumference" NumberOfComponents="1" format="ascii">
 2.136e-01 2.136e-01 2.136e-01 2.136e-01 1.295e+00 1.284e+00 1.281e+00 1.279e+00 1.276e+00 1.274e+00 1.273e+00 1.271e+00 1.269e+00 1.267e+00 1.266e+00 1.263e+00 9.426e-02 9.426e-02 9.425e-02 9.425e-02 9.425e-02 9.425e-02 9.425e-02 9.425e-02 9.425e-02 9.426e-02 9.425e-02 9.425e-02 9.425e-02 9.425e-02 9.425e-02 9.425e-02 9.425e-02 3.047e-01 3.002e-01 2.983e-01 2.967e-01 2.953e-01 2.941e-01 2.929e-01 2.918e-01 2.908e-01 2.898e-01 2.889e-01 2.881e-01 2.873e-01 2.865e-01 2.859e-01 2.853e-01 2.848e-01 2.843e-01 2.839e-01 2.835e-01 2.832e-01 2.830e-01 2.829e-01 2.828e-01
           </DataArray>
           <DataArray type="Float32" Name="rootClassID" NumberOfComponents="1" format="ascii">
 9.900e+01 9.900e+01 9.900e+01 9.900e+01 -2.000e+00 -2.000e+00 -2.000e+00 -2.000e+00 -2.000e+00 -2.000e+00 -2.000e+00 -2.000e+00 -2.000e+00 -2.000e+00 -2.000e+00 -2.000e+00 9.700e+01 9.700e+01 9.700e+01 9.700e+01 9.700e+01 9.700e+01 9.700e+01 9.700e+01 9.700e+01 9.700e+01 9.700e+01 9.700e+01 9.700e+01 9.700e+01 9.700e+01 9.700e+01 9.700e+01 -4.000e+00 -4.000e+00 -4.000e+00 -4.000e+00 -4.000e+00 -4.000e+00 -4.000e+00 -4.000e+00 -4.000e+00 -4.000e+00 -4.000e+00 -4.000e+00 -4.000e+00 -4.000e+00 -4.000e+00 -4.000e+00 -4.000e+00 -4.000e+00 -4.000e+00 -4.000e+00 -4.000e+00 -4.000e+00 -4.000e+00 -4.000e+00
           </DataArray>
           <DataArray type="Float32" Name="rootDiameter" NumberOfComponents="1" format="ascii">
 6.800e-02 6.800e-02 6.800e-02 6.800e-02 4.123e-01 4.087e-01 4.078e-01 4.070e-01 4.063e-01 4.057e-01 4.051e-01 4.045e-01 4.039e-01 4.034e-01 4.030e-01 4.021e-01 3.000e-02 3.000e-02 3.000e-02 3.000e-02 3.000e-02 3.000e-02 3.000e-02 3.000e-02 3.000e-02 3.000e-02 3.000e-02 3.000e-02 3.000e-02 3.000e-02 3.000e-02 3.000e-02 3.000e-02 9.700e-02 9.556e-02 9.496e-02 9.444e-02 9.400e-02 9.361e-02 9.324e-02 9.289e-02 9.256e-02 9.225e-02 9.196e-02 9.169e-02 9.144e-02 9.121e-02 9.100e-02 9.081e-02 9.064e-02 9.049e-02 9.036e-02 9.025e-02 9.016e-02 9.009e-02 9.004e-02 9.001e-02
           </DataArray>
           <DataArray type="Float32" Name="rootLength2Base" NumberOfComponents="1" format="ascii">
 0.000e+00 0.000e+00 0.000e+00 0.000e+00 0.000e+00 9.600e-01 1.440e+00 2.000e+00 2.600e+00 3.200e+00 3.800e+00 4.400e+00 5.000e+00 5.560e+00 6.040e+00 6.760e+00 0.000e+00 0.000e+00 0.000e+00 0.000e+00 0.000e+00 0.000e+00 0.000e+00 0.000e+00 0.000e+00 0.000e+00 0.000e+00 0.000e+00 0.000e+00 0.000e+00 0.000e+00 0.000e+00 0.000e+00 0.000e+00 9.428e-01 1.414e+00 1.886e+00 2.357e+00 2.828e+00 3.300e+00 3.771e+00 4.243e+00 4.714e+00 5.185e+00 5.657e+00 6.128e+00 6.600e+00 7.071e+00 7.542e+00 8.014e+00 8.485e+00 8.957e+00 9.428e+00 9.899e+00 1.037e+01 1.084e+01 1.131e+01
           </DataArray>
           <DataArray type="Float32" Name="rootPotentialSecondaryGrowth" NumberOfComponents="1" format="ascii">
 6.800e-02 6.800e-02 6.800e-02 6.800e-02 4.123e-01 4.087e-01 4.078e-01 4.070e-01 4.063e-01 4.057e-01 4.051e-01 4.045e-01 4.039e-01 4.034e-01 4.030e-01 4.021e-01 3.000e-02 3.000e-02 3.000e-02 3.000e-02 3.000e-02 3.000e-02 3.000e-02 3.000e-02 3.000e-02 3.000e-02 3.000e-02 3.000e-02 3.000e-02 3.000e-02 3.000e-02 3.000e-02 3.000e-02 9.700e-02 9.556e-02 9.496e-02 9.444e-02 9.400e-02 9.361e-02 9.324e-02 9.289e-02 9.256e-02 9.225e-02 9.196e-02 9.169e-02 9.144e-02 9.121e-02 9.100e-02 9.081e-02 9.064e-02 9.049e-02 9.036e-02 9.025e-02 9.016e-02 9.009e-02 9.004e-02 9.001e-02
           </DataArray>
           <DataArray type="Float32" Name="rootSegmentAge" NumberOfComponents="1" format="ascii">
 8.330e-01 8.330e-01 8.330e-01 8.330e-01 5.000e+00 4.400e+00 4.200e+00 4.000e+00 3.800e+00 3.600e+00 3.400e+00 3.200e+00 3.000e+00 2.800e+00 2.600e+00 2.200e+00 7.149e-01 6.725e-01 2.906e-01 2.482e-01 2.058e-01 1.633e-01 1.209e-01 7.849e-02 3.606e-02 6.300e-01 5.876e-01 5.452e-01 5.028e-01 4.603e-01 4.179e-01 3.755e-01 3.331e-01 5.000e+00 4.600e+00 4.400e+00 4.200e+00 4.000e+00 3.800e+00 3.600e+00 3.400e+00 3.200e+00 3.000e+00 2.800e+00 2.600e+00 2.400e+00 2.200e+00 2.000e+00 1.800e+00 1.600e+00 1.400e+00 1.200e+00 1.000e+00 8.000e-01 6.000e-01 4.000e-01 2.000e-01
           </DataArray>
           <DataArray type="Float32" Name="rootSegmentDryWeight" NumberOfComponents="1" format="ascii">
 1.824e-04 1.824e-04 1.824e-04 1.824e-04 1.194e-02 5.919e-03 6.874e-03 7.338e-03 7.313e-03 7.290e-03 7.268e-03 7.247e-03 6.746e-03 5.768e-03 8.631e-03 9.692e-03 3.041e-05 3.505e-05 1.589e-05 1.194e-05 9.893e-06 8.561e-06 6.360e-06 3.861e-06 1.920e-06 3.205e-05 3.188e-05 2.827e-05 2.533e-05 2.450e-05 2.472e-05 1.737e-05 1.810e-05 6.549e-04 3.178e-04 3.138e-04 3.104e-04 3.075e-04 3.050e-04 3.026e-04 3.003e-04 2.982e-04 2.962e-04 2.943e-04 2.926e-04 2.910e-04 2.895e-04 2.882e-04 2.870e-04 2.859e-04 2.850e-04 2.842e-04 2.835e-04 2.829e-04 2.825e-04 2.821e-04 2.820e-04
           </DataArray>
           <DataArray type="Float32" Name="rootSegmentLength" NumberOfComponents="1" format="ascii">
 5.343e-01 5.343e-01 5.343e-01 5.343e-01 9.600e-01 4.800e-01 5.600e-01 6.000e-01 6.000e-01 6.000e-01 6.000e-01 6.000e-01 5.600e-01 4.800e-01 7.200e-01 8.162e-01 4.575e-01 5.273e-01 2.391e-01 1.797e-01 1.489e-01 1.288e-01 9.573e-02 5.811e-02 2.889e-02 4.823e-01 4.798e-01 4.254e-01 3.813e-01 3.687e-01 3.721e-01 2.615e-01 2.723e-01 9.428e-01 4.714e-01 4.714e-01 4.714e-01 4.714e-01 4.714e-01 4.714e-01 4.714e-01 4.714e-01 4.714e-01 4.714e-01 4.714e-01 4.714e-01 4.714e-01 4.714e-01 4.714e-01 4.714e-01 4.714e-01 4.714e-01 4.714e-01 4.714e-01 4.714e-01 4.714e-01 4.714e-01
           </DataArray>
           <DataArray type="Float32" Name="rootSegmentLengthDuration" NumberOfComponents="1" format="ascii">
 1.687e-01 1.687e-01 1.687e-01 1.687e-01 4.479e+00 2.064e+00 2.296e+00 2.340e+00 2.220e+00 2.100e+00 1.980e+00 1.860e+00 1.624e+00 1.296e+00 1.736e+00 1.341e+00 1.635e-01 1.812e-01 3.885e-02 2.592e-02 1.894e-02 1.052e-02 5.787e-03 5.186e-03 1.965e-03 1.558e-01 1.410e-01 1.160e-01 9.584e-02 8.886e-02 8.219e-02 4.909e-02 4.535e-02 4.525e+00 2.121e+00 2.027e+00 1.933e+00 1.838e+00 1.744e+00 1.650e+00 1.556e+00 1.461e+00 1.367e+00 1.273e+00 1.178e+00 1.084e+00 9.899e-01 8.957e-01 8.014e-01 7.071e-01 6.128e-01 5.185e-01 4.243e-01 3.300e-01 2.357e-01 1.414e-01 4.714e-02
           </DataArray>
           <DataArray type="Float32" Name="rootSegmentSurfaceArea" NumberOfComponents="1" format="ascii">
 1.141e-01 1.141e-01 1.141e-01 1.141e-01 1.238e+00 6.163e-01 7.174e-01 7.672e-01 7.659e-01 7.647e-01 7.635e-01 7.624e-01 7.106e-01 6.084e-01 9.115e-01 1.028e+00 4.312e-02 4.971e-02 2.253e-02 1.694e-02 1.403e-02 1.214e-02 9.022e-03 5.477e-03 2.723e-03 4.546e-02 4.522e-02 4.010e-02 3.593e-02 3.475e-02 3.507e-02 2.464e-02 2.567e-02 2.873e-01 1.415e-01 1.406e-01 1.399e-01 1.392e-01 1.386e-01 1.381e-01 1.376e-01 1.371e-01 1.366e-01 1.362e-01 1.358e-01 1.354e-01 1.351e-01 1.348e-01 1.345e-01 1.342e-01 1.340e-01 1.338e-01 1.337e-01 1.335e-01 1.334e-01 1.333e-01 1.333e-01
           </DataArray>
           <DataArray type="Float32" Name="rootSegmentVolume" NumberOfComponents="1" format="ascii">
 1.941e-03 1.941e-03 1.941e-03 1.941e-03 1.270e-01 6.296e-02 7.313e-02 7.806e-02 7.780e-02 7.755e-02 7.732e-02 7.710e-02 7.176e-02 6.136e-02 9.182e-02 1.031e-01 3.235e-04 3.728e-04 1.690e-04 1.270e-04 1.052e-04 9.107e-05 6.766e-05 4.108e-05 2.042e-05 3.410e-04 3.392e-04 3.007e-04 2.695e-04 2.606e-04 2.630e-04 1.848e-04 1.925e-04 6.967e-03 3.381e-03 3.339e-03 3.302e-03 3.271e-03 3.244e-03 3.219e-03 3.195e-03 3.172e-03 3.151e-03 3.131e-03 3.113e-03 3.096e-03 3.080e-03 3.066e-03 3.053e-03 3.042e-03 3.032e-03 3.023e-03 3.016e-03 3.010e-03 3.005e-03 3.002e-03 3.000e-03
           </DataArray>
           <DataArray type="Float32" Name="spatialRootDensity" NumberOfComponents="1" format="ascii">
 1.961e+00 1.961e+00 1.961e+00 1.961e+00 1.809e+00 7.353e-01 0.000e+00 0.000e+00 0.000e+00 0.000e+00 0.000e+00 0.000e+00 0.000e+00 0.000e+00 0.000e+00 0.000e+00 1.987e+00 2.013e+00 1.452e+00 1.357e+00 1.238e+00 1.241e+00 1.134e+00 1.041e+00 9.574e-01 2.059e+00 2.090e+00 2.239e+00 2.263e+00 2.273e+00 2.272e+00 2.411e+00 1.898e+00 1.816e+00 1.911e+00 7.067e-01 3.373e-01 7.438e-02 0.000e+00 0.000e+00 0.000e+00 0.000e+00 0.000e+00 0.000e+00 0.000e+00 0.000e+00 0.000e+00 0.000e+00 0.000e+00 0.000e+00 0.000e+00 0.000e+00 0.000e+00 0.000e+00 0.000e+00 0.000e+00 0.000e+00
           </DataArray>
         </CellData>
      </Piece>
   </UnstructuredGrid>
</VTKFile>
