<?xml version="1.0"?>
<VTKFile type="UnstructuredGrid" version="0.1" byte_order="LittleEndian">
   <UnstructuredGrid>
      <Piece NumberOfPoints="2590" NumberOfCells="183">
         <Points>
            <DataArray type="Float32" Name="Position" NumberOfComponents="3" format="ascii">
0.002	-4.967	-0.025
0.013	-4.960	-0.009
0.020	-4.964	0.011
0.019	-4.979	0.026
0.011	-4.998	0.031
-0.001	-5.014	0.024
-0.012	-5.021	0.008
-0.019	-5.016	-0.011
-0.018	-5.001	-0.027
-0.010	-4.983	-0.032
0.650	-5.315	-0.328
0.662	-5.309	-0.312
0.668	-5.313	-0.292
0.665	-5.326	-0.276
0.655	-5.344	-0.270
0.642	-5.359	-0.276
0.630	-5.365	-0.292
0.624	-5.361	-0.312
0.626	-5.348	-0.328
0.636	-5.330	-0.334
1.270	-5.888	-0.602
1.283	-5.882	-0.586
1.287	-5.886	-0.566
1.282	-5.898	-0.549
1.269	-5.913	-0.542
1.253	-5.925	-0.548
1.241	-5.931	-0.564
1.236	-5.928	-0.584
1.242	-5.916	-0.601
1.255	-5.901	-0.608
1.709	-6.397	-0.759
1.721	-6.392	-0.743
1.724	-6.394	-0.723
1.717	-6.404	-0.705
1.703	-6.418	-0.698
1.686	-6.429	-0.704
1.674	-6.435	-0.720
1.671	-6.432	-0.741
1.678	-6.422	-0.758
1.692	-6.409	-0.765
2.175	-7.039	-0.899
2.188	-7.034	-0.882
2.190	-7.037	-0.862
2.182	-7.045	-0.844
2.166	-7.057	-0.837
2.148	-7.067	-0.843
2.136	-7.072	-0.860
2.134	-7.070	-0.880
2.142	-7.061	-0.897
2.158	-7.049	-0.904
2.477	-7.553	-0.986
2.490	-7.549	-0.970
2.492	-7.552	-0.949
2.482	-7.559	-0.932
2.465	-7.569	-0.925
2.447	-7.578	-0.931
2.434	-7.582	-0.947
2.433	-7.580	-0.968
2.442	-7.572	-0.985
2.459	-7.562	-0.992
2.756	-8.139	-1.067
2.769	-8.136	-1.050
2.771	-8.138	-1.029
2.761	-8.146	-1.012
2.743	-8.155	-1.006
2.724	-8.162	-1.012
2.712	-8.165	-1.028
2.710	-8.162	-1.049
2.720	-8.155	-1.066
2.738	-8.146	-1.073
3.027	-8.779	-1.180
3.040	-8.777	-1.164
3.042	-8.779	-1.143
3.032	-8.786	-1.126
3.014	-8.795	-1.119
2.995	-8.802	-1.125
2.982	-8.805	-1.142
2.981	-8.802	-1.162
2.991	-8.795	-1.179
3.008	-8.786	-1.186
3.168	-9.120	-1.233
3.181	-9.117	-1.217
3.183	-9.120	-1.196
3.172	-9.126	-1.179
3.154	-9.135	-1.172
3.135	-9.142	-1.178
3.123	-9.144	-1.195
3.121	-9.142	-1.215
3.132	-9.135	-1.232
3.149	-9.126	-1.239
-0.025	-4.967	0.002
-0.009	-4.958	-0.008
0.010	-4.961	-0.016
0.026	-4.975	-0.018
0.032	-4.995	-0.013
0.026	-5.013	-0.003
0.010	-5.022	0.008
-0.009	-5.019	0.015
-0.025	-5.005	0.017
-0.031	-4.985	0.012
-0.338	-5.239	-0.674
-0.326	-5.228	-0.687
-0.307	-5.226	-0.696
-0.288	-5.236	-0.698
-0.277	-5.253	-0.692
-0.278	-5.271	-0.681
-0.290	-5.282	-0.668
-0.309	-5.283	-0.659
-0.328	-5.274	-0.657
-0.339	-5.257	-0.663
-0.588	-5.811	-1.304
-0.575	-5.803	-1.318
-0.555	-5.803	-1.325
-0.537	-5.813	-1.322
-0.526	-5.827	-1.311
-0.528	-5.841	-1.296
-0.541	-5.849	-1.282
-0.561	-5.849	-1.274
-0.579	-5.840	-1.277
-0.590	-5.825	-1.288
-0.741	-6.332	-1.730
-0.724	-6.327	-1.742
-0.704	-6.331	-1.744
-0.687	-6.341	-1.736
-0.681	-6.354	-1.721
-0.687	-6.364	-1.704
-0.703	-6.369	-1.692
-0.724	-6.365	-1.689
-0.741	-6.355	-1.697
-0.747	-6.342	-1.713
-0.890	-6.993	-2.165
-0.872	-6.989	-2.176
-0.852	-6.993	-2.176
-0.836	-7.002	-2.167
-0.831	-7.014	-2.150
-0.838	-7.023	-2.133
-0.856	-7.027	-2.122
-0.876	-7.023	-2.121
-0.892	-7.014	-2.131
-0.897	-7.002	-2.147
-0.980	-7.494	-2.483
-0.962	-7.491	-2.494
-0.942	-7.495	-2.494
-0.926	-7.504	-2.484
-0.921	-7.515	-2.467
-0.929	-7.524	-2.450
-0.947	-7.528	-2.439
-0.968	-7.524	-2.439
-0.983	-7.515	-2.449
-0.988	-7.504	-2.466
-1.079	-8.048	-2.818
-1.061	-8.045	-2.828
-1.040	-8.049	-2.826
-1.026	-8.058	-2.814
-1.022	-8.068	-2.796
-1.031	-8.076	-2.779
-1.050	-8.078	-2.770
-1.071	-8.075	-2.771
-1.085	-8.066	-2.783
-1.089	-8.055	-2.801
-1.161	-8.678	-3.125
-1.142	-8.677	-3.134
-1.121	-8.681	-3.131
-1.107	-8.689	-3.117
-1.105	-8.698	-3.099
-1.115	-8.705	-3.082
-1.134	-8.706	-3.073
-1.155	-8.702	-3.076
-1.169	-8.694	-3.089
-1.171	-8.685	-3.108
-1.167	-9.016	-3.285
-1.154	-9.024	-3.271
-1.152	-9.033	-3.252
-1.162	-9.040	-3.235
-1.181	-9.041	-3.227
-1.202	-9.037	-3.230
-1.216	-9.029	-3.244
-1.217	-9.020	-3.263
-1.207	-9.013	-3.279
-1.188	-9.012	-3.288
0.021	-5.016	0.005
0.021	-5.005	0.023
0.012	-4.988	0.032
-0.001	-4.971	0.028
-0.013	-4.962	0.014
-0.020	-4.964	-0.006
-0.020	-4.975	-0.023
-0.011	-4.992	-0.032
0.002	-5.009	-0.029
0.014	-5.018	-0.015
-0.584	-5.445	0.256
-0.584	-5.437	0.275
-0.594	-5.422	0.287
-0.609	-5.407	0.287
-0.623	-5.398	0.275
-0.632	-5.397	0.255
-0.631	-5.406	0.236
-0.621	-5.420	0.224
-0.607	-5.435	0.225
-0.592	-5.445	0.237
-1.088	-6.133	0.449
-1.087	-6.128	0.470
-1.097	-6.117	0.485
-1.113	-6.105	0.490
-1.130	-6.096	0.482
-1.142	-6.094	0.464
-1.143	-6.099	0.444
-1.133	-6.109	0.428
-1.116	-6.121	0.424
-1.099	-6.130	0.432
-1.420	-6.711	0.596
-1.418	-6.708	0.617
-1.427	-6.699	0.634
-1.444	-6.689	0.640
-1.463	-6.681	0.634
-1.475	-6.678	0.618
-1.477	-6.681	0.597
-1.468	-6.689	0.580
-1.451	-6.700	0.574
-1.433	-6.708	0.580
-1.762	-7.424	0.721
-1.759	-7.422	0.741
-1.767	-7.415	0.759
-1.784	-7.406	0.767
-1.803	-7.399	0.763
-1.817	-7.395	0.747
-1.820	-7.397	0.726
-1.811	-7.404	0.709
-1.794	-7.413	0.700
-1.775	-7.421	0.705
-1.988	-7.972	0.808
-1.984	-7.970	0.828
-1.993	-7.964	0.846
-2.010	-7.955	0.855
-2.029	-7.948	0.851
-2.043	-7.945	0.836
-2.047	-7.947	0.815
-2.039	-7.954	0.797
-2.022	-7.962	0.789
-2.002	-7.969	0.792
-2.220	-8.570	0.922
-2.215	-8.568	0.942
-2.223	-8.561	0.960
-2.240	-8.553	0.970
-2.260	-8.547	0.966
-2.275	-8.545	0.952
-2.279	-8.548	0.931
-2.272	-8.554	0.913
-2.254	-8.562	0.904
-2.235	-8.568	0.907
-2.425	-9.228	1.061
-2.420	-9.226	1.081
-2.427	-9.219	1.100
-2.444	-9.212	1.110
-2.465	-9.207	1.107
-2.480	-9.205	1.093
-2.485	-9.208	1.073
-2.478	-9.214	1.054
-2.461	-9.221	1.044
-2.440	-9.227	1.047
-2.521	-9.579	1.135
-2.515	-9.577	1.155
-2.523	-9.571	1.174
-2.540	-9.564	1.184
-2.560	-9.559	1.182
-2.576	-9.557	1.168
-2.581	-9.560	1.148
-2.574	-9.566	1.129
-2.557	-9.573	1.119
-2.536	-9.578	1.121
0.027	-4.997	-0.020
0.030	-4.978	-0.012
0.021	-4.963	0.000
0.005	-4.959	0.012
-0.014	-4.966	0.020
-0.026	-4.983	0.020
-0.029	-5.002	0.012
-0.020	-5.017	-0.001
-0.004	-5.021	-0.013
0.015	-5.014	-0.020
0.410	-5.295	0.602
0.414	-5.278	0.613
0.406	-5.264	0.627
0.389	-5.260	0.640
0.371	-5.268	0.646
0.357	-5.283	0.643
0.353	-5.301	0.632
0.360	-5.314	0.618
0.377	-5.318	0.605
0.396	-5.311	0.599
0.737	-5.885	1.166
0.743	-5.871	1.180
0.736	-5.860	1.198
0.720	-5.857	1.211
0.700	-5.863	1.215
0.684	-5.875	1.208
0.678	-5.889	1.194
0.685	-5.899	1.177
0.701	-5.902	1.164
0.721	-5.897	1.160
0.932	-6.439	1.520
0.939	-6.427	1.536
0.933	-6.418	1.554
0.917	-6.415	1.567
0.897	-6.419	1.570
0.880	-6.429	1.562
0.873	-6.441	1.546
0.879	-6.450	1.528
0.895	-6.453	1.515
0.916	-6.449	1.512
1.099	-7.125	1.905
1.106	-7.114	1.922
1.101	-7.105	1.940
1.084	-7.102	1.953
1.063	-7.104	1.955
1.046	-7.113	1.946
1.039	-7.123	1.929
1.045	-7.132	1.911
1.061	-7.136	1.899
1.082	-7.133	1.896
1.170	-7.649	2.190
1.177	-7.639	2.207
1.171	-7.630	2.226
1.155	-7.626	2.238
1.134	-7.629	2.240
1.117	-7.636	2.231
1.110	-7.646	2.213
1.115	-7.655	2.195
1.132	-7.659	2.183
1.153	-7.656	2.181
1.264	-8.227	2.475
1.272	-8.218	2.492
1.266	-8.210	2.511
1.250	-8.207	2.524
1.229	-8.209	2.526
1.212	-8.216	2.517
1.204	-8.225	2.499
1.210	-8.233	2.480
1.226	-8.236	2.468
1.247	-8.234	2.465
1.356	-8.869	2.751
1.363	-8.860	2.769
1.357	-8.853	2.788
1.341	-8.849	2.800
1.320	-8.851	2.802
1.303	-8.857	2.792
1.295	-8.866	2.775
1.301	-8.874	2.756
1.317	-8.877	2.743
1.338	-8.875	2.741
1.391	-9.208	2.902
1.398	-9.199	2.919
1.393	-9.191	2.938
1.376	-9.187	2.951
1.356	-9.189	2.952
1.338	-9.195	2.942
1.331	-9.204	2.925
1.336	-9.212	2.906
1.353	-9.215	2.893
1.374	-9.214	2.892
0.006	-4.674	-0.028
0.015	-4.667	-0.010
0.023	-4.672	0.009
0.026	-4.688	0.022
0.023	-4.709	0.024
0.016	-4.726	0.015
0.007	-4.734	-0.002
-0.000	-4.728	-0.021
-0.003	-4.712	-0.035
-0.001	-4.692	-0.037
0.404	-4.744	-0.202
0.413	-4.736	-0.184
0.420	-4.742	-0.165
0.423	-4.758	-0.152
0.421	-4.779	-0.150
0.413	-4.796	-0.159
0.405	-4.804	-0.177
0.397	-4.798	-0.196
0.394	-4.782	-0.209
0.397	-4.761	-0.211
-0.016	-4.682	0.003
-0.002	-4.669	-0.003
0.018	-4.667	-0.011
0.035	-4.678	-0.017
0.043	-4.698	-0.019
0.038	-4.718	-0.016
0.024	-4.732	-0.009
0.004	-4.733	-0.001
-0.013	-4.722	0.004
-0.020	-4.703	0.006
-0.175	-4.709	-0.407
-0.160	-4.696	-0.413
-0.141	-4.694	-0.421
-0.124	-4.705	-0.427
-0.116	-4.725	-0.428
-0.120	-4.745	-0.425
-0.135	-4.759	-0.419
-0.154	-4.760	-0.411
-0.171	-4.749	-0.405
-0.179	-4.730	-0.404
0.022	-4.728	0.010
0.024	-4.711	0.023
0.021	-4.691	0.025
0.014	-4.674	0.015
0.006	-4.667	-0.003
-0.000	-4.673	-0.023
-0.002	-4.689	-0.036
0.001	-4.710	-0.037
0.008	-4.727	-0.027
0.016	-4.734	-0.009
-0.383	-4.802	0.164
-0.381	-4.786	0.177
-0.384	-4.765	0.179
-0.391	-4.748	0.169
-0.399	-4.741	0.151
-0.406	-4.747	0.131
-0.407	-4.763	0.118
-0.404	-4.784	0.117
-0.397	-4.801	0.127
-0.389	-4.808	0.145
0.039	-4.713	-0.021
0.041	-4.692	-0.021
0.032	-4.674	-0.015
0.014	-4.666	-0.006
-0.004	-4.671	0.003
-0.017	-4.687	0.009
-0.019	-4.708	0.008
-0.009	-4.726	0.002
0.008	-4.734	-0.007
0.026	-4.729	-0.016
0.236	-4.740	0.372
0.238	-4.719	0.372
0.229	-4.701	0.378
0.211	-4.693	0.387
0.193	-4.698	0.396
0.180	-4.714	0.401
0.178	-4.735	0.401
0.188	-4.752	0.395
0.205	-4.760	0.386
0.223	-4.756	0.377
-0.155	-4.995	0.149
-0.037	-4.996	0.212
0.094	-4.999	0.193
0.190	-5.003	0.101
0.213	-5.005	-0.030
0.155	-5.005	-0.149
0.037	-5.004	-0.212
-0.094	-5.001	-0.193
-0.190	-4.997	-0.101
-0.213	-4.995	0.030
-0.135	-4.248	0.139
-0.019	-4.248	0.199
0.111	-4.250	0.180
0.205	-4.251	0.088
0.226	-4.253	-0.041
0.168	-4.253	-0.159
0.052	-4.252	-0.219
-0.078	-4.251	-0.200
-0.172	-4.249	-0.108
-0.194	-4.248	0.021
-0.134	-3.560	0.137
-0.018	-3.559	0.196
0.111	-3.559	0.176
0.203	-3.559	0.084
0.224	-3.560	-0.045
0.165	-3.561	-0.161
0.049	-3.561	-0.221
-0.080	-3.562	-0.201
-0.172	-3.561	-0.108
-0.193	-3.561	0.020
-0.137	-2.701	0.129
-0.021	-2.700	0.188
0.107	-2.699	0.168
0.198	-2.699	0.076
0.219	-2.700	-0.052
0.160	-2.700	-0.167
0.044	-2.701	-0.226
-0.084	-2.702	-0.206
-0.175	-2.702	-0.114
-0.196	-2.701	0.014
-0.140	-1.802	0.129
-0.025	-1.801	0.187
0.102	-1.801	0.166
0.193	-1.800	0.074
0.213	-1.799	-0.053
[...]
         <CellData>
           <DataArray type="Float32" Name="combinedRootClassID" NumberOfComponents="1" format="ascii">
 -5.000e+00 -5.000e+00 -5.000e+00 -5.000e+00 -5.000e+00 -5.000e+00 -5.000e+00 -5.000e+00 -5.000e+00 -5.000e+00 -5.000e+00 -5.000e+00 -5.000e+00 -5.000e+00 -5.000e+00 -5.000e+00 -5.000e+00 -5.000e+00 -5.000e+00 -5.000e+00 -5.000e+00 -5.000e+00 -5.000e+00 -5.000e+00 -5.000e+00 -5.000e+00 -5.000e+00 -5.000e+00 -5.000e+00 -5.000e+00 -5.000e+00 -5.000e+00 -1.100e+01 -1.100e+01 -1.100e+01 -1.100e+01 -2.000e+00 -2.000e+00 -2.000e+00 -2.000e+00 -2.000e+00 -2.000e+00 -2.000e+00 -2.000e+00 -2.000e+00 -2.000e+00 -7.000e+00 -7.000e+00 -7.000e+00 -7.000e+00 -7.000e+00 -7.000e+00 -7.000e+00 -7.000e+00 -7.000e+00 -7.000e+00 -7.000e+00 -7.000e+00 -7.000e+00 -7.000e+00 -7.000e+00 -7.000e+00 -7.000e+00 -7.000e+00 -7.000e+00 -7.000e+00 -7.000e+00 -7.000e+00 -7.000e+00 -7.000e+00 -7.000e+00 -7.000e+00 -7.000e+00 -7.000e+00 -7.000e+00 -7.000e+00 -7.000e+00 -7.000e+00 -7.000e+00 -7.000e+00 -7.000e+00 -7.000e+00 -7.000e+00 -7.000e+00 -7.000e+00 -7.000e+00 -7.000e+00 -7.000e+00 -7.000e+00 -7.000e+00 -7.000e+00 -7.000e+00 -7.000e+00 -7.000e+00 -7.000e+00 -7.000e+00 -7.000e+00 -7.000e+00 -7.000e+00 -7.000e+00 -7.000e+00 -7.000e+00 -7.000e+00 -7.000e+00 -7.000e+00 -7.000e+00 -7.000e+00 -7.000e+00 -7.000e+00 -7.000e+00 -7.000e+00 -7.000e+00 -7.000e+00 -7.000e+00 -7.000e+00 -7.000e+00 -7.000e+00 -7.000e+00 -7.000e+00 -7.000e+00 -7.000e+00 -7.000e+00 -7.000e+00 -7.000e+00 -7.000e+00 -7.000e+00 -7.000e+00 -7.000e+00 -7.000e+00 -7.000e+00 -7.000e+00 -7.000e+00 -7.000e+00 -7.000e+00 -7.000e+00 -7.000e+00 -7.000e+00 -7.000e+00 -7.000e+00 -7.000e+00 -7.000e+00 -7.000e+00 -7.000e+00 -7.000e+00 -7.000e+00 -7.000e+00 -7.000e+00 -7.000e+00 -7.000e+00 -7.000e+00 -7.000e+00 -7.000e+00 -7.000e+00 -7.000e+00 -7.000e+00 -9.000e+00 -9.000e+00 -9.000e+00 -9.000e+00 -4.000e+00 -4.000e+00 -4.000e+00 -4.000e+00 -4.000e+00 -4.000e+00 -4.000e+00 -4.000e+00 -4.000e+00 -4.000e+00 -4.000e+00 -4.000e+00 -4.000e+00 -4.000e+00 -4.000e+00 -4.000e+00 -4.000e+00 -4.000e+00 -4.000e+00 -4.000e+00 -4.000e+00 -4.000e+00 -4.000e+00 -4.000e+00
           </DataArray>
           <DataArray type="Float32" Name="parentRootClassID" NumberOfComponents="1" format="ascii">
 -2.000e+00 -2.000e+00 -2.000e+00 -2.000e+00 -2.000e+00 -2.000e+00 -2.000e+00 -2.000e+00 -2.000e+00 -2.000e+00 -2.000e+00 -2.000e+00 -2.000e+00 -2.000e+00 -2.000e+00 -2.000e+00 -2.000e+00 -2.000e+00 -2.000e+00 -2.000e+00 -2.000e+00 -2.000e+00 -2.000e+00 -2.000e+00 -2.000e+00 -2.000e+00 -2.000e+00 -2.000e+00 -2.000e+00 -2.000e+00 -2.000e+00 -2.000e+00 -2.000e+00 -2.000e+00 -2.000e+00 -2.000e+00 -3.000e+00 -3.000e+00 -3.000e+00 -3.000e+00 -3.000e+00 -3.000e+00 -3.000e+00 -3.000e+00 -3.000e+00 -3.000e+00 -4.000e+00 -4.000e+00 -4.000e+00 -4.000e+00 -4.000e+00 -4.000e+00 -4.000e+00 -4.000e+00 -4.000e+00 -4.000e+00 -4.000e+00 -4.000e+00 -4.000e+00 -4.000e+00 -4.000e+00 -4.000e+00 -4.000e+00 -4.000e+00 -4.000e+00 -4.000e+00 -4.000e+00 -4.000e+00 -4.000e+00 -4.000e+00 -4.000e+00 -4.000e+00 -4.000e+00 -4.000e+00 -4.000e+00 -4.000e+00 -4.000e+00 -4.000e+00 -4.000e+00 -4.000e+00 -4.000e+00 -4.000e+00 -4.000e+00 -4.000e+00 -4.000e+00 -4.000e+00 -4.000e+00 -4.000e+00 -4.000e+00 -4.000e+00 -4.000e+00 -4.000e+00 -4.000e+00 -4.000e+00 -4.000e+00 -4.000e+00 -4.000e+00 -4.000e+00 -4.000e+00 -4.000e+00 -4.000e+00 -4.000e+00 -4.000e+00 -4.000e+00 -4.000e+00 -4.000e+00 -4.000e+00 -4.000e+00 -4.000e+00 -4.000e+00 -4.000e+00 -4.000e+00 -4.000e+00 -4.000e+00 -4.000e+00 -4.000e+00 -4.000e+00 -4.000e+00 -4.000e+00 -4.000e+00 -4.000e+00 -4.000e+00 -4.000e+00 -4.000e+00 -4.000e+00 -4.000e+00 -4.000e+00 -4.000e+00 -4.000e+00 -4.000e+00 -4.000e+00 -4.000e+00 -4.000e+00 -4.000e+00 -4.000e+00 -4.000e+00 -4.000e+00 -4.000e+00 -4.000e+00 -4.000e+00 -4.000e+00 -4.000e+00 -4.000e+00 -4.000e+00 -4.000e+00 -4.000e+00 -4.000e+00 -4.000e+00 -4.000e+00 -4.000e+00 -4.000e+00 -4.000e+00 -4.000e+00 -4.000e+00 -4.000e+00 -4.000e+00 -4.000e+00 -4.000e+00 -4.000e+00 -3.000e+00 -3.000e+00 -3.000e+00 -3.000e+00 -3.000e+00 -3.000e+00 -3.000e+00 -3.000e+00 -3.000e+00 -3.000e+00 -3.000e+00 -3.000e+00 -3.000e+00 -3.000e+00 -3.000e+00 -3.000e+00 -3.000e+00 -3.000e+00 -3.000e+00 -3.000e+00 -3.000e+00 -3.000e+00 -3.000e+00 -3.000e+00
           </DataArray>
           <DataArray type="Float32" Name="phosphorus/Imax" NumberOfComponents="1" format="ascii">
 5.550e-02 5.550e-02 5.550e-02 5.550e-02 5.550e-02 5.550e-02 5.550e-02 5.550e-02 5.550e-02 5.550e-02 5.550e-02 5.550e-02 5.550e-02 5.550e-02 5.550e-02 5.550e-02 5.550e-02 5.550e-02 5.550e-02 5.550e-02 5.550e-02 5.550e-02 5.550e-02 5.550e-02 5.550e-02 5.550e-02 5.550e-02 5.550e-02 5.550e-02 5.550e-02 5.550e-02 5.550e-02 5.550e-02 5.550e-02 5.550e-02 5.550e-02 5.550e-02 5.550e-02 5.550e-02 5.550e-02 5.550e-02 5.550e-02 5.550e-02 5.550e-02 5.550e-02 5.550e-02 5.550e-02 5.550e-02 5.550e-02 5.550e-02 5.550e-02 5.550e-02 5.550e-02 5.550e-02 5.550e-02 5.550e-02 5.550e-02 5.550e-02 5.550e-02 5.550e-02 5.550e-02 5.550e-02 5.550e-02 5.550e-02 5.550e-02 5.550e-02 5.550e-02 5.550e-02 5.550e-02 5.550e-02 5.550e-02 5.550e-02 5.550e-02 5.550e-02 5.550e-02 5.550e-02 5.550e-02 5.550e-02 5.550e-02 5.550e-02 5.550e-02 5.550e-02 5.550e-02 5.550e-02 5.550e-02 5.550e-02 5.550e-02 5.550e-02 5.550e-02 5.550e-02 5.550e-02 5.550e-02 5.550e-02 5.550e-02 5.550e-02 5.550e-02 5.550e-02 5.550e-02 5.550e-02 5.550e-02 5.550e-02 5.550e-02 5.550e-02 5.550e-02 5.550e-02 5.550e-02 5.550e-02 5.550e-02 5.550e-02 5.550e-02 5.550e-02 5.550e-02 5.550e-02 5.550e-02 5.550e-02 5.550e-02 5.550e-02 5.550e-02 5.550e-02 5.550e-02 5.550e-02 5.550e-02 5.550e-02 5.550e-02 5.550e-02 5.550e-02 5.550e-02 5.550e-02 5.550e-02 5.550e-02 5.550e-02 5.550e-02 5.550e-02 5.550e-02 5.550e-02 5.550e-02 5.550e-02 5.550e-02 5.550e-02 5.550e-02 5.550e-02 5.550e-02 5.550e-02 5.550e-02 5.550e-02 5.550e-02 5.550e-02 5.550e-02 5.550e-02 5.550e-02 5.550e-02 5.550e-02 5.550e-02 5.550e-02 5.550e-02 5.550e-02 5.550e-02 5.550e-02 5.550e-02 5.550e-02 5.550e-02 5.550e-02 5.550e-02 5.550e-02 5.550e-02 5.550e-02 5.550e-02 5.550e-02 5.550e-02 5.550e-02 5.550e-02 5.550e-02 5.550e-02 5.550e-02 5.550e-02 5.550e-02 5.550e-02 5.550e-02 5.550e-02 5.550e-02 5.550e-02 5.550e-02 5.550e-02
           </DataArray>
           <DataArray type="Float32" Name="phosphorus/Km" NumberOfComponents="1" format="ascii">
 5.450e-03 5.450e-03 5.450e-03 5.450e-03 5.450e-03 5.450e-03 5.450e-03 5.450e-03 5.450e-03 5.450e-03 5.450e-03 5.450e-03 5.450e-03 5.450e-03 5.450e-03 5.450e-03 5.450e-03 5.450e-03 5.450e-03 5.450e-03 5.450e-03 5.450e-03 5.450e-03 5.450e-03 5.450e-03 5.450e-03 5.450e-03 5.450e-03 5.450e-03 5.450e-03 5.450e-03 5.450e-03 5.450e-03 5.450e-03 5.450e-03 5.450e-03 5.450e-03 5.450e-03 5.450e-03 5.450e-03 5.450e-03 5.450e-03 5.450e-03 5.450e-03 5.450e-03 5.450e-03 5.450e-03 5.450e-03 5.450e-03 5.450e-03 5.450e-03 5.450e-03 5.450e-03 5.450e-03 5.450e-03 5.450e-03 5.450e-03 5.450e-03 5.450e-03 5.450e-03 5.450e-03 5.450e-03 5.450e-03 5.450e-03 5.450e-03 5.450e-03 5.450e-03 5.450e-03 5.450e-03 5.450e-03 5.450e-03 5.450e-03 5.450e-03 5.450e-03 5.450e-03 5.450e-03 5.450e-03 5.450e-03 5.450e-03 5.450e-03 5.450e-03 5.450e-03 5.450e-03 5.450e-03 5.450e-03 5.450e-03 5.450e-03 5.450e-03 5.450e-03 5.450e-03 5.450e-03 5.450e-03 5.450e-03 5.450e-03 5.450e-03 5.450e-03 5.450e-03 5.450e-03 5.450e-03 5.450e-03 5.450e-03 5.450e-03 5.450e-03 5.450e-03 5.450e-03 5.450e-03 5.450e-03 5.450e-03 5.450e-03 5.450e-03 5.450e-03 5.450e-03 5.450e-03 5.450e-03 5.450e-03 5.450e-03 5.450e-03 5.450e-03 5.450e-03 5.450e-03 5.450e-03 5.450e-03 5.450e-03 5.450e-03 5.450e-03 5.450e-03 5.450e-03 5.450e-03 5.450e-03 5.450e-03 5.450e-03 5.450e-03 5.450e-03 5.450e-03 5.450e-03 5.450e-03 5.450e-03 5.450e-03 5.450e-03 5.450e-03 5.450e-03 5.450e-03 5.450e-03 5.450e-03 5.450e-03 5.450e-03 5.450e-03 5.450e-03 5.450e-03 5.450e-03 5.450e-03 5.450e-03 5.450e-03 5.450e-03 5.450e-03 5.450e-03 5.450e-03 5.450e-03 5.450e-03 5.450e-03 5.450e-03 5.450e-03 5.450e-03 5.450e-03 5.450e-03 5.450e-03 5.450e-03 5.450e-03 5.450e-03 5.450e-03 5.450e-03 5.450e-03 5.450e-03 5.450e-03 5.450e-03 5.450e-03 5.450e-03 5.450e-03 5.450e-03 5.450e-03 5.450e-03 5.450e-03 5.450e-03
           </DataArray>
           <DataArray type="Float32" Name="phosphorus/minimalNutrientConcentration" NumberOfComponents="1" format="ascii">
 3.000e+01 3.000e+01 3.000e+01 3.000e+01 3.000e+01 3.000e+01 3.000e+01 3.000e+01 3.000e+01 3.000e+01 3.000e+01 3.000e+01 3.000e+01 3.000e+01 3.000e+01 3.000e+01 3.000e+01 3.000e+01 3.000e+01 3.000e+01 3.000e+01 3.000e+01 3.000e+01 3.000e+01 3.000e+01 3.000e+01 3.000e+01 3.000e+01 3.000e+01 3.000e+01 3.000e+01 3.000e+01 3.000e+01 3.000e+01 3.000e+01 3.000e+01 3.000e+01 3.000e+01 3.000e+01 3.000e+01 3.000e+01 3.000e+01 3.000e+01 3.000e+01 3.000e+01 3.000e+01 3.000e+01 3.000e+01 3.000e+01 3.000e+01 3.000e+01 3.000e+01 3.000e+01 3.000e+01 3.000e+01 3.000e+01 3.000e+01 3.000e+01 3.000e+01 3.000e+01 3.000e+01 3.000e+01 3.000e+01 3.000e+01 3.000e+01 3.000e+01 3.000e+01 3.000e+01 3.000e+01 3.000e+01 3.000e+01 3.000e+01 3.000e+01 3.000e+01 3.000e+01 3.000e+01 3.000e+01 3.000e+01 3.000e+01 3.000e+01 3.000e+01 3.000e+01 3.000e+01 3.000e+01 3.000e+01 3.000e+01 3.000e+01 3.000e+01 3.000e+01 3.000e+01 3.000e+01 3.000e+01 3.000e+01 3.000e+01 3.000e+01 3.000e+01 3.000e+01 3.000e+01 3.000e+01 3.000e+01 3.000e+01 3.000e+01 3.000e+01 3.000e+01 3.000e+01 3.000e+01 3.000e+01 3.000e+01 3.000e+01 3.000e+01 3.000e+01 3.000e+01 3.000e+01 3.000e+01 3.000e+01 3.000e+01 3.000e+01 3.000e+01 3.000e+01 3.000e+01 3.000e+01 3.000e+01 3.000e+01 3.000e+01 3.000e+01 3.000e+01 3.000e+01 3.000e+01 3.000e+01 3.000e+01 3.000e+01 3.000e+01 3.000e+01 3.000e+01 3.000e+01 3.000e+01 3.000e+01 3.000e+01 3.000e+01 3.000e+01 3.000e+01 3.000e+01 3.000e+01 3.000e+01 3.000e+01 3.000e+01 3.000e+01 3.000e+01 3.000e+01 3.000e+01 3.000e+01 3.000e+01 3.000e+01 3.000e+01 3.000e+01 3.000e+01 3.000e+01 3.000e+01 3.000e+01 3.000e+01 3.000e+01 3.000e+01 3.000e+01 3.000e+01 3.000e+01 3.000e+01 3.000e+01 3.000e+01 3.000e+01 3.000e+01 3.000e+01 3.000e+01 3.000e+01 3.000e+01 3.000e+01 3.000e+01 3.000e+01 3.000e+01 3.000e+01 3.000e+01 3.000e+01 3.000e+01 3.000e+01
           </DataArray>
           <DataArray type="Float32" Name="phosphorus/nutrientConcentrationAtTheRootSurface" NumberOfComponents="1" format="ascii">
 1.000e-03 1.000e-03 1.000e-03 1.000e-03 1.000e-03 1.000e-03 1.000e-03 1.000e-03 1.000e-03 1.000e-03 1.000e-03 1.000e-03 1.000e-03 1.000e-03 1.000e-03 1.000e-03 1.000e-03 1.000e-03 1.000e-03 1.000e-03 1.000e-03 1.000e-03 1.000e-03 1.000e-03 1.000e-03 1.000e-03 1.000e-03 1.000e-03 1.000e-03 1.000e-03 1.000e-03 1.000e-03 1.000e-03 1.000e-03 1.000e-03 1.000e-03 1.000e-03 1.000e-03 1.000e-03 1.000e-03 1.000e-03 1.000e-03 1.000e-03 0.000e+00 0.000e+00 0.000e+00 1.000e-03 1.000e-03 1.000e-03 1.000e-03 1.000e-03 1.000e-03 1.000e-03 1.000e-03 1.000e-03 1.000e-03 1.000e-03 1.000e-03 1.000e-03 1.000e-03 1.000e-03 1.000e-03 1.000e-03 1.000e-03 1.000e-03 1.000e-03 1.000e-03 1.000e-03 1.000e-03 1.000e-03 1.000e-03 1.000e-03 1.000e-03 1.000e-03 1.000e-03 1.000e-03 1.000e-03 1.000e-03 1.000e-03 1.000e-03 1.000e-03 1.000e-03 1.000e-03 1.000e-03 1.000e-03 1.000e-03 1.000e-03 1.000e-03 1.000e-03 1.000e-03 1.000e-03 1.000e-03 1.000e-03 1.000e-03 1.000e-03 1.000e-03 1.000e-03 1.000e-03 1.000e-03 1.000e-03 1.000e-03 1.000e-03 1.000e-03 1.000e-03 1.000e-03 1.000e-03 1.000e-03 1.000e-03 1.000e-03 1.000e-03 1.000e-03 1.000e-03 1.000e-03 1.000e-03 1.000e-03 1.000e-03 1.000e-03 1.000e-03 1.000e-03 1.000e-03 1.000e-03 1.000e-03 1.000e-03 1.000e-03 1.000e-03 1.000e-03 1.000e-03 1.000e-03 1.000e-03 1.000e-03 1.000e-03 1.000e-03 1.000e-03 1.000e-03 1.000e-03 1.000e-03 1.000e-03 1.000e-03 1.000e-03 1.000e-03 1.000e-03 1.000e-03 1.000e-03 1.000e-03 1.000e-03 1.000e-03 1.000e-03 1.000e-03 1.000e-03 1.000e-03 1.000e-03 1.000e-03 1.000e-03 1.000e-03 1.000e-03 1.000e-03 1.000e-03 1.000e-03 1.000e-03 1.000e-03 1.000e-03 1.000e-03 1.000e-03 1.000e-03 1.000e-03 1.000e-03 1.000e-03 1.000e-03 1.000e-03 1.000e-03 1.000e-03 1.000e-03 1.000e-03 1.000e-03 1.000e-03 1.000e-03 1.000e-03 1.000e-03 1.000e-03 1.000e-03 1.000e-03 1.000e-03 1.000e-03
           </DataArray>
           <DataArray type="Float32" Name="phosphorus/optimalNutrientConcentration" NumberOfComponents="1" format="ascii">
 6.000e+01 6.000e+01 6.000e+01 6.000e+01 6.000e+01 6.000e+01 6.000e+01 6.000e+01 6.000e+01 6.000e+01 6.000e+01 6.000e+01 6.000e+01 6.000e+01 6.000e+01 6.000e+01 6.000e+01 6.000e+01 6.000e+01 6.000e+01 6.000e+01 6.000e+01 6.000e+01 6.000e+01 6.000e+01 6.000e+01 6.000e+01 6.000e+01 6.000e+01 6.000e+01 6.000e+01 6.000e+01 6.000e+01 6.000e+01 6.000e+01 6.000e+01 6.000e+01 6.000e+01 6.000e+01 6.000e+01 6.000e+01 6.000e+01 6.000e+01 6.000e+01 6.000e+01 6.000e+01 6.000e+01 6.000e+01 6.000e+01 6.000e+01 6.000e+01 6.000e+01 6.000e+01 6.000e+01 6.000e+01 6.000e+01 6.000e+01 6.000e+01 6.000e+01 6.000e+01 6.000e+01 6.000e+01 6.000e+01 6.000e+01 6.000e+01 6.000e+01 6.000e+01 6.000e+01 6.000e+01 6.000e+01 6.000e+01 6.000e+01 6.000e+01 6.000e+01 6.000e+01 6.000e+01 6.000e+01 6.000e+01 6.000e+01 6.000e+01 6.000e+01 6.000e+01 6.000e+01 6.000e+01 6.000e+01 6.000e+01 6.000e+01 6.000e+01 6.000e+01 6.000e+01 6.000e+01 6.000e+01 6.000e+01 6.000e+01 6.000e+01 6.000e+01 6.000e+01 6.000e+01 6.000e+01 6.000e+01 6.000e+01 6.000e+01 6.000e+01 6.000e+01 6.000e+01 6.000e+01 6.000e+01 6.000e+01 6.000e+01 6.000e+01 6.000e+01 6.000e+01 6.000e+01 6.000e+01 6.000e+01 6.000e+01 6.000e+01 6.000e+01 6.000e+01 6.000e+01 6.000e+01 6.000e+01 6.000e+01 6.000e+01 6.000e+01 6.000e+01 6.000e+01 6.000e+01 6.000e+01 6.000e+01 6.000e+01 6.000e+01 6.000e+01 6.000e+01 6.000e+01 6.000e+01 6.000e+01 6.000e+01 6.000e+01 6.000e+01 6.000e+01 6.000e+01 6.000e+01 6.000e+01 6.000e+01 6.000e+01 6.000e+01 6.000e+01 6.000e+01 6.000e+01 6.000e+01 6.000e+01 6.000e+01 6.000e+01 6.000e+01 6.000e+01 6.000e+01 6.000e+01 6.000e+01 6.000e+01 6.000e+01 6.000e+01 6.000e+01 6.000e+01 6.000e+01 6.000e+01 6.000e+01 6.000e+01 6.000e+01 6.000e+01 6.000e+01 6.000e+01 6.000e+01 6.000e+01 6.000e+01 6.000e+01 6.000e+01 6.000e+01 6.000e+01 6.000e+01 6.000e+01 6.000e+01 6.000e+01
           </DataArray>
           <DataArray type="Float32" Name="phosphorus/radiusDepletionZone" NumberOfComponents="1" format="ascii">
 7.402e-02 6.400e-02 6.400e-02 5.400e-02 5.400e-02 4.400e-02 4.400e-02 3.400e-02 7.402e-02 6.400e-02 6.400e-02 5.400e-02 5.400e-02 4.400e-02 4.400e-02 3.400e-02 7.402e-02 6.400e-02 6.400e-02 5.400e-02 5.400e-02 4.400e-02 4.400e-02 3.400e-02 7.402e-02 6.400e-02 6.400e-02 5.400e-02 5.400e-02 4.400e-02 4.400e-02 3.400e-02 5.400e-02 5.400e-02 5.400e-02 5.400e-02 2.938e-01 2.914e-01 2.901e-01 2.788e-01 2.776e-01 2.768e-01 2.758e-01 2.037e-01 2.030e-01 2.017e-01 5.502e-02 4.501e-02 2.500e-02 5.502e-02 4.501e-02 2.500e-02 4.501e-02 3.500e-02 4.501e-02 3.500e-02 4.501e-02 3.500e-02 1.500e-02 4.501e-02 3.500e-02 4.501e-02 3.500e-02 4.501e-02 3.500e-02 4.501e-02 3.500e-02 4.501e-02 3.500e-02 4.501e-02 3.500e-02 4.501e-02 2.500e-02 5.502e-02 3.500e-02 1.500e-02 4.501e-02 3.500e-02 4.501e-02 2.500e-02 4.501e-02 2.500e-02 4.501e-02 2.500e-02 4.501e-02 2.500e-02 4.501e-02 2.500e-02 4.501e-02 2.500e-02 4.501e-02 2.500e-02 4.501e-02 2.500e-02 4.501e-02 2.500e-02 5.502e-02 4.501e-02 2.500e-02 3.500e-02 3.500e-02 2.500e-02 3.500e-02 1.500e-02 3.500e-02 1.500e-02 3.500e-02 1.500e-02 3.500e-02 1.500e-02 3.500e-02 3.500e-02 1.500e-02 3.500e-02 3.500e-02 5.502e-02 3.500e-02 1.500e-02 3.500e-02 3.500e-02 3.500e-02 3.500e-02 3.500e-02 3.500e-02 3.500e-02 3.500e-02 2.500e-02 2.500e-02 4.502e-02 3.500e-02 1.500e-02 2.500e-02 2.500e-02 2.500e-02 2.500e-02 2.500e-02 2.500e-02 2.500e-02 2.500e-02 2.500e-02 1.500e-02 4.502e-02 3.500e-02 1.500e-02 1.500e-02 1.500e-02 1.500e-02 1.500e-02 4.502e-02 3.500e-02 4.501e-02 3.500e-02 2.500e-02 4.501e-02 3.500e-02 4.502e-02 3.501e-02 2.500e-02 2.500e-02 1.229e-01 1.221e-01 1.213e-01 1.205e-01 1.198e-01 1.091e-01 1.085e-01 1.079e-01 1.075e-01 1.071e-01 9.680e-02 9.653e-02 9.628e-02 9.605e-02 8.584e-02 8.566e-02 8.550e-02 7.536e-02 7.525e-02 7.515e-02 6.508e-02 6.503e-02 5.500e-02 4.500e-02
           </DataArray>
           <DataArray type="Float32" Name="phosphorus/rootSegmentMinimalNutrientContent" NumberOfComponents="1" format="ascii">
 8.176e-03 9.053e-03 7.029e-03 8.228e-03 6.151e-03 6.683e-03 7.216e-03 3.808e-03 8.176e-03 9.053e-03 7.029e-03 8.228e-03 6.151e-03 6.683e-03 7.216e-03 3.808e-03 8.176e-03 9.053e-03 7.029e-03 8.228e-03 6.151e-03 6.683e-03 7.216e-03 3.808e-03 8.176e-03 9.053e-03 7.029e-03 8.228e-03 6.151e-03 6.683e-03 7.216e-03 3.808e-03 4.513e-03 4.513e-03 4.513e-03 4.513e-03 3.032e-01 2.739e-01 3.369e-01 3.483e-01 2.308e-01 3.418e-01 3.232e-01 3.273e-01 3.216e-01 9.107e-02 1.695e-03 1.667e-03 1.166e-03 1.719e-03 1.756e-03 4.385e-04 1.707e-03 1.103e-03 1.716e-03 1.641e-03 1.695e-03 1.683e-03 3.364e-04 1.768e-03 1.517e-03 1.651e-03 1.776e-03 1.729e-03 1.080e-03 1.715e-03 1.653e-03 1.733e-03 1.424e-03 1.646e-03 1.408e-03 1.678e-03 9.706e-04 1.725e-03 1.679e-03 2.797e-04 1.656e-03 1.541e-03 1.750e-03 1.089e-03 1.770e-03 8.977e-04 1.705e-03 1.147e-03 1.716e-03 9.379e-04 1.716e-03 1.257e-03 1.775e-03 5.852e-04 1.788e-03 6.110e-04 1.676e-03 4.094e-04 1.656e-03 6.101e-04 1.660e-03 1.676e-03 6.089e-04 1.768e-03 1.658e-03 4.519e-04 1.655e-03 2.858e-04 1.739e-03 3.118e-04 1.668e-03 1.422e-04 1.774e-03 1.569e-04 1.630e-03 1.770e-03 1.692e-04 1.659e-03 1.578e-03 1.767e-03 1.699e-03 1.415e-04 1.444e-03 1.468e-03 1.396e-03 1.292e-03 1.462e-03 1.228e-03 1.288e-03 1.144e-03 1.064e-03 1.060e-03 1.692e-03 1.685e-03 1.403e-04 9.279e-04 7.913e-04 7.970e-04 7.528e-04 6.419e-04 5.379e-04 6.228e-04 5.448e-04 3.756e-04 2.839e-04 1.738e-03 1.794e-03 1.494e-04 2.657e-04 2.000e-04 1.162e-04 6.127e-05 1.766e-03 1.471e-03 1.746e-03 1.788e-03 7.145e-04 1.788e-03 1.339e-03 1.648e-03 1.655e-03 1.102e-03 1.654e-03 1.793e-02 1.735e-02 1.680e-02 1.630e-02 1.582e-02 1.539e-02 1.499e-02 1.462e-02 1.430e-02 1.404e-02 1.384e-02 1.367e-02 1.351e-02 1.337e-02 1.324e-02 1.313e-02 1.303e-02 1.294e-02 1.287e-02 1.280e-02 1.276e-02 1.272e-02 1.270e-02 4.229e-03
           </DataArray>
           <DataArray type="Float32" Name="phosphorus/rootSegmentNutrientUptake" NumberOfComponents="1" format="ascii">