<?xml version="1.0"?>
<VTKFile type="UnstructuredGrid" version="0.1" byte_order="LittleEndian">
   <UnstructuredGrid>
      <Piece NumberOfPoints="210" NumberOfCells="19">
         <Points>
            <DataArray type="Float32" Name="Position" NumberOfComponents="3" format="ascii">
-0.145	-4.995	0.140
-0.035	-4.997	0.199
0.088	-5.000	0.182
0.178	-5.003	0.095
0.200	-5.005	-0.028
0.145	-5.005	-0.140
0.035	-5.003	-0.199
-0.088	-5.000	-0.182
-0.178	-4.997	-0.095
-0.200	-4.995	0.028
-0.127	-4.248	0.131
-0.017	-4.248	0.189
0.106	-4.250	0.170
0.195	-4.251	0.083
0.216	-4.253	-0.040
0.160	-4.253	-0.151
0.050	-4.252	-0.209
-0.073	-4.251	-0.190
-0.162	-4.249	-0.103
-0.183	-4.248	0.020
-0.127	-3.560	0.130
-0.016	-3.559	0.186
0.107	-3.559	0.167
0.195	-3.559	0.079
0.214	-3.560	-0.044
0.158	-3.561	-0.154
0.047	-3.561	-0.211
-0.075	-3.562	-0.192
-0.163	-3.561	-0.104
-0.183	-3.561	0.019
-0.130	-2.701	0.123
-0.020	-2.700	0.179
0.103	-2.699	0.160
0.190	-2.699	0.072
0.210	-2.700	-0.050
0.153	-2.700	-0.161
0.043	-2.701	-0.217
-0.080	-2.702	-0.198
-0.167	-2.702	-0.110
-0.187	-2.701	0.013
-0.134	-1.802	0.123
-0.024	-1.801	0.179
0.099	-1.801	0.159
0.186	-1.800	0.071
0.205	-1.799	-0.052
0.148	-1.799	-0.162
0.037	-1.799	-0.218
-0.085	-1.800	-0.198
-0.172	-1.801	-0.110
-0.191	-1.802	0.013
-0.138	-1.202	0.128
-0.027	-1.202	0.184
0.095	-1.201	0.164
0.182	-1.200	0.076
0.201	-1.199	-0.047
0.144	-1.199	-0.157
0.034	-1.199	-0.213
-0.089	-1.200	-0.193
-0.176	-1.201	-0.105
-0.195	-1.201	0.018
-0.140	-0.301	0.129
-0.030	-0.301	0.185
0.092	-0.301	0.166
0.180	-0.301	0.078
0.199	-0.300	-0.044
0.143	-0.300	-0.154
0.032	-0.300	-0.210
-0.090	-0.300	-0.191
-0.177	-0.300	-0.103
-0.197	-0.300	0.019
-0.138	0.560	0.130
-0.028	0.560	0.186
0.094	0.560	0.167
0.181	0.559	0.080
0.201	0.559	-0.043
0.145	0.559	-0.153
0.035	0.559	-0.209
-0.087	0.560	-0.190
-0.175	0.560	-0.103
-0.194	0.560	0.019
-0.136	1.441	0.126
-0.027	1.441	0.182
0.096	1.440	0.164
0.183	1.439	0.077
0.203	1.439	-0.045
0.148	1.438	-0.156
0.038	1.438	-0.212
-0.084	1.439	-0.194
-0.172	1.440	-0.107
-0.192	1.441	0.015
-0.133	2.001	0.123
-0.023	2.001	0.179
0.099	2.000	0.161
0.187	1.999	0.074
0.207	1.998	-0.048
0.151	1.998	-0.159
0.041	1.998	-0.215
-0.081	1.999	-0.197
-0.169	2.000	-0.110
-0.189	2.001	0.012
0.033	-5.000	-0.033
0.045	-4.996	-0.008
0.041	-4.994	0.021
0.021	-4.994	0.041
-0.007	-4.996	0.045
-0.033	-5.000	0.033
-0.045	-5.004	0.008
-0.041	-5.006	-0.021
-0.021	-5.006	-0.041
0.007	-5.004	-0.045
0.106	-5.700	0.038
0.119	-5.696	0.063
0.114	-5.694	0.091
0.094	-5.693	0.111
0.066	-5.695	0.115
0.041	-5.699	0.102
0.028	-5.703	0.077
0.033	-5.705	0.049
0.053	-5.706	0.030
0.081	-5.704	0.025
0.151	-6.402	0.118
0.163	-6.398	0.143
0.158	-6.395	0.170
0.137	-6.394	0.190
0.110	-6.395	0.194
0.085	-6.399	0.181
0.073	-6.403	0.155
0.078	-6.406	0.128
0.098	-6.407	0.108
0.126	-6.405	0.104
0.203	-7.101	0.210
0.215	-7.096	0.235
0.210	-7.093	0.263
0.189	-7.092	0.282
0.162	-7.094	0.286
0.137	-7.097	0.273
0.125	-7.102	0.248
0.130	-7.105	0.221
0.151	-7.106	0.201
0.178	-7.105	0.197
0.262	-7.798	0.312
0.274	-7.794	0.337
0.269	-7.791	0.364
0.249	-7.790	0.383
0.221	-7.791	0.387
0.196	-7.795	0.374
0.184	-7.799	0.349
0.189	-7.802	0.322
0.210	-7.803	0.302
0.238	-7.801	0.299
0.295	-8.501	0.385
0.307	-8.497	0.410
0.302	-8.494	0.437
0.282	-8.493	0.456
0.254	-8.494	0.460
0.229	-8.497	0.447
0.218	-8.500	0.422
0.223	-8.504	0.394
0.243	-8.505	0.375
0.271	-8.504	0.372
0.341	-9.200	0.486
0.353	-9.195	0.511
0.347	-9.191	0.538
0.326	-9.189	0.557
0.299	-9.190	0.560
0.275	-9.194	0.547
0.263	-9.199	0.522
0.269	-9.203	0.495
0.289	-9.205	0.476
0.317	-9.204	0.473
0.391	-9.895	0.614
0.401	-9.889	0.639
0.395	-9.884	0.665
0.374	-9.881	0.684
0.346	-9.882	0.686
0.323	-9.886	0.672
0.312	-9.892	0.648
0.318	-9.897	0.621
0.339	-9.900	0.603
0.367	-9.899	0.600
0.408	-10.583	0.785
0.419	-10.577	0.810
0.412	-10.570	0.836
0.391	-10.567	0.853
0.363	-10.567	0.855
0.339	-10.570	0.841
0.329	-10.576	0.816
0.335	-10.582	0.790
0.357	-10.586	0.772
0.385	-10.586	0.770
0.412	-11.273	0.940
0.422	-11.268	0.965
0.415	-11.262	0.991
0.393	-11.258	1.008
0.365	-11.257	1.010
0.342	-11.259	0.995
0.332	-11.264	0.970
0.339	-11.270	0.943
0.360	-11.274	0.926
0.388	-11.276	0.925
0.363	-11.965	1.082
0.373	-11.961	1.107
0.366	-11.955	1.133
0.344	-11.950	1.150
0.316	-11.948	1.151
0.293	-11.949	1.136
0.283	-11.954	1.110
0.291	-11.960	1.084
0.312	-11.965	1.067
0.340	-11.967	1.066
		    </DataArray>
         </Points>
         <Cells>
            <DataArray type="Int32" Name="connectivity" NumberOfComponents="1" format="ascii">
 0 10 1 11 2 12 3 13 4 14 5 15 6 16 7 17 8 18 9 19 0 10
 10 20 11 21 12 22 13 23 14 24 15 25 16 26 17 27 18 28 19 29 10 20
 20 30 21 31 22 32 23 33 24 34 25 35 26 36 27 37 28 38 29 39 20 30
 30 40 31 41 32 42 33 43 34 44 35 45 36 46 37 47 38 48 39 49 30 40
 40 50 41 51 42 52 43 53 44 54 45 55 46 56 47 57 48 58 49 59 40 50
 50 60 51 61 52 62 53 63 54 64 55 65 56 66 57 67 58 68 59 69 50 60
 60 70 61 71 62 72 63 73 64 74 65 75 66 76 67 77 68 78 69 79 60 70
 70 80 71 81 72 82 73 83 74 84 75 85 76 86 77 87 78 88 79 89 70 80
 80 90 81 91 82 92 83 93 84 94 85 95 86 96 87 97 88 98 89 99 80 90
 100 110 101 111 102 112 103 113 104 114 105 115 106 116 107 117 108 118 109 119 100 110
 110 120 111 121 112 122 113 123 114 124 115 125 116 126 117 127 118 128 119 129 110 120
 120 130 121 131 122 132 123 133 124 134 125 135 126 136 127 137 128 138 129 139 120 130
 130 140 131 141 132 142 133 143 134 144 135 145 136 146 137 147 138 148 139 149 130 140
 140 150 141 151 142 152 143 153 144 154 145 155 146 156 147 157 148 158 149 159 140 150
 150 160 151 161 152 162 153 163 154 164 155 165 156 166 157 167 158 168 159 169 150 160
 160 170 161 171 162 172 163 173 164 174 165 175 166 176 167 177 168 178 169 179 160 170
 170 180 171 181 172 182 173 183 174 184 175 185 176 186 177 187 178 188 179 189 170 180
 180 190 181 191 182 192 183 193 184 194 185 195 186 196 187 197 188 198 189 199 180 190
 190 200 191 201 192 202 193 203 194 204 195 205 196 206 197 207 198 208 199 209 190 200

            </DataArray>
            <DataArray type="Int32" Name="offsets" NumberOfComponents="1" format="ascii">
 22 44 66 88 110 132 154 176 198 220 242 264 286 308 330 352 374 396 418
            </DataArray>
            <DataArray type="UInt8"  Name="types" NumberOfComponents="1" format="ascii">
6 6 6 6 6 6 6 6 6 6 6 6 6 6 6 6 6 6 6
            </DataArray>
         </Cells>
         <CellData>
           <DataArray type="Float32" Name="combinedRootClassID" NumberOfComponents="1" format="ascii">
 -2.000e+00 -2.000e+00 -2.000e+00 -2.000e+00 -2.000e+00 -2.000e+00 -2.000e+00 -2.000e+00 -2.000e+00 -4.000e+00 -4.000e+00 -4.000e+00 -4.000e+00 -4.000e+00 -4.000e+00 -4.000e+00 -4.000e+00 -4.000e+00 -4.000e+00
           </DataArray>
           <DataArray type="Float32" Name="parentRootClassID" NumberOfComponents="1" format="ascii">
 -3.000e+00 -3.000e+00 -3.000e+00 -3.000e+00 -3.000e+00 -3.000e+00 -3.000e+00 -3.000e+00 -3.000e+00 -3.000e+00 -3.000e+00 -3.000e+00 -3.000e+00 -3.000e+00 -3.000e+00 -3.000e+00 -3.000e+00 -3.000e+00 -3.000e+00
           </DataArray>
           <DataArray type="Float32" Name="phosphorus/Imax" NumberOfComponents="1" format="ascii">
 5.550e-02 5.550e-02 5.550e-02 5.550e-02 5.550e-02 5.550e-02 5.550e-02 5.550e-02 5.550e-02 5.550e-02 5.550e-02 5.550e-02 5.550e-02 5.550e-02 5.550e-02 5.550e-02 5.550e-02 5.550e-02 5.550e-02
           </DataArray>
           <DataArray type="Float32" Name="phosphorus/Km" NumberOfComponents="1" format="ascii">
 5.450e-03 5.450e-03 5.450e-03 5.450e-03 5.450e-03 5.450e-03 5.450e-03 5.450e-03 5.450e-03 5.450e-03 5.450e-03 5.450e-03 5.450e-03 5.450e-03 5.450e-03 5.450e-03 5.450e-03 5.450e-03 5.450e-03
           </DataArray>
           <DataArray type="Float32" Name="phosphorus/minimalNutrientConcentration" NumberOfComponents="1" format="ascii">
 3.000e+01 3.000e+01 3.000e+01 3.000e+01 3.000e+01 3.000e+01 3.000e+01 3.000e+01 3.000e+01 3.000e+01 3.000e+01 3.000e+01 3.000e+01 3.000e+01 3.000e+01 3.000e+01 3.000e+01 3.000e+01 3.000e+01
           </DataArray>
           <DataArray type="Float32" Name="phosphorus/nutrientConcentrationAtTheRootSurface" NumberOfComponents="1" format="ascii">
 1.000e-03 1.000e-03 1.000e-03 1.000e-03 1.000e-03 1.000e-03 1.000e-03 0.000e+00 0.000e+00 1.000e-03 1.000e-03 1.000e-03 1.000e-03 1.000e-03 1.000e-03 1.000e-03 1.000e-03 1.000e-03 1.000e-03
           </DataArray>
           <DataArray type="Float32" Name="phosphorus/optimalNutrientConcentration" NumberOfComponents="1" format="ascii">
 6.000e+01 6.000e+01 6.000e+01 6.000e+01 6.000e+01 6.000e+01 6.000e+01 6.000e+01 6.000e+01 6.000e+01 6.000e+01 6.000e+01 6.000e+01 6.000e+01 6.000e+01 6.000e+01 6.000e+01 6.000e+01 6.000e+01
           </DataArray>
           <DataArray type="Float32" Name="phosphorus/radiusDepletionZone" NumberOfComponents="1" format="ascii">
 2.517e-01 2.512e-01 2.409e-01 2.406e-01 2.304e-01 2.303e-01 2.302e-01 2.000e-01 2.000e-01 9.598e-02 8.578e-02 8.560e-02 8.545e-02 7.532e-02 7.521e-02 7.512e-02 6.506e-02 6.502e-02 5.500e-02
           </DataArray>
           <DataArray type="Float32" Name="phosphorus/rootSegmentMinimalNutrientContent" NumberOfComponents="1" format="ascii">
 2.710e-01 2.479e-01 3.080e-01 3.215e-01 2.138e-01 3.203e-01 3.056e-01 3.123e-01 1.985e-01 1.333e-02 1.320e-02 1.309e-02 1.300e-02 1.291e-02 1.284e-02 1.279e-02 1.274e-02 1.271e-02 1.269e-02
           </DataArray>
           <DataArray type="Float32" Name="phosphorus/rootSegmentNutrientUptake" NumberOfComponents="1" format="ascii">
 5.438e-03 4.732e-03 5.376e-03 5.056e-03 3.119e-03 3.987e-03 3.147e-03 0.000e+00 0.000e+00 1.416e-03 1.306e-03 1.191e-03 1.072e-03 9.478e-04 8.168e-04 6.774e-04 5.268e-04 3.603e-04 1.673e-04
           </DataArray>
           <DataArray type="Float32" Name="phosphorus/rootSegmentOptimalNutrientContent" NumberOfComponents="1" format="ascii">
 5.421e-01 4.957e-01 6.160e-01 6.429e-01 4.276e-01 6.406e-01 6.111e-01 6.246e-01 3.970e-01 2.666e-02 2.641e-02 2.619e-02 2.600e-02 2.583e-02 2.569e-02 2.557e-02 2.549e-02 2.542e-02 2.538e-02
           </DataArray>
           <DataArray type="Float32" Name="plantID" NumberOfComponents="1" format="ascii">
 4.000e+00 4.000e+00 4.000e+00 4.000e+00 4.000e+00 4.000e+00 4.000e+00 4.000e+00 4.000e+00 4.000e+00 4.000e+00 4.000e+00 4.000e+00 4.000e+00 4.000e+00 4.000e+00 4.000e+00 4.000e+00 4.000e+00
           </DataArray>
           <DataArray type="Float32" Name="plantTypeID" NumberOfComponents="1" format="ascii">
 0.000e+00 0.000e+00 0.000e+00 0.000e+00 0.000e+00 0.000e+00 0.000e+00 0.000e+00 0.000e+00 0.000e+00 0.000e+00 0.000e+00 0.000e+00 0.000e+00 0.000e+00 0.000e+00 0.000e+00 0.000e+00 0.000e+00
           </DataArray>
           <DataArray type="Float32" Name="rootCircumference" NumberOfComponents="1" format="ascii">
 1.269e+00 1.265e+00 1.263e+00 1.262e+00 1.260e+00 1.259e+00 1.258e+00 1.258e+00 1.257e+00 2.898e-01 2.885e-01 2.873e-01 2.862e-01 2.853e-01 2.845e-01 2.839e-01 2.834e-01 2.830e-01 2.828e-01
           </DataArray>
           <DataArray type="Float32" Name="rootClassID" NumberOfComponents="1" format="ascii">
 -2.000e+00 -2.000e+00 -2.000e+00 -2.000e+00 -2.000e+00 -2.000e+00 -2.000e+00 -2.000e+00 -2.000e+00 -4.000e+00 -4.000e+00 -4.000e+00 -4.000e+00 -4.000e+00 -4.000e+00 -4.000e+00 -4.000e+00 -4.000e+00 -4.000e+00
           </DataArray>
           <DataArray type="Float32" Name="rootDiameter" NumberOfComponents="1" format="ascii">
 4.039e-01 4.027e-01 4.021e-01 4.016e-01 4.011e-01 4.009e-01 4.005e-01 4.003e-01 4.001e-01 9.225e-02 9.182e-02 9.144e-02 9.110e-02 9.081e-02 9.056e-02 9.036e-02 9.020e-02 9.009e-02 9.002e-02
           </DataArray>
           <DataArray type="Float32" Name="rootLength2Base" NumberOfComponents="1" format="ascii">
 0.000e+00 7.500e-01 1.440e+00 2.300e+00 3.200e+00 3.800e+00 4.700e+00 5.560e+00 6.440e+00 0.000e+00 7.071e-01 1.414e+00 2.121e+00 2.828e+00 3.535e+00 4.243e+00 4.950e+00 5.657e+00 6.364e+00
           </DataArray>
           <DataArray type="Float32" Name="rootPotentialSecondaryGrowth" NumberOfComponents="1" format="ascii">
 4.039e-01 4.027e-01 4.021e-01 4.016e-01 4.011e-01 4.009e-01 4.005e-01 4.003e-01 4.001e-01 9.225e-02 9.182e-02 9.144e-02 9.110e-02 9.081e-02 9.056e-02 9.036e-02 9.020e-02 9.009e-02 9.002e-02
           </DataArray>
           <DataArray type="Float32" Name="rootSegmentAge" NumberOfComponents="1" format="ascii">
 3.000e+00 2.500e+00 2.200e+00 1.900e+00 1.600e+00 1.400e+00 1.100e+00 8.000e-01 4.000e-01 3.000e+00 2.700e+00 2.400e+00 2.100e+00 1.800e+00 1.500e+00 1.200e+00 9.000e-01 6.000e-01 3.000e-01
           </DataArray>
           <DataArray type="Float32" Name="rootSegmentDryWeight" NumberOfComponents="1" format="ascii">
 9.035e-03 8.262e-03 1.027e-02 1.072e-02 7.127e-03 1.068e-02 1.019e-02 1.041e-02 6.617e-03 4.443e-04 4.401e-04 4.365e-04 4.333e-04 4.305e-04 4.281e-04 4.262e-04 4.248e-04 4.237e-04 4.231e-04
           </DataArray>
           <DataArray type="Float32" Name="rootSegmentLength" NumberOfComponents="1" format="ascii">
 7.500e-01 6.900e-01 8.600e-01 9.000e-01 6.000e-01 9.000e-01 8.600e-01 8.800e-01 5.600e-01 7.071e-01 7.071e-01 7.071e-01 7.071e-01 7.071e-01 7.071e-01 7.071e-01 7.071e-01 7.071e-01 7.071e-01
           </DataArray>
           <DataArray type="Float32" Name="rootSegmentLengthDuration" NumberOfComponents="1" format="ascii">
 2.045e+00 1.621e+00 1.765e+00 1.580e+00 9.000e-01 1.130e+00 8.247e-01 5.387e-01 1.227e-01 2.019e+00 1.807e+00 1.595e+00 1.383e+00 1.171e+00 9.585e-01 7.464e-01 5.343e-01 3.221e-01 1.139e-01
           </DataArray>
           <DataArray type="Float32" Name="rootSegmentSurfaceArea" NumberOfComponents="1" format="ascii">
 9.518e-01 8.730e-01 1.086e+00 1.135e+00 7.561e-01 1.133e+00 1.082e+00 1.107e+00 7.038e-01 2.049e-01 2.040e-01 2.031e-01 2.024e-01 2.017e-01 2.012e-01 2.007e-01 2.004e-01 2.001e-01 2.000e-01
           </DataArray>
           <DataArray type="Float32" Name="rootSegmentVolume" NumberOfComponents="1" format="ascii">
 9.611e-02 8.790e-02 1.092e-01 1.140e-01 7.582e-02 1.136e-01 1.084e-01 1.107e-01 7.040e-02 4.726e-03 4.682e-03 4.643e-03 4.609e-03 4.580e-03 4.555e-03 4.534e-03 4.519e-03 4.507e-03 4.501e-03
           </DataArray>
           <DataArray type="Float32" Name="spatialRootDensity" NumberOfComponents="1" format="ascii">
 3.376e-01 1.688e-01 0.000e+00 0.000e+00 0.000e+00 0.000e+00 0.000e+00 0.000e+00 0.000e+00 3.438e-01 1.790e-01 0.000e+00 0.000e+00 0.000e+00 0.000e+00 0.000e+00 0.000e+00 0.000e+00 0.000e+00
           </DataArray>
         </CellData>
      </Piece>
   </UnstructuredGrid>
</VTKFile>
