<?xml version="1.0"?>
<VTKFile type="UnstructuredGrid" version="0.1" byte_order="LittleEndian">
   <UnstructuredGrid>
      <Piece NumberOfPoints="22180" NumberOfCells="1560">
         <Points>
            <DataArray type="Float32" Name="Position" NumberOfComponents="3" format="ascii">
0.140	-5.031	-0.076
0.139	-5.022	-0.073
0.134	-5.016	-0.067
0.128	-5.016	-0.061
0.122	-5.021	-0.056
0.118	-5.030	-0.055
0.119	-5.038	-0.058
0.124	-5.044	-0.064
0.130	-5.044	-0.070
0.137	-5.039	-0.075
0.717	-5.179	0.527
0.716	-5.170	0.531
0.712	-5.165	0.537
0.705	-5.165	0.544
0.699	-5.171	0.548
0.696	-5.179	0.549
0.696	-5.188	0.545
0.701	-5.193	0.539
0.707	-5.193	0.532
0.713	-5.188	0.528
1.310	-5.415	1.056
1.309	-5.407	1.060
1.305	-5.402	1.067
1.298	-5.403	1.074
1.293	-5.409	1.079
1.290	-5.418	1.079
1.291	-5.426	1.075
1.296	-5.431	1.068
1.302	-5.430	1.061
1.307	-5.424	1.056
1.657	-5.482	1.322
1.655	-5.474	1.326
1.651	-5.470	1.333
1.645	-5.471	1.340
1.640	-5.478	1.345
1.638	-5.487	1.345
1.640	-5.495	1.341
1.644	-5.499	1.334
1.650	-5.498	1.327
1.655	-5.491	1.322
0.242	-5.081	-0.122
0.250	-5.077	-0.124
0.260	-5.078	-0.124
0.266	-5.085	-0.125
0.268	-5.094	-0.124
0.264	-5.102	-0.123
0.256	-5.106	-0.122
0.247	-5.105	-0.122
0.240	-5.099	-0.121
0.238	-5.090	-0.122
0.162	-5.129	-0.973
0.170	-5.125	-0.975
0.179	-5.126	-0.975
0.186	-5.133	-0.975
0.187	-5.142	-0.974
0.183	-5.150	-0.973
0.175	-5.154	-0.972
0.166	-5.153	-0.971
0.159	-5.146	-0.971
0.158	-5.137	-0.972
0.061	-5.272	-1.816
0.070	-5.268	-1.818
0.079	-5.270	-1.818
0.085	-5.276	-1.818
0.086	-5.285	-1.817
0.082	-5.293	-1.815
0.074	-5.297	-1.814
0.065	-5.296	-1.813
0.058	-5.289	-1.814
0.057	-5.280	-1.815
0.059	-5.312	-1.976
0.059	-5.304	-1.972
0.059	-5.295	-1.973
0.059	-5.288	-1.980
0.059	-5.287	-1.989
0.059	-5.291	-1.997
0.059	-5.299	-2.001
0.059	-5.308	-2.000
0.059	-5.315	-1.993
0.059	-5.316	-1.984
1.232	-5.873	-0.570
1.241	-5.871	-0.572
1.250	-5.874	-0.572
1.255	-5.881	-0.571
1.256	-5.890	-0.568
1.251	-5.897	-0.565
1.242	-5.899	-0.562
1.233	-5.896	-0.562
1.227	-5.889	-0.564
1.227	-5.880	-0.566
1.108	-6.145	-1.368
1.116	-6.142	-1.371
1.125	-6.143	-1.373
1.131	-6.150	-1.372
1.133	-6.159	-1.370
1.129	-6.167	-1.367
1.121	-6.170	-1.364
1.112	-6.168	-1.362
1.105	-6.162	-1.363
1.104	-6.153	-1.365
0.823	-6.322	-2.187
0.831	-6.318	-2.189
0.840	-6.320	-2.191
0.846	-6.327	-2.190
0.847	-6.336	-2.188
0.843	-6.344	-2.186
0.835	-6.347	-2.183
0.826	-6.345	-2.182
0.820	-6.339	-2.182
0.818	-6.330	-2.184
0.797	-6.441	-2.612
0.805	-6.438	-2.614
0.814	-6.441	-2.613
0.820	-6.448	-2.612
0.820	-6.457	-2.609
0.814	-6.464	-2.607
0.806	-6.467	-2.606
0.797	-6.464	-2.606
0.791	-6.457	-2.607
0.791	-6.448	-2.610
1.338	-5.982	-0.614
1.341	-5.978	-0.606
1.343	-5.980	-0.597
1.343	-5.987	-0.591
1.342	-5.996	-0.589
1.340	-6.004	-0.594
1.338	-6.008	-0.602
1.336	-6.006	-0.611
1.335	-5.999	-0.617
1.336	-5.990	-0.618
2.187	-6.098	-0.825
2.189	-6.094	-0.817
2.190	-6.095	-0.808
2.190	-6.102	-0.801
2.189	-6.111	-0.799
2.186	-6.119	-0.803
2.184	-6.123	-0.811
2.183	-6.122	-0.820
2.184	-6.115	-0.827
2.185	-6.106	-0.829
2.866	-6.266	-0.844
2.874	-6.262	-0.844
2.883	-6.263	-0.844
2.890	-6.270	-0.844
2.891	-6.279	-0.844
2.887	-6.287	-0.844
2.878	-6.291	-0.844
2.869	-6.290	-0.844
2.863	-6.283	-0.844
2.861	-6.274	-0.844
1.425	-6.092	-0.637
1.433	-6.087	-0.640
1.442	-6.088	-0.643
1.449	-6.094	-0.643
1.451	-6.103	-0.642
1.448	-6.111	-0.640
1.440	-6.116	-0.637
1.431	-6.115	-0.635
1.424	-6.109	-0.634
1.422	-6.100	-0.635
1.202	-6.237	-1.432
1.208	-6.231	-1.436
1.216	-6.231	-1.440
1.223	-6.236	-1.443
1.227	-6.244	-1.443
1.226	-6.253	-1.441
1.220	-6.259	-1.437
1.212	-6.259	-1.433
1.204	-6.255	-1.430
1.201	-6.246	-1.430
0.692	-6.380	-2.132
0.697	-6.376	-2.138
0.704	-6.378	-2.144
0.710	-6.384	-2.147
0.713	-6.393	-2.146
0.711	-6.401	-2.141
0.705	-6.405	-2.135
0.698	-6.403	-2.129
0.692	-6.397	-2.126
0.690	-6.388	-2.127
0.473	-6.505	-2.339
0.472	-6.496	-2.343
0.476	-6.491	-2.350
0.483	-6.491	-2.356
0.489	-6.495	-2.360
0.494	-6.504	-2.361
0.494	-6.512	-2.357
0.490	-6.517	-2.350
0.484	-6.518	-2.343
0.477	-6.513	-2.339
1.531	-6.199	-0.681
1.534	-6.196	-0.673
1.538	-6.198	-0.665
1.540	-6.205	-0.660
1.539	-6.215	-0.659
1.537	-6.222	-0.663
1.533	-6.226	-0.671
1.529	-6.223	-0.680
1.528	-6.216	-0.685
1.528	-6.207	-0.686
2.326	-6.260	-1.028
2.330	-6.257	-1.020
2.333	-6.259	-1.012
2.335	-6.266	-1.006
2.334	-6.276	-1.006
2.332	-6.283	-1.010
2.329	-6.287	-1.018
2.325	-6.284	-1.026
2.324	-6.277	-1.032
2.324	-6.268	-1.032
3.173	-6.302	-1.357
3.177	-6.299	-1.349
3.180	-6.301	-1.340
3.181	-6.308	-1.335
3.181	-6.317	-1.334
3.178	-6.325	-1.338
3.175	-6.328	-1.346
3.172	-6.326	-1.355
3.170	-6.319	-1.360
3.171	-6.310	-1.361
3.366	-6.335	-1.434
3.370	-6.332	-1.426
3.373	-6.334	-1.418
3.374	-6.341	-1.412
3.373	-6.350	-1.411
3.370	-6.358	-1.415
3.366	-6.361	-1.423
3.363	-6.359	-1.431
3.362	-6.352	-1.437
3.363	-6.343	-1.438
1.623	-6.312	-0.714
1.627	-6.309	-0.707
1.631	-6.312	-0.699
1.633	-6.319	-0.693
1.632	-6.328	-0.693
1.629	-6.336	-0.697
1.625	-6.339	-0.705
1.621	-6.336	-0.713
1.619	-6.329	-0.718
1.619	-6.320	-0.719
2.373	-6.388	-1.120
2.379	-6.385	-1.113
2.384	-6.388	-1.106
2.387	-6.395	-1.102
2.386	-6.405	-1.101
2.382	-6.412	-1.104
2.376	-6.415	-1.111
2.371	-6.412	-1.118
2.368	-6.404	-1.123
2.369	-6.395	-1.124
2.921	-6.530	-1.764
2.928	-6.527	-1.758
2.934	-6.530	-1.752
2.938	-6.538	-1.748
2.936	-6.547	-1.747
2.931	-6.554	-1.750
2.924	-6.557	-1.755
2.918	-6.554	-1.761
2.915	-6.546	-1.766
2.916	-6.537	-1.767
1.728	-6.448	-0.740
1.729	-6.445	-0.731
1.725	-6.439	-0.725
1.718	-6.433	-0.725
1.711	-6.429	-0.729
1.706	-6.429	-0.737
1.706	-6.432	-0.746
1.710	-6.438	-0.751
1.717	-6.444	-0.752
1.724	-6.448	-0.748
1.216	-7.064	-0.457
1.216	-7.061	-0.448
1.212	-7.055	-0.442
1.205	-7.050	-0.441
1.198	-7.046	-0.445
1.193	-7.046	-0.452
1.192	-7.049	-0.461
1.196	-7.054	-0.467
1.203	-7.060	-0.469
1.211	-7.064	-0.465
0.940	-7.513	-0.284
0.941	-7.510	-0.276
0.937	-7.505	-0.269
0.930	-7.500	-0.267
0.922	-7.496	-0.270
0.917	-7.496	-0.278
0.916	-7.499	-0.287
0.920	-7.504	-0.293
0.927	-7.509	-0.295
0.935	-7.513	-0.292
1.819	-6.559	-0.776
1.822	-6.558	-0.767
1.818	-6.556	-0.759
1.811	-6.553	-0.754
1.802	-6.550	-0.755
1.795	-6.550	-0.761
1.793	-6.551	-0.770
1.796	-6.554	-0.778
1.803	-6.557	-0.783
1.812	-6.559	-0.782
1.602	-7.384	-0.604
1.605	-7.382	-0.596
1.602	-7.380	-0.587
1.595	-7.378	-0.582
1.586	-7.377	-0.582
1.578	-7.377	-0.587
1.575	-7.379	-0.596
1.578	-7.381	-0.604
1.585	-7.383	-0.609
1.594	-7.384	-0.610
1.667	-8.209	-0.382
1.670	-8.206	-0.374
1.668	-8.202	-0.366
1.661	-8.201	-0.361
1.652	-8.201	-0.360
1.644	-8.204	-0.364
1.641	-8.208	-0.372
1.643	-8.211	-0.380
1.650	-8.213	-0.386
1.660	-8.212	-0.387
1.674	-8.260	-0.350
1.677	-8.255	-0.343
1.674	-8.251	-0.335
1.667	-8.248	-0.330
1.658	-8.249	-0.329
1.650	-8.253	-0.333
1.647	-8.258	-0.341
1.650	-8.262	-0.348
1.657	-8.264	-0.353
1.666	-8.264	-0.354
1.894	-6.661	-0.805
1.896	-6.657	-0.797
1.899	-6.660	-0.789
1.900	-6.667	-0.783
1.900	-6.676	-0.782
1.898	-6.684	-0.787
1.896	-6.687	-0.795
1.893	-6.685	-0.804
1.892	-6.678	-0.809
1.892	-6.669	-0.810
2.710	-6.698	-1.054
2.712	-6.694	-1.046
2.714	-6.696	-1.037
2.715	-6.703	-1.031
2.715	-6.712	-1.030
2.713	-6.720	-1.035
2.711	-6.724	-1.043
2.709	-6.722	-1.052
2.708	-6.715	-1.058
2.709	-6.706	-1.059
3.375	-6.768	-1.118
3.383	-6.768	-1.113
3.392	-6.768	-1.115
3.399	-6.768	-1.121
3.400	-6.768	-1.131
3.396	-6.768	-1.139
3.387	-6.768	-1.143
3.378	-6.768	-1.142
3.372	-6.768	-1.135
3.370	-6.768	-1.126
1.996	-6.799	-0.827
1.996	-6.798	-0.817
1.992	-6.794	-0.810
1.985	-6.790	-0.807
1.977	-6.786	-0.810
1.971	-6.784	-0.817
1.971	-6.785	-0.826
1.975	-6.788	-0.834
1.982	-6.793	-0.837
1.990	-6.797	-0.834
1.594	-7.533	-0.718
1.596	-7.532	-0.709
1.592	-7.529	-0.701
1.585	-7.525	-0.697
1.576	-7.522	-0.699
1.570	-7.521	-0.705
1.568	-7.522	-0.714
1.572	-7.525	-0.722
1.579	-7.529	-0.726
1.588	-7.532	-0.724
1.445	-8.099	-0.590
1.447	-8.098	-0.582
1.444	-8.095	-0.573
1.436	-8.092	-0.569
1.427	-8.090	-0.570
1.420	-8.089	-0.576
1.418	-8.091	-0.585
1.421	-8.093	-0.593
1.429	-8.096	-0.597
1.438	-8.098	-0.597
2.068	-6.903	-0.856
2.069	-6.899	-0.848
2.069	-6.900	-0.839
2.069	-6.907	-0.832
2.069	-6.916	-0.830
2.067	-6.924	-0.834
2.066	-6.928	-0.843
2.066	-6.927	-0.852
2.066	-6.920	-0.858
2.067	-6.911	-0.860
2.947	-6.992	-0.930
2.949	-6.988	-0.922
2.949	-6.989	-0.913
2.948	-6.995	-0.906
2.946	-7.004	-0.904
2.944	-7.012	-0.908
2.943	-7.017	-0.916
2.943	-7.016	-0.925
2.944	-7.010	-0.932
2.945	-7.001	-0.934
3.657	-7.237	-0.954
3.659	-7.232	-0.946
3.659	-7.233	-0.937
3.658	-7.238	-0.930
3.655	-7.247	-0.927
3.652	-7.255	-0.930
3.650	-7.259	-0.938
3.650	-7.259	-0.947
3.651	-7.253	-0.955
3.654	-7.245	-0.957
0.365	-5.149	-0.174
0.373	-5.145	-0.177
0.382	-5.146	-0.180
0.389	-5.152	-0.181
0.391	-5.161	-0.179
0.387	-5.169	-0.176
0.380	-5.174	-0.173
0.371	-5.172	-0.170
0.364	-5.166	-0.170
0.362	-5.157	-0.171
0.124	-5.335	-0.968
0.130	-5.330	-0.973
0.139	-5.331	-0.976
0.146	-5.337	-0.977
0.149	-5.346	-0.976
0.146	-5.354	-0.972
0.139	-5.359	-0.968
0.131	-5.358	-0.964
0.124	-5.352	-0.963
0.121	-5.343	-0.965
-0.163	-5.542	-1.499
-0.157	-5.537	-1.504
-0.149	-5.537	-1.508
-0.142	-5.543	-1.510
-0.138	-5.551	-1.509
-0.140	-5.559	-1.505
-0.146	-5.564	-1.500
-0.154	-5.564	-1.495
-0.161	-5.558	-1.494
-0.165	-5.550	-1.495
2.144	-7.024	-0.873
2.153	-7.024	-0.876
2.161	-7.028	-0.875
2.165	-7.036	-0.871
2.164	-7.043	-0.867
2.157	-7.049	-0.862
2.148	-7.049	-0.860
2.140	-7.045	-0.861
2.136	-7.037	-0.864
2.137	-7.029	-0.869
1.984	-7.439	-1.600
1.993	-7.438	-1.602
2.001	-7.442	-1.602
2.005	-7.449	-1.599
2.004	-7.457	-1.594
1.998	-7.463	-1.590
1.989	-7.464	-1.588
1.981	-7.460	-1.588
1.976	-7.452	-1.592
1.977	-7.444	-1.596
1.852	-7.820	-2.370
1.861	-7.819	-2.372
1.869	-7.823	-2.371
1.874	-7.831	-2.368
1.873	-7.839	-2.364
1.867	-7.845	-2.360
1.858	-7.846	-2.358
1.850	-7.842	-2.359
1.845	-7.834	-2.362
1.846	-7.826	-2.366
2.240	-7.169	-0.895
2.242	-7.160	-0.892
2.239	-7.153	-0.888
2.232	-7.149	-0.884
2.223	-7.151	-0.882
2.216	-7.157	-0.882
[...]
         <CellData>
           <DataArray type="Float32" Name="combinedRootClassID" NumberOfComponents="1" format="ascii">
 -1.300e+01 -1.300e+01 -1.300e+01 -1.300e+01 -1.300e+01 -1.300e+01 -1.300e+01 -1.300e+01 -1.300e+01 -1.300e+01 -1.300e+01 -1.300e+01 -1.300e+01 -1.300e+01 -1.300e+01 -1.300e+01 -1.300e+01 -1.300e+01 -1.300e+01 -1.300e+01 -1.300e+01 -1.300e+01 -1.300e+01 -1.300e+01 -1.300e+01 -1.300e+01 -1.300e+01 -1.300e+01 -1.300e+01 -1.300e+01 -1.300e+01 -1.300e+01 -1.300e+01 -1.300e+01 -1.300e+01 -1.300e+01 -1.300e+01 -1.300e+01 -1.300e+01 -1.300e+01 -1.300e+01 -1.300e+01 -1.300e+01 -1.300e+01 -1.300e+01 -1.300e+01 -1.300e+01 -1.300e+01 -1.300e+01 -1.300e+01 -1.300e+01 -1.300e+01 -1.300e+01 -1.300e+01 -1.300e+01 -1.300e+01 -1.300e+01 -1.300e+01 -1.300e+01 -1.300e+01 -1.300e+01 -1.300e+01 -1.300e+01 -1.300e+01 -1.300e+01 -1.300e+01 -1.300e+01 -1.300e+01 -1.300e+01 -1.300e+01 -1.300e+01 -1.300e+01 -1.300e+01 -1.300e+01 -1.300e+01 -1.300e+01 -1.300e+01 -1.300e+01 -1.300e+01 -1.300e+01 -1.300e+01 -1.300e+01 -1.300e+01 -1.300e+01 -1.300e+01 -1.300e+01 -1.300e+01 -1.300e+01 -1.300e+01 -1.300e+01 -1.300e+01 -1.300e+01 -1.300e+01 -1.300e+01 -1.300e+01 -1.300e+01 -1.300e+01 -1.300e+01 -1.300e+01 -1.300e+01 -1.300e+01 -1.300e+01 -1.300e+01 -1.300e+01 -1.300e+01 -1.300e+01 -1.300e+01 -1.300e+01 -1.300e+01 -1.300e+01 -1.300e+01 -1.300e+01 -1.300e+01 -1.300e+01 -1.300e+01 -1.300e+01 -1.300e+01 -1.300e+01 -1.300e+01 -1.300e+01 -1.300e+01 -1.300e+01 -1.300e+01 -1.300e+01 -1.300e+01 -1.300e+01 -1.300e+01 -1.300e+01 -1.300e+01 -1.300e+01 -1.300e+01 -1.300e+01 -1.300e+01 -1.300e+01 -1.300e+01 -1.300e+01 -1.300e+01 -1.300e+01 -1.300e+01 -1.300e+01 -1.300e+01 -1.300e+01 -1.300e+01 -1.300e+01 -1.300e+01 -1.300e+01 -1.300e+01 -1.300e+01 -1.300e+01 -1.300e+01 -1.300e+01 -1.300e+01 -1.300e+01 -1.300e+01 -5.000e+00 -5.000e+00 -5.000e+00 -5.000e+00 -5.000e+00 -5.000e+00 -5.000e+00 -5.000e+00 -5.000e+00 -5.000e+00 -5.000e+00 -5.000e+00 -5.000e+00 -5.000e+00 -5.000e+00 -5.000e+00 -5.000e+00 -5.000e+00 -5.000e+00 -5.000e+00 -5.000e+00 -5.000e+00 -5.000e+00 -5.000e+00 -5.000e+00 -5.000e+00 -5.000e+00 -5.000e+00 -1.300e+01 -1.300e+01 -1.300e+01 -1.300e+01 -1.300e+01 -1.300e+01 -1.300e+01 -1.300e+01 -1.300e+01 -1.300e+01 -1.300e+01 -1.300e+01 -1.300e+01 -1.300e+01 -1.300e+01 -1.300e+01 -1.300e+01 -1.300e+01 -1.300e+01 -1.300e+01 -1.300e+01 -1.300e+01 -1.300e+01 -1.300e+01 -1.300e+01 -1.300e+01 -1.300e+01 -1.300e+01 -1.300e+01 -1.300e+01 -1.300e+01 -1.300e+01 -1.300e+01 -1.300e+01 -1.300e+01 -1.300e+01 -1.300e+01 -1.300e+01 -1.300e+01 -1.300e+01 -1.300e+01 -1.300e+01 -1.300e+01 -1.300e+01 -1.300e+01 -1.300e+01 -1.300e+01 -1.300e+01 -1.300e+01 -1.300e+01 -1.300e+01 -1.300e+01 -1.300e+01 -1.300e+01 -1.300e+01 -1.300e+01 -1.300e+01 -1.300e+01 -1.300e+01 -1.300e+01 -1.300e+01 -1.300e+01 -1.300e+01 -1.300e+01 -1.300e+01 -1.300e+01 -1.300e+01 -1.300e+01 -1.300e+01 -1.300e+01 -1.300e+01 -1.300e+01 -1.300e+01 -1.300e+01 -1.300e+01 -1.300e+01 -1.300e+01 -1.300e+01 -1.300e+01 -1.300e+01 -1.300e+01 -1.300e+01 -1.300e+01 -1.300e+01 -1.300e+01 -1.300e+01 -1.300e+01 -1.300e+01 -1.300e+01 -1.300e+01 -1.300e+01 -1.300e+01 -1.300e+01 -1.300e+01 -1.300e+01 -1.300e+01 -1.300e+01 -1.300e+01 -1.300e+01 -1.300e+01 -1.300e+01 -1.300e+01 -1.300e+01 -1.300e+01 -1.300e+01 -1.300e+01 -1.300e+01 -1.300e+01 -1.300e+01 -1.300e+01 -1.300e+01 -1.300e+01 -1.300e+01 -1.300e+01 -1.300e+01 -1.300e+01 -1.300e+01 -1.300e+01 -1.300e+01 -1.300e+01 -1.300e+01 -1.300e+01 -1.300e+01 -1.300e+01 -1.300e+01 -1.300e+01 -1.300e+01 -1.300e+01 -1.300e+01 -1.300e+01 -1.300e+01 -1.300e+01 -1.300e+01 -1.300e+01 -1.300e+01 -1.300e+01 -1.300e+01 -1.300e+01 -1.300e+01 -1.300e+01 -1.300e+01 -1.300e+01 -1.300e+01 -1.300e+01 -1.300e+01 -1.300e+01 -1.300e+01 -1.300e+01 -1.300e+01 -5.000e+00 -5.000e+00 -5.000e+00 -5.000e+00 -5.000e+00 -5.000e+00 -5.000e+00 -5.000e+00 -5.000e+00 -5.000e+00 -5.000e+00 -5.000e+00 -5.000e+00 -5.000e+00 -5.000e+00 -5.000e+00 -5.000e+00 -5.000e+00 -5.000e+00 -5.000e+00 -5.000e+00 -5.000e+00 -5.000e+00 -5.000e+00 -5.000e+00 -5.000e+00 -5.000e+00 -5.000e+00 -1.300e+01 -1.300e+01 -1.300e+01 -1.300e+01 -1.300e+01 -1.300e+01 -1.300e+01 -1.300e+01 -1.300e+01 -1.300e+01 -1.300e+01 -1.300e+01 -1.300e+01 -1.300e+01 -1.300e+01 -1.300e+01 -1.300e+01 -1.300e+01 -1.300e+01 -1.300e+01 -1.300e+01 -1.300e+01 -1.300e+01 -1.300e+01 -1.300e+01 -1.300e+01 -1.300e+01 -1.300e+01 -1.300e+01 -1.300e+01 -1.300e+01 -1.300e+01 -1.300e+01 -1.300e+01 -1.300e+01 -1.300e+01 -1.300e+01 -1.300e+01 -1.300e+01 -1.300e+01 -1.300e+01 -1.300e+01 -1.300e+01 -1.300e+01 -1.300e+01 -1.300e+01 -1.300e+01 -1.300e+01 -1.300e+01 -1.300e+01 -1.300e+01 -1.300e+01 -1.300e+01 -1.300e+01 -1.300e+01 -1.300e+01 -1.300e+01 -1.300e+01 -1.300e+01 -1.300e+01 -1.300e+01 -1.300e+01 -1.300e+01 -1.300e+01 -1.300e+01 -1.300e+01 -1.300e+01 -1.300e+01 -1.300e+01 -1.300e+01 -1.300e+01 -1.300e+01 -1.300e+01 -1.300e+01 -1.300e+01 -1.300e+01 -1.300e+01 -1.300e+01 -1.300e+01 -1.300e+01 -1.300e+01 -1.300e+01 -1.300e+01 -1.300e+01 -1.300e+01 -1.300e+01 -1.300e+01 -1.300e+01 -1.300e+01 -1.300e+01 -1.300e+01 -1.300e+01 -1.300e+01 -1.300e+01 -1.300e+01 -1.300e+01 -1.300e+01 -1.300e+01 -1.300e+01 -1.300e+01 -1.300e+01 -1.300e+01 -1.300e+01 -1.300e+01 -1.300e+01 -1.300e+01 -1.300e+01 -1.300e+01 -1.300e+01 -1.300e+01 -1.300e+01 -1.300e+01 -1.300e+01 -1.300e+01 -1.300e+01 -1.300e+01 -1.300e+01 -1.300e+01 -1.300e+01 -1.300e+01 -1.300e+01 -1.300e+01 -1.300e+01 -1.300e+01 -1.300e+01 -1.300e+01 -1.300e+01 -1.300e+01 -1.300e+01 -1.300e+01 -1.300e+01 -1.300e+01 -1.300e+01 -1.300e+01 -1.300e+01 -1.300e+01 -1.300e+01 -1.300e+01 -1.300e+01 -1.300e+01 -1.300e+01 -1.300e+01 -1.300e+01 -1.300e+01 -1.300e+01 -1.300e+01 -1.300e+01 -1.300e+01 -1.300e+01 -1.300e+01 -1.300e+01 -1.300e+01 -1.300e+01 -1.300e+01 -5.000e+00 -5.000e+00 -5.000e+00 -5.000e+00 -5.000e+00 -5.000e+00 -5.000e+00 -5.000e+00 -5.000e+00 -5.000e+00 -5.000e+00 -5.000e+00 -5.000e+00 -5.000e+00 -5.000e+00 -5.000e+00 -5.000e+00 -5.000e+00 -5.000e+00 -5.000e+00 -5.000e+00 -5.000e+00 -5.000e+00 -5.000e+00 -5.000e+00 -5.000e+00 -5.000e+00 -5.000e+00 -1.300e+01 -1.300e+01 -1.300e+01 -1.300e+01 -1.300e+01 -1.300e+01 -1.300e+01 -1.300e+01 -1.300e+01 -1.300e+01 -1.300e+01 -1.300e+01 -1.300e+01 -1.300e+01 -1.300e+01 -1.300e+01 -1.300e+01 -1.300e+01 -1.300e+01 -1.300e+01 -1.300e+01 -1.300e+01 -1.300e+01 -1.300e+01 -1.300e+01 -1.300e+01 -1.300e+01 -1.300e+01 -1.300e+01 -1.300e+01 -1.300e+01 -1.300e+01 -1.300e+01 -1.300e+01 -1.300e+01 -1.300e+01 -1.300e+01 -1.300e+01 -1.300e+01 -1.300e+01 -1.300e+01 -1.300e+01 -1.300e+01 -1.300e+01 -1.300e+01 -1.300e+01 -1.300e+01 -1.300e+01 -1.300e+01 -1.300e+01 -1.300e+01 -1.300e+01 -1.300e+01 -1.300e+01 -1.300e+01 -1.300e+01 -1.300e+01 -1.300e+01 -1.300e+01 -1.300e+01 -1.300e+01 -1.300e+01 -1.300e+01 -1.300e+01 -1.300e+01 -1.300e+01 -1.300e+01 -1.300e+01 -1.300e+01 -1.300e+01 -1.300e+01 -1.300e+01 -1.300e+01 -1.300e+01 -1.300e+01 -1.300e+01 -1.300e+01 -1.300e+01 -1.300e+01 -1.300e+01 -1.300e+01 -1.300e+01 -1.300e+01 -1.300e+01 -1.300e+01 -1.300e+01 -1.300e+01 -1.300e+01 -1.300e+01 -1.300e+01 -1.300e+01 -1.300e+01 -1.300e+01 -1.300e+01 -1.300e+01 -1.300e+01 -1.300e+01 -1.300e+01 -1.300e+01 -1.300e+01 -1.300e+01 -1.300e+01 -1.300e+01 -1.300e+01 -1.300e+01 -1.300e+01 -1.300e+01 -1.300e+01 -1.300e+01 -1.300e+01 -1.300e+01 -1.300e+01 -1.300e+01 -1.300e+01 -1.300e+01 -1.300e+01 -1.300e+01 -1.300e+01 -1.300e+01 -1.300e+01 -1.300e+01 -1.300e+01 -1.300e+01 -1.300e+01 -1.300e+01 -1.300e+01 -1.300e+01 -1.300e+01 -1.300e+01 -1.300e+01 -1.300e+01 -1.300e+01 -1.300e+01 -1.300e+01 -1.300e+01 -1.300e+01 -1.300e+01 -1.300e+01 -1.300e+01 -1.300e+01 -1.300e+01 -1.300e+01 -1.300e+01 -1.300e+01 -1.300e+01 -1.300e+01 -1.300e+01 -1.300e+01 -1.300e+01 -1.300e+01 -1.300e+01 -1.300e+01 -1.300e+01 -1.300e+01 -1.300e+01 -1.300e+01 -1.300e+01 -1.300e+01 -1.300e+01 -5.000e+00 -5.000e+00 -5.000e+00 -5.000e+00 -5.000e+00 -5.000e+00 -5.000e+00 -5.000e+00 -5.000e+00 -5.000e+00 -5.000e+00 -5.000e+00 -5.000e+00 -5.000e+00 -5.000e+00 -5.000e+00 -5.000e+00 -5.000e+00 -5.000e+00 -5.000e+00 -5.000e+00 -5.000e+00 -5.000e+00 -5.000e+00 -5.000e+00 -5.000e+00 -5.000e+00 -5.000e+00 -1.900e+01 -1.900e+01 -1.900e+01 -1.900e+01 -1.900e+01 -1.900e+01 -1.900e+01 -1.900e+01 -1.900e+01 -1.900e+01 -1.900e+01 -1.900e+01 -1.900e+01 -1.900e+01 -1.900e+01 -1.900e+01 -1.900e+01 -1.900e+01 -1.900e+01 -1.900e+01 -1.100e+01 -1.100e+01 -1.100e+01 -1.100e+01 -1.100e+01 -1.100e+01 -1.100e+01 -1.100e+01 -1.100e+01 -1.100e+01 -1.100e+01 -1.100e+01 -1.100e+01 -1.100e+01 -1.100e+01 -1.100e+01 -1.100e+01 -1.900e+01 -1.900e+01 -1.900e+01 -1.900e+01 -1.900e+01 -1.900e+01 -1.900e+01 -1.900e+01 -1.900e+01 -1.900e+01 -1.900e+01 -1.900e+01 -1.900e+01 -1.900e+01 -1.900e+01 -1.900e+01 -1.900e+01 -1.900e+01 -1.900e+01 -1.900e+01 -1.100e+01 -1.100e+01 -1.100e+01 -1.100e+01 -1.100e+01 -1.100e+01 -1.100e+01 -1.100e+01 -1.100e+01 -1.100e+01 -1.100e+01 -1.100e+01 -1.100e+01 -1.100e+01 -1.100e+01 -1.100e+01 -1.100e+01 -1.900e+01 -1.900e+01 -1.900e+01 -1.900e+01 -1.900e+01 -1.900e+01 -1.900e+01 -1.900e+01 -1.900e+01 -1.900e+01 -1.900e+01 -1.900e+01 -1.900e+01 -1.900e+01 -1.900e+01 -1.900e+01 -1.900e+01 -1.900e+01 -1.900e+01 -1.900e+01 -1.100e+01 -1.100e+01 -1.100e+01 -1.100e+01 -1.100e+01 -1.100e+01 -1.100e+01 -1.100e+01 -1.100e+01 -1.100e+01 -1.100e+01 -1.100e+01 -1.100e+01 -1.100e+01 -1.100e+01 -1.100e+01 -1.100e+01 -1.900e+01 -1.900e+01 -1.900e+01 -1.900e+01 -1.900e+01 -1.900e+01 -1.900e+01 -1.900e+01 -1.900e+01 -1.900e+01 -1.900e+01 -1.900e+01 -1.900e+01 -1.900e+01 -1.900e+01 -1.900e+01 -1.900e+01 -1.900e+01 -1.900e+01 -1.900e+01 -1.100e+01 -1.100e+01 -1.100e+01 -1.100e+01 -1.100e+01 -1.100e+01 -1.100e+01 -1.100e+01 -1.100e+01 -1.100e+01 -1.100e+01 -1.100e+01 -1.100e+01 -1.100e+01 -1.100e+01 -1.100e+01 -1.100e+01 -2.000e+01 -2.000e+01 -2.000e+01 -2.000e+01 -2.000e+01 -2.000e+01 -2.000e+01 -2.000e+01 -2.000e+01 -2.000e+01 -2.000e+01 -2.000e+01 -2.000e+01 -2.000e+01 -2.000e+01 -2.000e+01 -2.000e+01 -2.000e+01 -2.000e+00 -2.000e+00 -2.000e+00 -2.000e+00 -2.000e+00 -2.000e+00 -2.000e+00 -2.000e+00 -2.000e+00 -2.000e+00 -1.700e+01 -1.700e+01 -1.700e+01 -7.000e+00 -7.000e+00 -7.000e+00 -7.000e+00 -7.000e+00 -7.000e+00 -7.000e+00 -1.700e+01 -7.000e+00 -7.000e+00 -7.000e+00 -7.000e+00 -7.000e+00 -7.000e+00 -7.000e+00 -7.000e+00 -7.000e+00 -7.000e+00 -7.000e+00 -7.000e+00 -7.000e+00 -7.000e+00 -7.000e+00 -7.000e+00 -7.000e+00 -7.000e+00 -7.000e+00 -7.000e+00 -7.000e+00 -7.000e+00 -7.000e+00 -7.000e+00 -7.000e+00 -7.000e+00 -7.000e+00 -7.000e+00 -7.000e+00 -7.000e+00 -7.000e+00 -7.000e+00 -7.000e+00 -1.700e+01 -7.000e+00 -7.000e+00 -7.000e+00 -7.000e+00 -7.000e+00 -7.000e+00 -7.000e+00 -7.000e+00 -7.000e+00 -7.000e+00 -7.000e+00 -7.000e+00 -7.000e+00 -7.000e+00 -7.000e+00 -7.000e+00 -7.000e+00 -7.000e+00 -7.000e+00 -7.000e+00 -7.000e+00 -7.000e+00 -7.000e+00 -7.000e+00 -7.000e+00 -7.000e+00 -1.700e+01 -1.700e+01 -7.000e+00 -7.000e+00 -7.000e+00 -7.000e+00 -7.000e+00 -7.000e+00 -7.000e+00 -7.000e+00 -7.000e+00 -7.000e+00 -7.000e+00 -7.000e+00 -7.000e+00 -7.000e+00 -7.000e+00 -7.000e+00 -7.000e+00 -7.000e+00 -7.000e+00 -7.000e+00 -7.000e+00 -7.000e+00 -7.000e+00 -7.000e+00 -7.000e+00 -7.000e+00 -7.000e+00 -1.700e+01 -7.000e+00 -7.000e+00 -7.000e+00 -7.000e+00 -7.000e+00 -7.000e+00 -7.000e+00 -7.000e+00 -7.000e+00 -7.000e+00 -7.000e+00 -7.000e+00 -7.000e+00 -7.000e+00 -7.000e+00 -7.000e+00 -7.000e+00 -7.000e+00 -1.700e+01 -7.000e+00 -7.000e+00 -7.000e+00 -7.000e+00 -7.000e+00 -7.000e+00 -7.000e+00 -7.000e+00 -7.000e+00 -7.000e+00 -7.000e+00 -7.000e+00 -7.000e+00 -7.000e+00 -7.000e+00 -7.000e+00 -7.000e+00 -7.000e+00 -7.000e+00 -7.000e+00 -7.000e+00 -7.000e+00 -7.000e+00 -7.000e+00 -7.000e+00 -7.000e+00 -7.000e+00 -7.000e+00 -7.000e+00 -7.000e+00 -1.700e+01 -1.700e+01 -7.000e+00 -7.000e+00 -7.000e+00 -7.000e+00 -7.000e+00 -7.000e+00 -1.700e+01 -7.000e+00 -7.000e+00 -7.000e+00 -7.000e+00 -7.000e+00 -7.000e+00 -1.700e+01 -7.000e+00 -7.000e+00 -7.000e+00 -7.000e+00 -7.000e+00 -7.000e+00 -7.000e+00 -7.000e+00 -7.000e+00 -7.000e+00 -7.000e+00 -1.700e+01 -7.000e+00 -7.000e+00 -7.000e+00 -7.000e+00 -7.000e+00 -7.000e+00 -1.700e+01 -1.700e+01 -7.000e+00 -7.000e+00 -7.000e+00 -7.000e+00 -7.000e+00 -7.000e+00 -1.700e+01 -7.000e+00 -7.000e+00 -7.000e+00 -7.000e+00 -7.000e+00 -7.000e+00 -7.000e+00 -7.000e+00 -7.000e+00 -7.000e+00 -7.000e+00 -7.000e+00 -1.700e+01 -7.000e+00 -7.000e+00 -7.000e+00 -7.000e+00 -7.000e+00 -7.000e+00 -7.000e+00 -7.000e+00 -7.000e+00 -7.000e+00 -7.000e+00 -7.000e+00 -1.700e+01 -1.700e+01 -7.000e+00 -7.000e+00 -7.000e+00 -7.000e+00 -7.000e+00 -7.000e+00 -7.000e+00 -7.000e+00 -7.000e+00 -7.000e+00 -7.000e+00 -7.000e+00 -7.000e+00 -7.000e+00 -7.000e+00 -7.000e+00 -7.000e+00 -7.000e+00 -7.000e+00 -7.000e+00 -7.000e+00 -7.000e+00 -7.000e+00 -7.000e+00 -7.000e+00 -7.000e+00 -7.000e+00 -1.700e+01 -7.000e+00 -7.000e+00 -7.000e+00 -7.000e+00 -7.000e+00 -7.000e+00 -7.000e+00 -7.000e+00 -7.000e+00 -7.000e+00 -7.000e+00 -7.000e+00 -7.000e+00 -7.000e+00 -7.000e+00 -7.000e+00 -7.000e+00 -7.000e+00 -7.000e+00 -7.000e+00 -7.000e+00 -7.000e+00 -7.000e+00 -7.000e+00 -7.000e+00 -7.000e+00 -7.000e+00 -7.000e+00 -7.000e+00 -7.000e+00 -7.000e+00 -7.000e+00 -7.000e+00 -7.000e+00 -7.000e+00 -7.000e+00 -7.000e+00 -7.000e+00 -7.000e+00 -7.000e+00 -7.000e+00 -7.000e+00 -7.000e+00 -7.000e+00 -7.000e+00 -7.000e+00 -7.000e+00 -7.000e+00 -7.000e+00 -7.000e+00 -7.000e+00 -7.000e+00 -7.000e+00 -7.000e+00 -7.000e+00 -1.700e+01 -7.000e+00 -7.000e+00 -7.000e+00 -7.000e+00 -7.000e+00 -7.000e+00 -7.000e+00 -7.000e+00 -7.000e+00 -7.000e+00 -7.000e+00 -7.000e+00 -7.000e+00 -7.000e+00 -7.000e+00 -7.000e+00 -7.000e+00 -7.000e+00 -7.000e+00 -7.000e+00 -7.000e+00 -7.000e+00 -7.000e+00 -7.000e+00 -7.000e+00 -7.000e+00 -7.000e+00 -7.000e+00 -7.000e+00 -7.000e+00 -7.000e+00 -7.000e+00 -7.000e+00 -7.000e+00 -7.000e+00 -7.000e+00 -7.000e+00 -7.000e+00 -7.000e+00 -7.000e+00 -7.000e+00 -7.000e+00 -7.000e+00 -7.000e+00 -7.000e+00 -7.000e+00 -7.000e+00 -7.000e+00 -7.000e+00 -7.000e+00 -7.000e+00 -7.000e+00 -7.000e+00 -7.000e+00 -7.000e+00 -7.000e+00 -1.700e+01 -7.000e+00 -7.000e+00 -7.000e+00 -7.000e+00 -7.000e+00 -7.000e+00 -7.000e+00 -7.000e+00 -7.000e+00 -7.000e+00 -7.000e+00 -7.000e+00 -7.000e+00 -7.000e+00 -7.000e+00 -7.000e+00 -7.000e+00 -7.000e+00 -7.000e+00 -7.000e+00 -7.000e+00 -7.000e+00 -7.000e+00 -7.000e+00 -7.000e+00 -7.000e+00 -7.000e+00 -7.000e+00 -7.000e+00 -7.000e+00 -7.000e+00 -7.000e+00 -7.000e+00 -7.000e+00 -7.000e+00 -7.000e+00 -7.000e+00 -7.000e+00 -7.000e+00 -7.000e+00 -7.000e+00 -7.000e+00 -7.000e+00 -7.000e+00 -7.000e+00 -7.000e+00 -7.000e+00 -7.000e+00 -7.000e+00 -7.000e+00 -7.000e+00 -1.700e+01 -7.000e+00 -7.000e+00 -7.000e+00 -7.000e+00 -7.000e+00 -7.000e+00 -7.000e+00 -7.000e+00 -7.000e+00 -7.000e+00 -7.000e+00 -7.000e+00 -7.000e+00 -7.000e+00 -7.000e+00 -7.000e+00 -7.000e+00 -7.000e+00 -7.000e+00 -7.000e+00 -7.000e+00 -7.000e+00 -7.000e+00 -7.000e+00 -7.000e+00 -7.000e+00 -7.000e+00 -7.000e+00 -7.000e+00 -7.000e+00 -7.000e+00 -7.000e+00 -7.000e+00 -7.000e+00 -7.000e+00 -7.000e+00 -7.000e+00 -7.000e+00 -7.000e+00 -7.000e+00 -7.000e+00 -7.000e+00 -7.000e+00 -7.000e+00 -7.000e+00 -7.000e+00 -7.000e+00 -7.000e+00 -7.000e+00 -7.000e+00 -7.000e+00 -7.000e+00 -7.000e+00 -7.000e+00 -7.000e+00 -7.000e+00 -7.000e+00 -7.000e+00 -7.000e+00 -7.000e+00 -7.000e+00 -7.000e+00 -7.000e+00 -7.000e+00 -7.000e+00 -7.000e+00 -7.000e+00 -7.000e+00 -7.000e+00 -7.000e+00 -7.000e+00 -7.000e+00 -7.000e+00 -7.000e+00 -7.000e+00 -7.000e+00 -7.000e+00 -7.000e+00 -7.000e+00 -7.000e+00 -7.000e+00 -7.000e+00 -7.000e+00 -7.000e+00 -7.000e+00 -7.000e+00 -7.000e+00 -7.000e+00 -1.700e+01 -1.700e+01 -1.700e+01 -7.000e+00 -7.000e+00 -7.000e+00 -7.000e+00 -7.000e+00 -7.000e+00 -7.000e+00 -7.000e+00 -7.000e+00 -7.000e+00 -7.000e+00 -7.000e+00 -7.000e+00 -7.000e+00 -7.000e+00 -7.000e+00 -7.000e+00 -7.000e+00 -7.000e+00 -7.000e+00 -7.000e+00 -7.000e+00 -7.000e+00 -7.000e+00 -7.000e+00 -7.000e+00 -7.000e+00 -7.000e+00 -7.000e+00 -7.000e+00 -7.000e+00 -7.000e+00 -7.000e+00 -7.000e+00 -7.000e+00 -7.000e+00 -7.000e+00 -7.000e+00 -7.000e+00 -7.000e+00 -7.000e+00 -7.000e+00 -7.000e+00 -7.000e+00 -7.000e+00 -7.000e+00 -7.000e+00 -7.000e+00 -7.000e+00 -7.000e+00 -7.000e+00 -7.000e+00 -7.000e+00 -7.000e+00 -7.000e+00 -7.000e+00 -7.000e+00 -7.000e+00 -7.000e+00 -7.000e+00 -7.000e+00 -7.000e+00 -7.000e+00 -7.000e+00 -7.000e+00 -7.000e+00 -7.000e+00 -7.000e+00 -7.000e+00 -7.000e+00 -7.000e+00 -7.000e+00 -7.000e+00 -7.000e+00 -1.500e+01 -1.500e+01 -1.500e+01 -1.500e+01 -1.500e+01 -1.500e+01 -9.000e+00 -9.000e+00 -9.000e+00 -9.000e+00 -9.000e+00 -9.000e+00 -9.000e+00 -9.000e+00 -9.000e+00 -9.000e+00 -1.500e+01 -1.500e+01 -1.500e+01 -9.000e+00 -9.000e+00 -9.000e+00 -9.000e+00 -9.000e+00 -9.000e+00 -9.000e+00 -1.500e+01 -9.000e+00 -9.000e+00 -9.000e+00 -9.000e+00 -9.000e+00 -9.000e+00 -9.000e+00 -9.000e+00 -9.000e+00 -9.000e+00 -9.000e+00 -9.000e+00 -9.000e+00 -9.000e+00 -4.000e+00 -4.000e+00 -4.000e+00 -4.000e+00 -4.000e+00 -4.000e+00 -4.000e+00 -4.000e+00 -4.000e+00 -4.000e+00 -4.000e+00 -4.000e+00 -4.000e+00 -4.000e+00 -4.000e+00 -4.000e+00 -4.000e+00 -4.000e+00 -4.000e+00 -4.000e+00 -4.000e+00 -4.000e+00 -4.000e+00 -4.000e+00 -4.000e+00 -4.000e+00 -4.000e+00 -4.000e+00 -4.000e+00 -4.000e+00 -4.000e+00 -4.000e+00 -4.000e+00 -4.000e+00 -4.000e+00 -4.000e+00 -4.000e+00
           </DataArray>
           <DataArray type="Float32" Name="parentRootClassID" NumberOfComponents="1" format="ascii">