<?xml version="1.0"?>
<VTKFile type="UnstructuredGrid" version="0.1" byte_order="LittleEndian">
   <UnstructuredGrid>
      <Piece NumberOfPoints="1440" NumberOfCells="96">
         <Points>
            <DataArray type="Float32" Name="Position" NumberOfComponents="3" format="ascii">
0.002	-4.967	-0.025
0.013	-4.960	-0.009
0.020	-4.964	0.011
0.019	-4.979	0.026
0.011	-4.997	0.031
-0.001	-5.013	0.024
-0.012	-5.021	0.008
-0.019	-5.016	-0.011
-0.018	-5.001	-0.027
-0.010	-4.983	-0.032
0.650	-5.315	-0.328
0.662	-5.309	-0.312
0.668	-5.313	-0.292
0.665	-5.326	-0.276
0.655	-5.344	-0.270
0.642	-5.359	-0.276
0.630	-5.365	-0.292
0.624	-5.361	-0.312
0.626	-5.348	-0.328
0.636	-5.330	-0.334
1.270	-5.888	-0.602
1.283	-5.882	-0.586
1.287	-5.886	-0.566
1.282	-5.898	-0.549
1.269	-5.913	-0.542
1.253	-5.925	-0.548
1.241	-5.931	-0.564
1.236	-5.928	-0.584
1.242	-5.916	-0.601
1.255	-5.901	-0.608
1.697	-6.389	-0.756
1.697	-6.380	-0.737
1.697	-6.383	-0.716
1.697	-6.398	-0.701
1.697	-6.419	-0.698
1.697	-6.437	-0.708
1.697	-6.447	-0.726
1.697	-6.443	-0.747
1.697	-6.429	-0.762
1.697	-6.408	-0.765
-0.025	-4.967	0.002
-0.009	-4.958	-0.008
0.010	-4.961	-0.016
0.026	-4.975	-0.018
0.032	-4.995	-0.013
0.026	-5.013	-0.003
0.010	-5.022	0.008
-0.009	-5.019	0.015
-0.025	-5.005	0.017
-0.031	-4.985	0.012
-0.338	-5.239	-0.674
-0.326	-5.228	-0.687
-0.307	-5.226	-0.696
-0.288	-5.236	-0.698
-0.277	-5.253	-0.692
-0.278	-5.271	-0.681
-0.290	-5.282	-0.668
-0.309	-5.283	-0.659
-0.328	-5.274	-0.657
-0.339	-5.257	-0.663
-0.588	-5.811	-1.304
-0.575	-5.803	-1.318
-0.555	-5.803	-1.325
-0.537	-5.813	-1.322
-0.526	-5.827	-1.311
-0.528	-5.841	-1.296
-0.541	-5.849	-1.282
-0.561	-5.849	-1.274
-0.579	-5.840	-1.277
-0.590	-5.825	-1.288
-0.706	-6.329	-1.744
-0.689	-6.339	-1.738
-0.681	-6.352	-1.724
-0.686	-6.364	-1.707
-0.701	-6.370	-1.694
-0.721	-6.367	-1.690
-0.739	-6.357	-1.696
-0.747	-6.344	-1.710
-0.742	-6.332	-1.727
-0.726	-6.326	-1.740
0.021	-5.016	0.005
0.021	-5.005	0.023
0.012	-4.988	0.032
-0.001	-4.972	0.028
-0.013	-4.962	0.014
-0.020	-4.964	-0.006
-0.020	-4.975	-0.023
-0.011	-4.992	-0.032
0.002	-5.009	-0.029
0.014	-5.018	-0.015
-0.584	-5.445	0.256
-0.584	-5.437	0.275
-0.594	-5.422	0.287
-0.609	-5.407	0.287
-0.623	-5.398	0.275
-0.632	-5.397	0.255
-0.631	-5.406	0.236
-0.621	-5.420	0.224
-0.607	-5.435	0.225
-0.592	-5.445	0.237
-1.088	-6.133	0.449
-1.087	-6.128	0.470
-1.097	-6.117	0.485
-1.113	-6.105	0.490
-1.130	-6.096	0.482
-1.142	-6.094	0.464
-1.143	-6.099	0.444
-1.133	-6.109	0.428
-1.116	-6.121	0.424
-1.099	-6.130	0.432
-1.420	-6.712	0.598
-1.419	-6.708	0.618
-1.428	-6.698	0.634
-1.445	-6.687	0.640
-1.463	-6.679	0.633
-1.475	-6.676	0.616
-1.477	-6.681	0.596
-1.467	-6.690	0.580
-1.451	-6.701	0.574
-1.433	-6.710	0.581
0.027	-4.997	-0.020
0.030	-4.978	-0.012
0.021	-4.963	0.000
0.005	-4.959	0.012
-0.013	-4.966	0.020
-0.026	-4.983	0.020
-0.029	-5.002	0.012
-0.020	-5.017	-0.001
-0.004	-5.021	-0.013
0.015	-5.014	-0.020
0.410	-5.295	0.602
0.414	-5.278	0.613
0.406	-5.264	0.627
0.389	-5.260	0.640
0.371	-5.268	0.646
0.357	-5.283	0.643
0.353	-5.301	0.632
0.360	-5.314	0.618
0.377	-5.318	0.605
0.396	-5.311	0.599
0.737	-5.885	1.166
0.743	-5.871	1.180
0.736	-5.860	1.198
0.720	-5.857	1.211
0.700	-5.863	1.215
0.684	-5.875	1.208
0.678	-5.889	1.194
0.685	-5.899	1.177
0.701	-5.902	1.164
0.721	-5.897	1.160
0.882	-6.410	1.541
0.901	-6.400	1.541
0.922	-6.404	1.541
0.936	-6.418	1.541
0.940	-6.439	1.541
0.930	-6.458	1.541
0.912	-6.467	1.541
0.891	-6.464	1.541
0.876	-6.449	1.541
0.873	-6.429	1.541
-0.151	-4.995	0.146
-0.036	-4.996	0.207
0.092	-4.999	0.189
0.185	-5.003	0.099
0.208	-5.005	-0.029
0.151	-5.005	-0.146
0.036	-5.004	-0.207
-0.092	-5.001	-0.189
-0.185	-4.997	-0.099
-0.208	-4.995	0.029
-0.132	-4.248	0.136
-0.018	-4.248	0.195
0.109	-4.250	0.176
0.201	-4.251	0.086
0.222	-4.253	-0.041
0.165	-4.253	-0.156
0.051	-4.252	-0.215
-0.076	-4.251	-0.196
-0.168	-4.249	-0.106
-0.189	-4.248	0.021
-0.131	-3.560	0.134
-0.017	-3.559	0.192
0.109	-3.559	0.172
0.200	-3.559	0.082
0.220	-3.560	-0.045
0.162	-3.561	-0.158
0.048	-3.561	-0.217
-0.078	-3.562	-0.197
-0.169	-3.561	-0.107
-0.189	-3.561	0.020
-0.134	-2.701	0.127
-0.021	-2.700	0.184
0.105	-2.699	0.164
0.195	-2.699	0.074
0.215	-2.700	-0.051
0.157	-2.700	-0.165
0.044	-2.701	-0.222
-0.082	-2.702	-0.202
-0.172	-2.702	-0.112
-0.192	-2.701	0.013
-0.137	-1.802	0.126
-0.024	-1.801	0.183
0.101	-1.801	0.163
0.190	-1.800	0.073
0.209	-1.799	-0.052
0.151	-1.799	-0.165
0.038	-1.799	-0.222
-0.087	-1.800	-0.201
-0.176	-1.801	-0.112
-0.195	-1.802	0.014
-0.140	-1.202	0.131
-0.028	-1.202	0.187
0.097	-1.201	0.167
0.186	-1.200	0.077
0.205	-1.199	-0.048
0.147	-1.199	-0.160
0.034	-1.199	-0.217
-0.090	-1.200	-0.196
-0.179	-1.201	-0.106
-0.198	-1.201	0.018
-0.143	-0.301	0.132
-0.031	-0.301	0.189
0.094	-0.301	0.169
0.183	-0.301	0.080
0.202	-0.300	-0.045
0.145	-0.300	-0.157
0.033	-0.300	-0.214
-0.092	-0.300	-0.194
-0.181	-0.300	-0.105
-0.200	-0.300	0.020
-0.141	0.560	0.132
-0.029	0.560	0.189
0.095	0.560	0.170
0.184	0.559	0.081
0.204	0.559	-0.043
0.147	0.559	-0.155
0.036	0.559	-0.212
-0.089	0.560	-0.193
-0.177	0.560	-0.104
-0.197	0.560	0.020
-0.138	1.441	0.128
-0.027	1.441	0.185
0.097	1.440	0.166
0.186	1.439	0.078
0.206	1.439	-0.046
0.149	1.438	-0.158
0.038	1.439	-0.215
-0.086	1.439	-0.196
-0.174	1.440	-0.108
-0.195	1.441	0.016
-0.132	2.317	0.123
-0.021	2.316	0.180
0.102	2.316	0.160
0.190	2.316	0.073
0.210	2.315	-0.050
0.153	2.315	-0.161
0.043	2.316	-0.218
-0.080	2.316	-0.199
-0.169	2.316	-0.111
-0.188	2.316	0.012
-0.131	2.569	0.123
-0.021	2.569	0.179
0.102	2.569	0.159
0.189	2.570	0.072
0.208	2.570	-0.050
0.152	2.570	-0.160
0.042	2.570	-0.216
-0.080	2.570	-0.197
-0.168	2.569	-0.109
-0.187	2.569	0.013
0.003	-5.106	0.023
0.000	-5.097	0.023
0.001	-5.089	0.019
0.004	-5.085	0.011
0.009	-5.086	0.004
0.014	-5.092	-0.001
0.016	-5.101	-0.002
0.016	-5.109	0.003
0.012	-5.113	0.010
0.007	-5.112	0.018
-0.689	-5.293	-0.389
-0.691	-5.284	-0.389
-0.690	-5.276	-0.394
-0.686	-5.273	-0.402
-0.680	-5.275	-0.409
-0.676	-5.282	-0.413
-0.674	-5.291	-0.413
-0.675	-5.299	-0.408
-0.679	-5.302	-0.400
-0.685	-5.300	-0.393
-1.135	-5.402	-0.716
-1.137	-5.393	-0.717
-1.135	-5.385	-0.722
-1.130	-5.383	-0.730
-1.124	-5.386	-0.736
-1.120	-5.393	-0.740
-1.119	-5.402	-0.738
-1.121	-5.409	-0.733
-1.125	-5.412	-0.726
-1.131	-5.409	-0.719
0.025	-5.210	0.025
0.030	-5.203	0.022
0.030	-5.195	0.018
0.025	-5.187	0.016
0.016	-5.184	0.016
0.008	-5.186	0.018
0.002	-5.193	0.022
0.002	-5.202	0.025
0.007	-5.209	0.027
0.016	-5.212	0.027
0.124	-4.928	0.775
0.129	-4.922	0.771
0.129	-4.913	0.767
0.124	-4.906	0.765
0.115	-4.903	0.765
0.107	-4.905	0.768
0.101	-4.911	0.772
0.101	-4.919	0.775
0.106	-4.927	0.777
0.115	-4.930	0.777
0.212	-4.773	1.089
0.218	-4.767	1.084
0.218	-4.759	1.080
0.212	-4.751	1.078
0.204	-4.748	1.079
0.195	-4.749	1.082
0.190	-4.755	1.086
0.190	-4.763	1.090
0.195	-4.771	1.093
0.204	-4.774	1.092
0.095	-6.085	0.118
0.098	-6.077	0.114
0.105	-6.074	0.108
0.112	-6.077	0.103
0.118	-6.084	0.101
0.119	-6.093	0.102
0.116	-6.100	0.106
0.109	-6.104	0.111
0.102	-6.101	0.116
0.096	-6.094	0.119
-0.348	-6.229	-0.491
-0.348	-6.220	-0.487
-0.348	-6.211	-0.488
-0.348	-6.205	-0.495
-0.348	-6.203	-0.504
-0.348	-6.207	-0.512
-0.348	-6.216	-0.517
-0.348	-6.225	-0.515
-0.348	-6.231	-0.509
-0.348	-6.233	-0.499
0.110	-6.197	0.133
0.109	-6.188	0.136
0.110	-6.179	0.133
0.112	-6.174	0.126
0.114	-6.174	0.117
0.116	-6.179	0.110
0.117	-6.188	0.107
0.116	-6.197	0.110
0.114	-6.202	0.117
0.112	-6.202	0.126
-0.701	-6.189	-0.069
-0.699	-6.180	-0.066
-0.697	-6.172	-0.069
-0.694	-6.167	-0.077
-0.693	-6.167	-0.086
-0.693	-6.173	-0.093
-0.694	-6.182	-0.096
-0.697	-6.190	-0.093
-0.699	-6.195	-0.086
-0.700	-6.195	-0.077
-0.770	-6.159	-0.076
-0.766	-6.151	-0.073
-0.763	-6.143	-0.076
-0.760	-6.138	-0.084
-0.759	-6.138	-0.093
-0.761	-6.144	-0.100
-0.764	-6.152	-0.103
-0.768	-6.160	-0.100
-0.770	-6.165	-0.093
-0.771	-6.164	-0.083
0.117	-6.299	0.144
0.119	-6.291	0.148
0.120	-6.282	0.147
0.119	-6.275	0.141
0.116	-6.272	0.133
0.113	-6.276	0.125
0.111	-6.284	0.120
0.110	-6.293	0.121
0.111	-6.300	0.127
0.114	-6.302	0.136
-0.668	-6.207	0.401
-0.665	-6.200	0.406
-0.665	-6.190	0.406
-0.668	-6.183	0.401
-0.672	-6.180	0.393
-0.677	-6.183	0.386
-0.679	-6.190	0.381
-0.679	-6.200	0.381
-0.677	-6.207	0.386
-0.672	-6.210	0.394
-0.794	-6.227	0.506
-0.791	-6.220	0.511
-0.792	-6.211	0.511
-0.796	-6.203	0.508
-0.802	-6.200	0.501
-0.807	-6.203	0.494
-0.810	-6.210	0.490
-0.809	-6.219	0.489
-0.805	-6.227	0.492
-0.799	-6.230	0.499
0.110	-6.391	0.159
0.108	-6.382	0.158
0.110	-6.374	0.153
0.115	-6.372	0.145
0.121	-6.375	0.139
0.125	-6.382	0.135
0.127	-6.391	0.136
0.125	-6.398	0.142
0.120	-6.401	0.149
0.114	-6.398	0.156
-0.575	-6.572	-0.345
-0.577	-6.563	-0.346
-0.575	-6.556	-0.352
-0.570	-6.553	-0.359
-0.564	-6.556	-0.366
-0.560	-6.563	-0.369
-0.558	-6.572	-0.368
-0.560	-6.580	-0.363
-0.565	-6.582	-0.355
-0.571	-6.579	-0.349
0.133	-6.493	0.156
0.136	-6.485	0.158
0.133	-6.477	0.161
0.126	-6.472	0.164
0.117	-6.472	0.165
0.109	-6.477	0.164
0.106	-6.486	0.162
0.109	-6.494	0.159
0.117	-6.499	0.156
0.126	-6.499	0.155
0.224	-6.743	0.924
0.227	-6.735	0.926
0.224	-6.726	0.929
0.217	-6.721	0.931
0.207	-6.722	0.932
0.200	-6.727	0.931
0.197	-6.736	0.929
0.200	-6.744	0.926
0.207	-6.749	0.924
0.216	-6.749	0.923
0.233	-6.766	1.001
0.236	-6.757	1.003
0.233	-6.749	1.006
0.226	-6.744	1.008
0.216	-6.744	1.009
0.209	-6.749	1.009
0.206	-6.758	1.006
0.209	-6.766	1.004
0.216	-6.771	1.001
0.225	-6.771	1.000
0.136	-6.595	0.173
0.140	-6.588	0.177
0.138	-6.579	0.179
0.131	-6.572	0.179
0.123	-6.570	0.176
0.115	-6.574	0.172
0.111	-6.581	0.169
0.113	-6.590	0.166
0.120	-6.597	0.167
0.128	-6.599	0.169
-0.102	-6.804	0.820
-0.104	-6.802	0.829
-0.110	-6.797	0.834
-0.116	-6.790	0.834
-0.121	-6.785	0.829
-0.123	-6.783	0.820
-0.121	-6.785	0.811
-0.116	-6.790	0.805
-0.110	-6.797	0.805
-0.104	-6.802	0.811
0.124	-6.688	0.198
0.124	-6.679	0.199
0.126	-6.672	0.194
0.131	-6.668	0.186
0.136	-6.671	0.179
0.139	-6.678	0.174
0.139	-6.688	0.174
0.136	-6.695	0.179
0.132	-6.698	0.186
0.127	-6.696	0.194
-0.579	-6.710	-0.225
[...]
         <CellData>
           <DataArray type="Float32" Name="combinedRootClassID" NumberOfComponents="1" format="ascii">
 -5.000e+00 -5.000e+00 -5.000e+00 -5.000e+00 -5.000e+00 -5.000e+00 -5.000e+00 -5.000e+00 -5.000e+00 -5.000e+00 -5.000e+00 -5.000e+00 -2.000e+00 -2.000e+00 -2.000e+00 -2.000e+00 -2.000e+00 -2.000e+00 -2.000e+00 -2.000e+00 -2.000e+00 -2.000e+00 -7.000e+00 -7.000e+00 -7.000e+00 -7.000e+00 -7.000e+00 -7.000e+00 -7.000e+00 -7.000e+00 -7.000e+00 -7.000e+00 -7.000e+00 -7.000e+00 -7.000e+00 -7.000e+00 -7.000e+00 -7.000e+00 -7.000e+00 -7.000e+00 -7.000e+00 -7.000e+00 -7.000e+00 -7.000e+00 -7.000e+00 -7.000e+00 -7.000e+00 -7.000e+00 -7.000e+00 -7.000e+00 -7.000e+00 -7.000e+00 -7.000e+00 -7.000e+00 -7.000e+00 -7.000e+00 -7.000e+00 -7.000e+00 -7.000e+00 -7.000e+00 -7.000e+00 -7.000e+00 -7.000e+00 -7.000e+00 -7.000e+00 -7.000e+00 -7.000e+00 -7.000e+00 -7.000e+00 -7.000e+00 -7.000e+00 -7.000e+00 -7.000e+00 -7.000e+00 -7.000e+00 -9.000e+00 -4.000e+00 -4.000e+00 -4.000e+00 -4.000e+00 -4.000e+00 -4.000e+00 -4.000e+00 -4.000e+00 -4.000e+00 -4.000e+00 -4.000e+00 -4.000e+00 -4.000e+00 -4.000e+00 -4.000e+00 -4.000e+00 -4.000e+00 -4.000e+00 -4.000e+00 -4.000e+00
           </DataArray>
           <DataArray type="Float32" Name="parentRootClassID" NumberOfComponents="1" format="ascii">
 -2.000e+00 -2.000e+00 -2.000e+00 -2.000e+00 -2.000e+00 -2.000e+00 -2.000e+00 -2.000e+00 -2.000e+00 -2.000e+00 -2.000e+00 -2.000e+00 -3.000e+00 -3.000e+00 -3.000e+00 -3.000e+00 -3.000e+00 -3.000e+00 -3.000e+00 -3.000e+00 -3.000e+00 -3.000e+00 -4.000e+00 -4.000e+00 -4.000e+00 -4.000e+00 -4.000e+00 -4.000e+00 -4.000e+00 -4.000e+00 -4.000e+00 -4.000e+00 -4.000e+00 -4.000e+00 -4.000e+00 -4.000e+00 -4.000e+00 -4.000e+00 -4.000e+00 -4.000e+00 -4.000e+00 -4.000e+00 -4.000e+00 -4.000e+00 -4.000e+00 -4.000e+00 -4.000e+00 -4.000e+00 -4.000e+00 -4.000e+00 -4.000e+00 -4.000e+00 -4.000e+00 -4.000e+00 -4.000e+00 -4.000e+00 -4.000e+00 -4.000e+00 -4.000e+00 -4.000e+00 -4.000e+00 -4.000e+00 -4.000e+00 -4.000e+00 -4.000e+00 -4.000e+00 -4.000e+00 -4.000e+00 -4.000e+00 -4.000e+00 -4.000e+00 -4.000e+00 -4.000e+00 -4.000e+00 -4.000e+00 -4.000e+00 -3.000e+00 -3.000e+00 -3.000e+00 -3.000e+00 -3.000e+00 -3.000e+00 -3.000e+00 -3.000e+00 -3.000e+00 -3.000e+00 -3.000e+00 -3.000e+00 -3.000e+00 -3.000e+00 -3.000e+00 -3.000e+00 -3.000e+00 -3.000e+00 -3.000e+00 -3.000e+00
           </DataArray>
           <DataArray type="Float32" Name="phosphorus/Imax" NumberOfComponents="1" format="ascii">
 5.550e-02 5.550e-02 5.550e-02 5.550e-02 5.550e-02 5.550e-02 5.550e-02 5.550e-02 5.550e-02 5.550e-02 5.550e-02 5.550e-02 5.550e-02 5.550e-02 5.550e-02 5.550e-02 5.550e-02 5.550e-02 5.550e-02 5.550e-02 5.550e-02 5.550e-02 5.550e-02 5.550e-02 5.550e-02 5.550e-02 5.550e-02 5.550e-02 5.550e-02 5.550e-02 5.550e-02 5.550e-02 5.550e-02 5.550e-02 5.550e-02 5.550e-02 5.550e-02 5.550e-02 5.550e-02 5.550e-02 5.550e-02 5.550e-02 5.550e-02 5.550e-02 5.550e-02 5.550e-02 5.550e-02 5.550e-02 5.550e-02 5.550e-02 5.550e-02 5.550e-02 5.550e-02 5.550e-02 5.550e-02 5.550e-02 5.550e-02 5.550e-02 5.550e-02 5.550e-02 5.550e-02 5.550e-02 5.550e-02 5.550e-02 5.550e-02 5.550e-02 5.550e-02 5.550e-02 5.550e-02 5.550e-02 5.550e-02 5.550e-02 5.550e-02 5.550e-02 5.550e-02 5.550e-02 5.550e-02 5.550e-02 5.550e-02 5.550e-02 5.550e-02 5.550e-02 5.550e-02 5.550e-02 5.550e-02 5.550e-02 5.550e-02 5.550e-02 5.550e-02 5.550e-02 5.550e-02 5.550e-02 5.550e-02 5.550e-02 5.550e-02 5.550e-02
           </DataArray>
           <DataArray type="Float32" Name="phosphorus/Km" NumberOfComponents="1" format="ascii">
 5.450e-03 5.450e-03 5.450e-03 5.450e-03 5.450e-03 5.450e-03 5.450e-03 5.450e-03 5.450e-03 5.450e-03 5.450e-03 5.450e-03 5.450e-03 5.450e-03 5.450e-03 5.450e-03 5.450e-03 5.450e-03 5.450e-03 5.450e-03 5.450e-03 5.450e-03 5.450e-03 5.450e-03 5.450e-03 5.450e-03 5.450e-03 5.450e-03 5.450e-03 5.450e-03 5.450e-03 5.450e-03 5.450e-03 5.450e-03 5.450e-03 5.450e-03 5.450e-03 5.450e-03 5.450e-03 5.450e-03 5.450e-03 5.450e-03 5.450e-03 5.450e-03 5.450e-03 5.450e-03 5.450e-03 5.450e-03 5.450e-03 5.450e-03 5.450e-03 5.450e-03 5.450e-03 5.450e-03 5.450e-03 5.450e-03 5.450e-03 5.450e-03 5.450e-03 5.450e-03 5.450e-03 5.450e-03 5.450e-03 5.450e-03 5.450e-03 5.450e-03 5.450e-03 5.450e-03 5.450e-03 5.450e-03 5.450e-03 5.450e-03 5.450e-03 5.450e-03 5.450e-03 5.450e-03 5.450e-03 5.450e-03 5.450e-03 5.450e-03 5.450e-03 5.450e-03 5.450e-03 5.450e-03 5.450e-03 5.450e-03 5.450e-03 5.450e-03 5.450e-03 5.450e-03 5.450e-03 5.450e-03 5.450e-03 5.450e-03 5.450e-03 5.450e-03
           </DataArray>
           <DataArray type="Float32" Name="phosphorus/minimalNutrientConcentration" NumberOfComponents="1" format="ascii">
 3.000e+01 3.000e+01 3.000e+01 3.000e+01 3.000e+01 3.000e+01 3.000e+01 3.000e+01 3.000e+01 3.000e+01 3.000e+01 3.000e+01 3.000e+01 3.000e+01 3.000e+01 3.000e+01 3.000e+01 3.000e+01 3.000e+01 3.000e+01 3.000e+01 3.000e+01 3.000e+01 3.000e+01 3.000e+01 3.000e+01 3.000e+01 3.000e+01 3.000e+01 3.000e+01 3.000e+01 3.000e+01 3.000e+01 3.000e+01 3.000e+01 3.000e+01 3.000e+01 3.000e+01 3.000e+01 3.000e+01 3.000e+01 3.000e+01 3.000e+01 3.000e+01 3.000e+01 3.000e+01 3.000e+01 3.000e+01 3.000e+01 3.000e+01 3.000e+01 3.000e+01 3.000e+01 3.000e+01 3.000e+01 3.000e+01 3.000e+01 3.000e+01 3.000e+01 3.000e+01 3.000e+01 3.000e+01 3.000e+01 3.000e+01 3.000e+01 3.000e+01 3.000e+01 3.000e+01 3.000e+01 3.000e+01 3.000e+01 3.000e+01 3.000e+01 3.000e+01 3.000e+01 3.000e+01 3.000e+01 3.000e+01 3.000e+01 3.000e+01 3.000e+01 3.000e+01 3.000e+01 3.000e+01 3.000e+01 3.000e+01 3.000e+01 3.000e+01 3.000e+01 3.000e+01 3.000e+01 3.000e+01 3.000e+01 3.000e+01 3.000e+01 3.000e+01
           </DataArray>
           <DataArray type="Float32" Name="phosphorus/nutrientConcentrationAtTheRootSurface" NumberOfComponents="1" format="ascii">
 1.000e-03 1.000e-03 1.000e-03 1.000e-03 1.000e-03 1.000e-03 1.000e-03 1.000e-03 1.000e-03 1.000e-03 1.000e-03 1.000e-03 1.000e-03 1.000e-03 1.000e-03 1.000e-03 1.000e-03 1.000e-03 1.000e-03 0.000e+00 0.000e+00 0.000e+00 1.000e-03 1.000e-03 1.000e-03 1.000e-03 1.000e-03 1.000e-03 1.000e-03 1.000e-03 1.000e-03 1.000e-03 1.000e-03 1.000e-03 1.000e-03 1.000e-03 1.000e-03 1.000e-03 1.000e-03 1.000e-03 1.000e-03 1.000e-03 1.000e-03 1.000e-03 1.000e-03 1.000e-03 1.000e-03 1.000e-03 1.000e-03 1.000e-03 1.000e-03 1.000e-03 1.000e-03 1.000e-03 1.000e-03 1.000e-03 1.000e-03 1.000e-03 1.000e-03 1.000e-03 1.000e-03 1.000e-03 1.000e-03 1.000e-03 1.000e-03 1.000e-03 1.000e-03 1.000e-03 1.000e-03 1.000e-03 1.000e-03 1.000e-03 1.000e-03 1.000e-03 1.000e-03 1.000e-03 1.000e-03 1.000e-03 1.000e-03 1.000e-03 1.000e-03 1.000e-03 1.000e-03 1.000e-03 1.000e-03 1.000e-03 1.000e-03 1.000e-03 1.000e-03 1.000e-03 1.000e-03 1.000e-03 1.000e-03 1.000e-03 1.000e-03 1.000e-03
           </DataArray>
           <DataArray type="Float32" Name="phosphorus/optimalNutrientConcentration" NumberOfComponents="1" format="ascii">
 6.000e+01 6.000e+01 6.000e+01 6.000e+01 6.000e+01 6.000e+01 6.000e+01 6.000e+01 6.000e+01 6.000e+01 6.000e+01 6.000e+01 6.000e+01 6.000e+01 6.000e+01 6.000e+01 6.000e+01 6.000e+01 6.000e+01 6.000e+01 6.000e+01 6.000e+01 6.000e+01 6.000e+01 6.000e+01 6.000e+01 6.000e+01 6.000e+01 6.000e+01 6.000e+01 6.000e+01 6.000e+01 6.000e+01 6.000e+01 6.000e+01 6.000e+01 6.000e+01 6.000e+01 6.000e+01 6.000e+01 6.000e+01 6.000e+01 6.000e+01 6.000e+01 6.000e+01 6.000e+01 6.000e+01 6.000e+01 6.000e+01 6.000e+01 6.000e+01 6.000e+01 6.000e+01 6.000e+01 6.000e+01 6.000e+01 6.000e+01 6.000e+01 6.000e+01 6.000e+01 6.000e+01 6.000e+01 6.000e+01 6.000e+01 6.000e+01 6.000e+01 6.000e+01 6.000e+01 6.000e+01 6.000e+01 6.000e+01 6.000e+01 6.000e+01 6.000e+01 6.000e+01 6.000e+01 6.000e+01 6.000e+01 6.000e+01 6.000e+01 6.000e+01 6.000e+01 6.000e+01 6.000e+01 6.000e+01 6.000e+01 6.000e+01 6.000e+01 6.000e+01 6.000e+01 6.000e+01 6.000e+01 6.000e+01 6.000e+01 6.000e+01 6.000e+01
           </DataArray>
           <DataArray type="Float32" Name="phosphorus/radiusDepletionZone" NumberOfComponents="1" format="ascii">
 6.400e-02 5.400e-02 4.400e-02 6.400e-02 5.400e-02 4.400e-02 6.400e-02 5.400e-02 4.400e-02 6.400e-02 5.400e-02 4.400e-02 2.892e-01 2.772e-01 2.761e-01 2.752e-01 2.643e-01 2.639e-01 2.633e-01 2.021e-01 2.016e-01 2.007e-01 4.501e-02 2.500e-02 4.501e-02 2.500e-02 3.500e-02 3.500e-02 1.500e-02 3.500e-02 1.500e-02 3.500e-02 3.500e-02 1.500e-02 3.500e-02 3.500e-02 3.500e-02 3.500e-02 3.500e-02 4.501e-02 2.500e-02 3.500e-02 3.500e-02 3.500e-02 3.500e-02 2.500e-02 2.500e-02 2.500e-02 2.500e-02 2.500e-02 2.500e-02 4.501e-02 2.500e-02 2.500e-02 2.500e-02 2.500e-02 2.500e-02 2.500e-02 1.500e-02 1.500e-02 1.500e-02 1.500e-02 1.500e-02 4.501e-02 2.500e-02 1.500e-02 4.501e-02 2.500e-02 3.500e-02 2.500e-02 3.500e-02 1.500e-02 3.500e-02 2.500e-02 3.500e-02 2.500e-02 1.203e-01 1.196e-01 1.089e-01 1.083e-01 1.078e-01 1.073e-01 1.070e-01 9.671e-02 9.644e-02 9.620e-02 9.598e-02 8.578e-02 8.560e-02 8.545e-02 7.532e-02 7.521e-02 7.512e-02 6.506e-02 6.502e-02 5.500e-02
           </DataArray>
           <DataArray type="Float32" Name="phosphorus/rootSegmentMinimalNutrientContent" NumberOfComponents="1" format="ascii">
 8.161e-03 9.053e-03 7.029e-03 8.161e-03 9.053e-03 7.029e-03 8.161e-03 9.053e-03 7.029e-03 8.161e-03 9.053e-03 7.029e-03 2.903e-01 2.630e-01 3.243e-01 3.377e-01 2.231e-01 3.329e-01 3.161e-01 3.218e-01 3.167e-01 9.047e-02 1.692e-03 1.166e-03 1.716e-03 7.309e-04 1.582e-03 1.713e-03 1.491e-04 1.693e-03 3.364e-04 1.765e-03 1.649e-03 1.614e-04 1.457e-03 1.713e-03 1.572e-03 1.488e-03 1.260e-03 1.722e-03 5.593e-04 1.483e-03 1.281e-03 1.169e-03 1.212e-03 1.089e-03 1.175e-03 8.951e-04 8.698e-04 7.192e-04 7.390e-04 1.657e-03 7.612e-04 5.415e-04 6.020e-04 5.105e-04 4.908e-04 3.873e-04 3.608e-04 2.572e-04 2.456e-04 1.544e-04 8.963e-05 1.764e-03 4.246e-04 2.528e-05 1.690e-03 4.210e-04 1.735e-03 4.482e-04 1.763e-03 1.337e-04 1.744e-03 7.145e-04 1.786e-03 1.644e-03 1.613e-02 1.568e-02 1.525e-02 1.486e-02 1.451e-02 1.421e-02 1.397e-02 1.378e-02 1.362e-02 1.346e-02 1.333e-02 1.320e-02 1.309e-02 1.300e-02 1.291e-02 1.284e-02 1.279e-02 1.274e-02 1.271e-02 1.269e-02
           </DataArray>
           <DataArray type="Float32" Name="phosphorus/rootSegmentNutrientUptake" NumberOfComponents="1" format="ascii">
 5.379e-04 3.708e-04 1.226e-04 5.379e-04 3.708e-04 1.226e-04 5.379e-04 3.708e-04 1.226e-04 5.379e-04 3.708e-04 1.226e-04 9.053e-03 8.231e-03 9.889e-03 9.958e-03 6.525e-03 9.252e-03 8.438e-03 0.000e+00 0.000e+00 0.000e+00 3.351e-04 8.801e-05 3.064e-04 4.451e-05 1.813e-04 2.059e-04 3.999e-06 2.141e-04 1.227e-05 1.878e-04 1.852e-04 4.329e-06 1.471e-04 1.680e-04 1.501e-04 1.375e-04 1.131e-04 2.889e-04 2.976e-05 1.286e-04 1.074e-04 9.471e-05 9.430e-05 8.190e-05 8.435e-05 6.170e-05 5.709e-05 4.490e-05 4.393e-05 2.886e-04 4.636e-05 3.021e-05 3.201e-05 2.500e-05 2.247e-05 1.625e-05 1.368e-05 8.918e-06 7.153e-06 4.126e-06 1.573e-06 2.728e-04 1.916e-05 1.447e-07 2.576e-04 1.900e-05 2.600e-04 2.023e-05 2.304e-04 3.585e-06 2.682e-04 3.802e-05 2.092e-04 1.117e-04 2.383e-03 2.294e-03 2.204e-03 2.113e-03 2.019e-03 1.925e-03 1.828e-03 1.729e-03 1.627e-03 1.523e-03 1.416e-03 1.306e-03 1.191e-03 1.072e-03 9.478e-04 8.168e-04 6.774e-04 5.268e-04 3.603e-04 1.673e-04
           </DataArray>
           <DataArray type="Float32" Name="phosphorus/rootSegmentOptimalNutrientContent" NumberOfComponents="1" format="ascii">
 1.632e-02 1.811e-02 1.406e-02 1.632e-02 1.811e-02 1.406e-02 1.632e-02 1.811e-02 1.406e-02 1.632e-02 1.811e-02 1.406e-02 5.806e-01 5.260e-01 6.486e-01 6.753e-01 4.462e-01 6.659e-01 6.322e-01 6.436e-01 6.333e-01 1.809e-01 3.384e-03 2.332e-03 3.431e-03 1.462e-03 3.163e-03 3.426e-03 2.982e-04 3.385e-03 6.728e-04 3.530e-03 3.297e-03 3.228e-04 2.913e-03 3.425e-03 3.145e-03 2.975e-03 2.521e-03 3.444e-03 1.119e-03 2.966e-03 2.563e-03 2.339e-03 2.423e-03 2.178e-03 2.350e-03 1.790e-03 1.740e-03 1.438e-03 1.478e-03 3.315e-03 1.522e-03 1.083e-03 1.204e-03 1.021e-03 9.816e-04 7.746e-04 7.216e-04 5.144e-04 4.911e-04 3.088e-04 1.793e-04 3.528e-03 8.492e-04 5.055e-05 3.379e-03 8.421e-04 3.470e-03 8.964e-04 3.527e-03 2.674e-04 3.487e-03 1.429e-03 3.571e-03 3.287e-03 3.227e-02 3.135e-02 3.050e-02 2.972e-02 2.901e-02 2.842e-02 2.794e-02 2.756e-02 2.723e-02 2.693e-02 2.666e-02 2.641e-02 2.619e-02 2.600e-02 2.583e-02 2.569e-02 2.557e-02 2.549e-02 2.542e-02 2.538e-02
           </DataArray>
           <DataArray type="Float32" Name="plantID" NumberOfComponents="1" format="ascii">
 7.000e+00 7.000e+00 7.000e+00 7.000e+00 7.000e+00 7.000e+00 7.000e+00 7.000e+00 7.000e+00 7.000e+00 7.000e+00 7.000e+00 7.000e+00 7.000e+00 7.000e+00 7.000e+00 7.000e+00 7.000e+00 7.000e+00 7.000e+00 7.000e+00 7.000e+00 7.000e+00 7.000e+00 7.000e+00 7.000e+00 7.000e+00 7.000e+00 7.000e+00 7.000e+00 7.000e+00 7.000e+00 7.000e+00 7.000e+00 7.000e+00 7.000e+00 7.000e+00 7.000e+00 7.000e+00 7.000e+00 7.000e+00 7.000e+00 7.000e+00 7.000e+00 7.000e+00 7.000e+00 7.000e+00 7.000e+00 7.000e+00 7.000e+00 7.000e+00 7.000e+00 7.000e+00 7.000e+00 7.000e+00 7.000e+00 7.000e+00 7.000e+00 7.000e+00 7.000e+00 7.000e+00 7.000e+00 7.000e+00 7.000e+00 7.000e+00 7.000e+00 7.000e+00 7.000e+00 7.000e+00 7.000e+00 7.000e+00 7.000e+00 7.000e+00 7.000e+00 7.000e+00 7.000e+00 7.000e+00 7.000e+00 7.000e+00 7.000e+00 7.000e+00 7.000e+00 7.000e+00 7.000e+00 7.000e+00 7.000e+00 7.000e+00 7.000e+00 7.000e+00 7.000e+00 7.000e+00 7.000e+00 7.000e+00 7.000e+00 7.000e+00 7.000e+00
           </DataArray>
           <DataArray type="Float32" Name="plantTypeID" NumberOfComponents="1" format="ascii">
 0.000e+00 0.000e+00 0.000e+00 0.000e+00 0.000e+00 0.000e+00 0.000e+00 0.000e+00 0.000e+00 0.000e+00 0.000e+00 0.000e+00 0.000e+00 0.000e+00 0.000e+00 0.000e+00 0.000e+00 0.000e+00 0.000e+00 0.000e+00 0.000e+00 0.000e+00 0.000e+00 0.000e+00 0.000e+00 0.000e+00 0.000e+00 0.000e+00 0.000e+00 0.000e+00 0.000e+00 0.000e+00 0.000e+00 0.000e+00 0.000e+00 0.000e+00 0.000e+00 0.000e+00 0.000e+00 0.000e+00 0.000e+00 0.000e+00 0.000e+00 0.000e+00 0.000e+00 0.000e+00 0.000e+00 0.000e+00 0.000e+00 0.000e+00 0.000e+00 0.000e+00 0.000e+00 0.000e+00 0.000e+00 0.000e+00 0.000e+00 0.000e+00 0.000e+00 0.000e+00 0.000e+00 0.000e+00 0.000e+00 0.000e+00 0.000e+00 0.000e+00 0.000e+00 0.000e+00 0.000e+00 0.000e+00 0.000e+00 0.000e+00 0.000e+00 0.000e+00 0.000e+00 0.000e+00 0.000e+00 0.000e+00 0.000e+00 0.000e+00 0.000e+00 0.000e+00 0.000e+00 0.000e+00 0.000e+00 0.000e+00 0.000e+00 0.000e+00 0.000e+00 0.000e+00 0.000e+00 0.000e+00 0.000e+00 0.000e+00 0.000e+00 0.000e+00
           </DataArray>
           <DataArray type="Float32" Name="rootCircumference" NumberOfComponents="1" format="ascii">
 2.136e-01 2.136e-01 2.136e-01 2.136e-01 2.136e-01 2.136e-01 2.136e-01 2.136e-01 2.136e-01 2.136e-01 2.136e-01 2.136e-01 1.320e+00 1.307e+00 1.300e+00 1.293e+00 1.287e+00 1.284e+00 1.280e+00 1.276e+00 1.273e+00 1.265e+00 9.431e-02 9.426e-02 9.430e-02 9.425e-02 9.428e-02 9.428e-02 9.425e-02 9.428e-02 9.425e-02 9.427e-02 9.427e-02 9.425e-02 9.427e-02 9.427e-02 9.427e-02 9.427e-02 9.426e-02 9.430e-02 9.425e-02 9.426e-02 9.426e-02 9.426e-02 9.426e-02 9.426e-02 9.426e-02 9.426e-02 9.425e-02 9.425e-02 9.425e-02 9.430e-02 9.425e-02 9.425e-02 9.425e-02 9.425e-02 9.425e-02 9.425e-02 9.425e-02 9.425e-02 9.425e-02 9.425e-02 9.425e-02 9.429e-02 9.425e-02 9.425e-02 9.429e-02 9.425e-02 9.429e-02 9.425e-02 9.429e-02 9.425e-02 9.428e-02 9.425e-02 9.428e-02 9.427e-02 3.189e-01 3.143e-01 3.100e-01 3.060e-01 3.023e-01 2.993e-01 2.967e-01 2.947e-01 2.929e-01 2.913e-01 2.898e-01 2.885e-01 2.873e-01 2.862e-01 2.853e-01 2.845e-01 2.839e-01 2.834e-01 2.830e-01 2.828e-01
           </DataArray>
           <DataArray type="Float32" Name="rootClassID" NumberOfComponents="1" format="ascii">
 9.900e+01 9.900e+01 9.900e+01 9.900e+01 9.900e+01 9.900e+01 9.900e+01 9.900e+01 9.900e+01 9.900e+01 9.900e+01 9.900e+01 -2.000e+00 -2.000e+00 -2.000e+00 -2.000e+00 -2.000e+00 -2.000e+00 -2.000e+00 -2.000e+00 -2.000e+00 -2.000e+00 9.700e+01 9.700e+01 9.700e+01 9.700e+01 9.700e+01 9.700e+01 9.700e+01 9.700e+01 9.700e+01 9.700e+01 9.700e+01 9.700e+01 9.700e+01 9.700e+01 9.700e+01 9.700e+01 9.700e+01 9.700e+01 9.700e+01 9.700e+01 9.700e+01 9.700e+01 9.700e+01 9.700e+01 9.700e+01 9.700e+01 9.700e+01 9.700e+01 9.700e+01 9.700e+01 9.700e+01 9.700e+01 9.700e+01 9.700e+01 9.700e+01 9.700e+01 9.700e+01 9.700e+01 9.700e+01 9.700e+01 9.700e+01 9.700e+01 9.700e+01 9.700e+01 9.700e+01 9.700e+01 9.700e+01 9.700e+01 9.700e+01 9.700e+01 9.700e+01 9.700e+01 9.700e+01 9.700e+01 -4.000e+00 -4.000e+00 -4.000e+00 -4.000e+00 -4.000e+00 -4.000e+00 -4.000e+00 -4.000e+00 -4.000e+00 -4.000e+00 -4.000e+00 -4.000e+00 -4.000e+00 -4.000e+00 -4.000e+00 -4.000e+00 -4.000e+00 -4.000e+00 -4.000e+00 -4.000e+00
           </DataArray>
           <DataArray type="Float32" Name="rootDiameter" NumberOfComponents="1" format="ascii">
 6.800e-02 6.800e-02 6.800e-02 6.800e-02 6.800e-02 6.800e-02 6.800e-02 6.800e-02 6.800e-02 6.800e-02 6.800e-02 6.800e-02 4.201e-01 4.160e-01 4.137e-01 4.116e-01 4.097e-01 4.087e-01 4.074e-01 4.063e-01 4.051e-01 4.027e-01 3.002e-02 3.000e-02 3.002e-02 3.000e-02 3.001e-02 3.001e-02 3.000e-02 3.001e-02 3.000e-02 3.001e-02 3.001e-02 3.000e-02 3.001e-02 3.001e-02 3.001e-02 3.001e-02 3.001e-02 3.002e-02 3.000e-02 3.000e-02 3.000e-02 3.000e-02 3.000e-02 3.000e-02 3.000e-02 3.000e-02 3.000e-02 3.000e-02 3.000e-02 3.002e-02 3.000e-02 3.000e-02 3.000e-02 3.000e-02 3.000e-02 3.000e-02 3.000e-02 3.000e-02 3.000e-02 3.000e-02 3.000e-02 3.001e-02 3.000e-02 3.000e-02 3.001e-02 3.000e-02 3.001e-02 3.000e-02 3.001e-02 3.000e-02 3.001e-02 3.000e-02 3.001e-02 3.001e-02 1.015e-01 1.000e-01 9.868e-02 9.741e-02 9.624e-02 9.526e-02 9.444e-02 9.380e-02 9.324e-02 9.272e-02 9.225e-02 9.182e-02 9.144e-02 9.110e-02 9.081e-02 9.056e-02 9.036e-02 9.020e-02 9.009e-02 9.002e-02
           </DataArray>
           <DataArray type="Float32" Name="rootLength2Base" NumberOfComponents="1" format="ascii">
 0.000e+00 7.969e-01 1.681e+00 0.000e+00 7.969e-01 1.681e+00 0.000e+00 7.969e-01 1.681e+00 0.000e+00 7.969e-01 1.681e+00 0.000e+00 7.500e-01 1.440e+00 2.300e+00 3.200e+00 3.800e+00 4.700e+00 5.560e+00 6.440e+00 7.316e+00 0.000e+00 8.478e-01 0.000e+00 8.597e-01 0.000e+00 0.000e+00 8.588e-01 0.000e+00 8.486e-01 0.000e+00 0.000e+00 8.267e-01 0.000e+00 0.000e+00 0.000e+00 0.000e+00 0.000e+00 0.000e+00 8.628e-01 0.000e+00 0.000e+00 0.000e+00 0.000e+00 0.000e+00 0.000e+00 0.000e+00 0.000e+00 0.000e+00 0.000e+00 0.000e+00 8.306e-01 0.000e+00 0.000e+00 0.000e+00 0.000e+00 0.000e+00 0.000e+00 0.000e+00 0.000e+00 0.000e+00 0.000e+00 0.000e+00 8.841e-01 0.000e+00 0.000e+00 8.468e-01 0.000e+00 8.697e-01 0.000e+00 8.838e-01 0.000e+00 8.741e-01 0.000e+00 0.000e+00 0.000e+00 7.071e-01 1.414e+00 2.121e+00 2.828e+00 3.535e+00 4.243e+00 4.950e+00 5.657e+00 6.364e+00 7.071e+00 7.778e+00 8.485e+00 9.192e+00 9.899e+00 1.061e+01 1.131e+01 1.202e+01 1.273e+01 1.343e+01
           </DataArray>
           <DataArray type="Float32" Name="rootPotentialSecondaryGrowth" NumberOfComponents="1" format="ascii">
 6.800e-02 6.800e-02 6.800e-02 6.800e-02 6.800e-02 6.800e-02 6.800e-02 6.800e-02 6.800e-02 6.800e-02 6.800e-02 6.800e-02 4.201e-01 4.160e-01 4.137e-01 4.116e-01 4.097e-01 4.087e-01 4.074e-01 4.063e-01 4.051e-01 4.027e-01 3.002e-02 3.000e-02 3.002e-02 3.000e-02 3.001e-02 3.001e-02 3.000e-02 3.001e-02 3.000e-02 3.001e-02 3.001e-02 3.000e-02 3.001e-02 3.001e-02 3.001e-02 3.001e-02 3.001e-02 3.002e-02 3.000e-02 3.000e-02 3.000e-02 3.000e-02 3.000e-02 3.000e-02 3.000e-02 3.000e-02 3.000e-02 3.000e-02 3.000e-02 3.002e-02 3.000e-02 3.000e-02 3.000e-02 3.000e-02 3.000e-02 3.000e-02 3.000e-02 3.000e-02 3.000e-02 3.000e-02 3.000e-02 3.001e-02 3.000e-02 3.000e-02 3.001e-02 3.000e-02 3.001e-02 3.000e-02 3.001e-02 3.000e-02 3.001e-02 3.000e-02 3.001e-02 3.001e-02 1.015e-01 1.000e-01 9.868e-02 9.740e-02 9.624e-02 9.525e-02 9.444e-02 9.380e-02 9.324e-02 9.272e-02 9.225e-02 9.182e-02 9.144e-02 9.110e-02 9.081e-02 9.056e-02 9.036e-02 9.020e-02 9.009e-02 9.002e-02
           </DataArray>