<?xml version="1.0"?>
<VTKFile type="UnstructuredGrid" version="0.1" byte_order="LittleEndian">
   <UnstructuredGrid>
      <Piece NumberOfPoints="45370" NumberOfCells="3249">
         <Points>
            <DataArray type="Float32" Name="Position" NumberOfComponents="3" format="ascii">
0.140	-5.031	-0.076
0.139	-5.022	-0.073
0.134	-5.016	-0.067
0.128	-5.016	-0.061
0.122	-5.021	-0.056
0.118	-5.030	-0.055
0.119	-5.038	-0.058
0.124	-5.044	-0.064
0.130	-5.044	-0.070
0.137	-5.039	-0.075
0.717	-5.179	0.527
0.716	-5.170	0.531
0.712	-5.165	0.537
0.705	-5.165	0.544
0.699	-5.171	0.548
0.696	-5.179	0.549
0.696	-5.188	0.545
0.701	-5.193	0.539
0.707	-5.193	0.532
0.713	-5.188	0.528
1.310	-5.416	1.057
1.310	-5.407	1.060
1.305	-5.402	1.067
1.299	-5.403	1.074
1.293	-5.408	1.078
1.290	-5.417	1.078
1.290	-5.425	1.075
1.295	-5.430	1.068
1.301	-5.430	1.061
1.307	-5.424	1.057
1.953	-5.590	1.666
1.952	-5.581	1.668
1.947	-5.575	1.673
1.940	-5.574	1.679
1.934	-5.579	1.684
1.930	-5.587	1.685
1.931	-5.596	1.683
1.936	-5.602	1.678
1.943	-5.603	1.672
1.949	-5.599	1.667
2.292	-5.645	2.160
2.291	-5.636	2.161
2.287	-5.629	2.165
2.279	-5.627	2.171
2.272	-5.631	2.175
2.268	-5.638	2.177
2.268	-5.648	2.176
2.273	-5.655	2.172
2.280	-5.657	2.167
2.287	-5.653	2.162
0.242	-5.081	-0.122
0.250	-5.077	-0.124
0.260	-5.078	-0.124
0.266	-5.085	-0.125
0.268	-5.094	-0.124
0.264	-5.102	-0.123
0.256	-5.106	-0.122
0.247	-5.105	-0.122
0.240	-5.099	-0.121
0.238	-5.090	-0.122
0.162	-5.129	-0.973
0.170	-5.125	-0.975
0.179	-5.126	-0.975
0.186	-5.133	-0.975
0.187	-5.142	-0.974
0.183	-5.150	-0.973
0.175	-5.154	-0.972
0.166	-5.153	-0.971
0.159	-5.146	-0.971
0.158	-5.137	-0.972
0.061	-5.272	-1.816
0.069	-5.268	-1.818
0.078	-5.270	-1.819
0.085	-5.276	-1.819
0.086	-5.285	-1.818
0.082	-5.293	-1.816
0.074	-5.297	-1.813
0.065	-5.296	-1.812
0.059	-5.289	-1.812
0.057	-5.280	-1.814
-0.136	-5.447	-2.648
-0.129	-5.442	-2.651
-0.120	-5.442	-2.654
-0.113	-5.448	-2.655
-0.110	-5.456	-2.655
-0.113	-5.465	-2.653
-0.120	-5.470	-2.650
-0.129	-5.470	-2.647
-0.136	-5.464	-2.646
-0.139	-5.455	-2.646
-0.233	-5.461	-2.889
-0.226	-5.455	-2.892
-0.218	-5.454	-2.895
-0.210	-5.459	-2.898
-0.207	-5.468	-2.899
-0.209	-5.477	-2.898
-0.215	-5.483	-2.895
-0.224	-5.483	-2.891
-0.231	-5.479	-2.889
-0.235	-5.470	-2.888
1.232	-5.873	-0.570
1.241	-5.871	-0.572
1.250	-5.874	-0.572
1.255	-5.881	-0.571
1.256	-5.890	-0.568
1.251	-5.897	-0.565
1.242	-5.899	-0.562
1.233	-5.896	-0.562
1.227	-5.889	-0.564
1.227	-5.880	-0.566
1.108	-6.145	-1.368
1.116	-6.142	-1.371
1.125	-6.143	-1.373
1.131	-6.150	-1.372
1.133	-6.159	-1.370
1.129	-6.167	-1.367
1.121	-6.170	-1.364
1.112	-6.168	-1.362
1.105	-6.162	-1.363
1.104	-6.153	-1.365
0.822	-6.322	-2.187
0.831	-6.318	-2.189
0.840	-6.320	-2.190
0.846	-6.327	-2.190
0.847	-6.336	-2.188
0.843	-6.344	-2.186
0.835	-6.347	-2.183
0.826	-6.346	-2.182
0.820	-6.339	-2.182
0.818	-6.330	-2.184
0.799	-6.507	-3.053
0.808	-6.505	-3.054
0.817	-6.508	-3.053
0.822	-6.515	-3.050
0.821	-6.524	-3.048
0.816	-6.531	-3.045
0.807	-6.533	-3.045
0.798	-6.530	-3.045
0.793	-6.523	-3.048
0.793	-6.514	-3.051
0.814	-6.839	-3.845
0.824	-6.838	-3.845
0.831	-6.842	-3.843
0.835	-6.850	-3.838
0.832	-6.858	-3.834
0.825	-6.863	-3.831
0.816	-6.864	-3.831
0.808	-6.859	-3.834
0.805	-6.852	-3.838
0.807	-6.844	-3.842
0.817	-6.867	-3.887
0.826	-6.868	-3.886
0.833	-6.873	-3.883
0.835	-6.880	-3.878
0.832	-6.887	-3.873
0.824	-6.891	-3.870
0.815	-6.890	-3.871
0.807	-6.886	-3.874
0.805	-6.878	-3.879
0.809	-6.871	-3.884
5.170	-18.474	-2.090
5.177	-18.469	-2.094
5.186	-18.470	-2.097
5.193	-18.475	-2.099
5.196	-18.484	-2.098
5.193	-18.492	-2.094
5.187	-18.497	-2.090
5.178	-18.497	-2.087
5.171	-18.491	-2.085
5.168	-18.482	-2.086
4.863	-18.678	-2.826
4.870	-18.674	-2.831
4.878	-18.676	-2.834
4.885	-18.682	-2.835
4.888	-18.690	-2.833
4.885	-18.698	-2.828
4.879	-18.702	-2.823
4.870	-18.701	-2.819
4.863	-18.695	-2.819
4.861	-18.686	-2.821
4.774	-18.770	-2.977
4.781	-18.768	-2.983
4.789	-18.770	-2.986
4.795	-18.777	-2.986
4.798	-18.785	-2.982
4.795	-18.792	-2.976
4.788	-18.794	-2.971
4.779	-18.792	-2.967
4.773	-18.785	-2.968
4.771	-18.777	-2.971
5.203	-18.621	-2.105
5.205	-18.617	-2.097
5.206	-18.619	-2.088
5.206	-18.625	-2.081
5.205	-18.634	-2.080
5.203	-18.642	-2.084
5.201	-18.646	-2.092
5.200	-18.645	-2.101
5.199	-18.638	-2.108
5.201	-18.629	-2.109
6.026	-18.748	-2.243
6.028	-18.744	-2.235
6.030	-18.746	-2.226
6.030	-18.752	-2.219
6.028	-18.761	-2.218
6.026	-18.769	-2.221
6.023	-18.773	-2.229
6.022	-18.772	-2.238
6.022	-18.765	-2.245
6.024	-18.756	-2.247
6.220	-18.802	-2.282
6.222	-18.798	-2.274
6.224	-18.799	-2.265
6.223	-18.806	-2.258
6.221	-18.815	-2.256
6.218	-18.823	-2.260
6.216	-18.827	-2.268
6.214	-18.825	-2.277
6.215	-18.819	-2.283
6.217	-18.810	-2.285
5.224	-18.770	-2.108
5.225	-18.766	-2.100
5.226	-18.767	-2.091
5.225	-18.773	-2.084
5.224	-18.782	-2.082
5.223	-18.791	-2.086
5.222	-18.795	-2.094
5.221	-18.794	-2.103
5.221	-18.787	-2.110
5.222	-18.778	-2.112
6.096	-18.887	-2.183
6.097	-18.882	-2.174
6.098	-18.884	-2.165
6.098	-18.890	-2.159
6.097	-18.899	-2.157
6.095	-18.907	-2.161
6.094	-18.912	-2.169
6.093	-18.910	-2.178
6.094	-18.904	-2.185
6.095	-18.895	-2.187
5.240	-18.918	-2.111
5.243	-18.914	-2.103
5.245	-18.916	-2.094
5.246	-18.923	-2.088
5.245	-18.932	-2.088
5.244	-18.940	-2.092
5.242	-18.944	-2.101
5.240	-18.942	-2.109
5.239	-18.935	-2.115
5.239	-18.926	-2.116
6.074	-18.956	-2.311
6.077	-18.952	-2.302
6.079	-18.955	-2.294
6.081	-18.962	-2.288
6.080	-18.971	-2.287
6.078	-18.979	-2.292
6.076	-18.982	-2.300
6.073	-18.980	-2.309
6.072	-18.973	-2.315
6.072	-18.964	-2.315
6.273	-18.982	-2.365
6.281	-18.982	-2.361
6.290	-18.982	-2.362
6.297	-18.982	-2.369
6.298	-18.982	-2.378
6.294	-18.982	-2.386
6.286	-18.982	-2.390
6.276	-18.982	-2.389
6.270	-18.982	-2.382
6.268	-18.982	-2.373
5.260	-19.067	-2.118
5.263	-19.063	-2.110
5.265	-19.065	-2.101
5.265	-19.072	-2.094
5.263	-19.081	-2.093
5.261	-19.089	-2.097
5.258	-19.092	-2.105
5.256	-19.091	-2.114
5.256	-19.084	-2.120
5.258	-19.075	-2.122
5.956	-19.202	-2.278
5.958	-19.198	-2.270
5.960	-19.200	-2.261
5.960	-19.206	-2.255
5.959	-19.215	-2.253
5.956	-19.223	-2.257
5.954	-19.227	-2.265
5.952	-19.225	-2.274
5.952	-19.219	-2.281
5.953	-19.210	-2.282
5.291	-19.234	-2.117
5.294	-19.225	-2.116
5.291	-19.217	-2.114
5.283	-19.212	-2.111
5.274	-19.213	-2.109
5.267	-19.219	-2.109
5.265	-19.228	-2.110
5.268	-19.236	-2.112
5.275	-19.241	-2.115
5.284	-19.240	-2.117
5.473	-19.397	-1.315
5.476	-19.388	-1.314
5.473	-19.379	-1.312
5.466	-19.374	-1.310
5.456	-19.375	-1.308
5.449	-19.380	-1.308
5.446	-19.389	-1.309
5.449	-19.397	-1.311
5.456	-19.403	-1.313
5.466	-19.402	-1.315
5.479	-19.402	-1.185
5.479	-19.397	-1.176
5.479	-19.399	-1.167
5.479	-19.405	-1.161
5.479	-19.415	-1.159
5.479	-19.423	-1.163
5.479	-19.427	-1.172
5.479	-19.426	-1.181
5.479	-19.419	-1.187
5.479	-19.410	-1.189
5.310	-19.386	-2.116
5.310	-19.381	-2.109
5.307	-19.373	-2.105
5.301	-19.366	-2.107
5.296	-19.362	-2.113
5.293	-19.363	-2.122
5.293	-19.368	-2.130
5.296	-19.376	-2.133
5.302	-19.383	-2.131
5.307	-19.387	-2.125
4.628	-19.831	-1.826
4.628	-19.826	-1.818
4.625	-19.818	-1.815
4.619	-19.811	-1.816
4.614	-19.807	-1.823
4.611	-19.808	-1.832
4.611	-19.813	-1.839
4.614	-19.821	-1.843
4.620	-19.828	-1.841
4.625	-19.832	-1.835
5.321	-19.511	-2.135
5.325	-19.508	-2.127
5.328	-19.510	-2.119
5.330	-19.518	-2.113
5.329	-19.527	-2.112
5.326	-19.535	-2.116
5.322	-19.538	-2.124
5.319	-19.535	-2.133
5.318	-19.528	-2.138
5.318	-19.519	-2.139
6.078	-19.605	-2.451
6.082	-19.602	-2.443
6.085	-19.604	-2.434
6.087	-19.611	-2.429
6.086	-19.621	-2.428
6.083	-19.628	-2.432
6.080	-19.632	-2.440
6.076	-19.629	-2.448
6.075	-19.622	-2.454
6.076	-19.613	-2.455
5.330	-19.666	-2.128
5.335	-19.659	-2.132
5.342	-19.657	-2.137
5.350	-19.661	-2.141
5.354	-19.668	-2.142
5.355	-19.677	-2.140
5.350	-19.684	-2.136
5.343	-19.686	-2.130
5.335	-19.682	-2.127
5.330	-19.675	-2.125
4.884	-19.846	-2.824
4.888	-19.840	-2.828
4.896	-19.838	-2.834
4.903	-19.841	-2.837
4.908	-19.849	-2.838
4.908	-19.858	-2.836
4.904	-19.865	-2.832
4.896	-19.867	-2.826
4.889	-19.863	-2.823
4.884	-19.855	-2.822
5.365	-19.832	-2.140
5.367	-19.826	-2.134
5.365	-19.817	-2.132
5.360	-19.809	-2.135
5.354	-19.806	-2.141
5.350	-19.808	-2.149
5.348	-19.815	-2.155
5.350	-19.824	-2.157
5.355	-19.831	-2.154
5.361	-19.835	-2.148
4.754	-20.052	-1.731
4.756	-20.045	-1.725
4.754	-20.037	-1.723
4.749	-20.029	-1.726
4.744	-20.026	-1.733
4.739	-20.028	-1.741
4.738	-20.035	-1.747
4.739	-20.044	-1.749
4.744	-20.051	-1.746
4.750	-20.054	-1.739
1.338	-5.982	-0.614
1.341	-5.978	-0.606
1.343	-5.980	-0.597
1.343	-5.987	-0.591
1.342	-5.996	-0.589
1.340	-6.004	-0.594
1.338	-6.008	-0.602
1.336	-6.006	-0.611
1.335	-5.999	-0.617
1.336	-5.990	-0.618
2.187	-6.098	-0.825
2.189	-6.094	-0.817
2.190	-6.095	-0.808
2.190	-6.102	-0.801
2.188	-6.111	-0.799
2.186	-6.119	-0.803
2.184	-6.123	-0.811
2.183	-6.122	-0.820
2.184	-6.115	-0.827
2.185	-6.106	-0.829
3.075	-6.327	-0.838
3.076	-6.322	-0.831
3.074	-6.321	-0.822
3.071	-6.325	-0.815
3.068	-6.333	-0.812
3.065	-6.342	-0.814
3.065	-6.348	-0.821
3.067	-6.349	-0.830
3.070	-6.344	-0.838
3.073	-6.336	-0.841
3.757	-6.600	-0.508
3.757	-6.593	-0.502
3.753	-6.590	-0.494
3.749	-6.593	-0.486
3.744	-6.600	-0.482
3.741	-6.609	-0.484
3.741	-6.616	-0.490
3.744	-6.618	-0.498
3.749	-6.616	-0.506
3.754	-6.609	-0.509
5.381	-19.981	-2.152
5.381	-19.975	-2.145
5.379	-19.967	-2.142
5.373	-19.959	-2.144
5.368	-19.956	-2.151
5.364	-19.957	-2.159
5.364	-19.963	-2.166
5.367	-19.972	-2.169
5.372	-19.979	-2.167
5.377	-19.983	-2.160
4.775	-20.305	-1.821
4.775	-20.299	-1.814
4.773	-20.291	-1.811
4.767	-20.283	-1.813
4.762	-20.280	-1.819
4.758	-20.281	-1.828
4.758	-20.287	-1.835
4.760	-20.296	-1.838
4.766	-20.303	-1.835
4.771	-20.307	-1.829
5.398	-20.129	-2.168
5.399	-20.124	-2.160
5.395	-20.117	-2.155
5.388	-20.110	-2.156
5.382	-20.106	-2.161
5.377	-20.107	-2.169
5.376	-20.112	-2.177
5.380	-20.119	-2.181
5.386	-20.126	-2.181
5.393	-20.129	-2.176
4.834	-20.665	-1.799
4.835	-20.660	-1.791
4.831	-20.653	-1.786
[...]
         <CellData>
           <DataArray type="Float32" Name="combinedRootClassID" NumberOfComponents="1" format="ascii">
 -1.300e+01 -1.300e+01 -1.300e+01 -1.300e+01 -1.300e+01 -1.300e+01 -1.300e+01 -1.300e+01 -1.300e+01 -1.300e+01 -1.300e+01 -1.300e+01 -1.300e+01 -1.300e+01 -1.300e+01 -1.300e+01 -1.300e+01 -1.300e+01 -1.300e+01 -1.300e+01 -1.300e+01 -1.300e+01 -1.300e+01 -1.300e+01 -1.300e+01 -1.300e+01 -1.300e+01 -1.300e+01 -1.300e+01 -1.300e+01 -1.300e+01 -1.300e+01 -1.300e+01 -1.300e+01 -1.300e+01 -1.300e+01 -1.300e+01 -1.300e+01 -1.300e+01 -1.300e+01 -1.300e+01 -1.300e+01 -1.300e+01 -1.300e+01 -1.300e+01 -1.300e+01 -1.300e+01 -1.300e+01 -1.300e+01 -1.300e+01 -1.300e+01 -1.300e+01 -1.300e+01 -1.300e+01 -1.300e+01 -1.300e+01 -1.300e+01 -1.300e+01 -1.300e+01 -1.300e+01 -1.300e+01 -1.300e+01 -1.300e+01 -1.300e+01 -1.300e+01 -1.300e+01 -1.300e+01 -1.300e+01 -1.300e+01 -1.300e+01 -1.300e+01 -1.300e+01 -1.300e+01 -1.300e+01 -1.300e+01 -1.300e+01 -1.300e+01 -1.300e+01 -1.300e+01 -1.300e+01 -1.300e+01 -1.300e+01 -1.300e+01 -1.300e+01 -1.300e+01 -1.300e+01 -1.300e+01 -1.300e+01 -1.300e+01 -1.300e+01 -1.300e+01 -1.300e+01 -1.300e+01 -1.300e+01 -1.300e+01 -1.300e+01 -1.300e+01 -1.300e+01 -1.300e+01 -1.300e+01 -1.300e+01 -1.300e+01 -1.300e+01 -1.300e+01 -1.300e+01 -1.300e+01 -1.300e+01 -1.300e+01 -1.300e+01 -1.300e+01 -1.300e+01 -1.300e+01 -1.300e+01 -1.300e+01 -1.300e+01 -1.300e+01 -1.300e+01 -1.300e+01 -1.300e+01 -1.300e+01 -1.300e+01 -1.300e+01 -1.300e+01 -1.300e+01 -1.300e+01 -1.300e+01 -1.300e+01 -1.300e+01 -1.300e+01 -1.300e+01 -1.300e+01 -1.300e+01 -1.300e+01 -1.300e+01 -1.300e+01 -1.300e+01 -1.300e+01 -1.300e+01 -1.300e+01 -1.300e+01 -1.300e+01 -1.300e+01 -1.300e+01 -1.300e+01 -1.300e+01 -1.300e+01 -1.300e+01 -1.300e+01 -1.300e+01 -1.300e+01 -1.300e+01 -1.300e+01 -1.300e+01 -1.300e+01 -1.300e+01 -1.300e+01 -1.300e+01 -1.300e+01 -1.300e+01 -1.300e+01 -1.300e+01 -1.300e+01 -1.300e+01 -1.300e+01 -1.300e+01 -1.300e+01 -1.300e+01 -1.300e+01 -1.300e+01 -1.300e+01 -1.300e+01 -1.300e+01 -1.300e+01 -1.300e+01 -1.300e+01 -1.300e+01 -1.300e+01 -1.300e+01 -1.300e+01 -1.300e+01 -1.300e+01 -1.300e+01 -1.300e+01 -1.300e+01 -1.300e+01 -1.300e+01 -1.300e+01 -1.300e+01 -1.300e+01 -1.300e+01 -1.300e+01 -1.300e+01 -1.300e+01 -1.300e+01 -1.300e+01 -1.300e+01 -1.300e+01 -1.300e+01 -1.300e+01 -1.300e+01 -1.300e+01 -1.300e+01 -1.300e+01 -1.300e+01 -1.300e+01 -1.300e+01 -1.300e+01 -1.300e+01 -1.300e+01 -1.300e+01 -1.300e+01 -1.300e+01 -1.300e+01 -1.300e+01 -1.300e+01 -1.300e+01 -1.300e+01 -1.300e+01 -1.300e+01 -1.300e+01 -1.300e+01 -1.300e+01 -1.300e+01 -1.300e+01 -1.300e+01 -1.300e+01 -1.300e+01 -1.300e+01 -1.300e+01 -1.300e+01 -1.300e+01 -1.300e+01 -1.300e+01 -1.300e+01 -1.300e+01 -1.300e+01 -1.300e+01 -1.300e+01 -1.300e+01 -1.300e+01 -1.300e+01 -1.300e+01 -1.300e+01 -1.300e+01 -1.300e+01 -1.300e+01 -1.300e+01 -1.300e+01 -1.300e+01 -1.300e+01 -1.300e+01 -1.300e+01 -1.300e+01 -1.300e+01 -1.300e+01 -1.300e+01 -1.300e+01 -1.300e+01 -1.300e+01 -1.300e+01 -1.300e+01 -1.300e+01 -1.300e+01 -1.300e+01 -1.300e+01 -1.300e+01 -1.300e+01 -1.300e+01 -1.300e+01 -1.300e+01 -1.300e+01 -1.300e+01 -1.300e+01 -1.300e+01 -1.300e+01 -1.300e+01 -1.300e+01 -1.300e+01 -1.300e+01 -1.300e+01 -1.300e+01 -1.300e+01 -1.300e+01 -1.300e+01 -1.300e+01 -1.300e+01 -1.300e+01 -1.300e+01 -1.300e+01 -1.300e+01 -1.300e+01 -1.300e+01 -1.300e+01 -1.300e+01 -1.300e+01 -1.300e+01 -1.300e+01 -1.300e+01 -1.300e+01 -1.300e+01 -1.300e+01 -1.300e+01 -1.300e+01 -1.300e+01 -1.300e+01 -1.300e+01 -1.300e+01 -1.300e+01 -1.300e+01 -1.300e+01 -1.300e+01 -1.300e+01 -1.300e+01 -1.300e+01 -1.300e+01 -1.300e+01 -1.300e+01 -1.300e+01 -1.300e+01 -1.300e+01 -1.300e+01 -1.300e+01 -1.300e+01 -1.300e+01 -1.300e+01 -1.300e+01 -1.300e+01 -1.300e+01 -1.300e+01 -1.300e+01 -1.300e+01 -1.300e+01 -1.300e+01 -1.300e+01 -1.300e+01 -1.300e+01 -1.300e+01 -1.300e+01 -1.300e+01 -5.000e+00 -5.000e+00 -5.000e+00 -5.000e+00 -5.000e+00 -5.000e+00 -5.000e+00 -5.000e+00 -5.000e+00 -5.000e+00 -5.000e+00 -5.000e+00 -5.000e+00 -5.000e+00 -5.000e+00 -5.000e+00 -5.000e+00 -5.000e+00 -5.000e+00 -5.000e+00 -5.000e+00 -5.000e+00 -5.000e+00 -5.000e+00 -5.000e+00 -5.000e+00 -5.000e+00 -5.000e+00 -5.000e+00 -5.000e+00 -5.000e+00 -5.000e+00 -5.000e+00 -5.000e+00 -5.000e+00 -5.000e+00 -5.000e+00 -5.000e+00 -1.300e+01 -1.300e+01 -1.300e+01 -1.300e+01 -1.300e+01 -1.300e+01 -1.300e+01 -1.300e+01 -1.300e+01 -1.300e+01 -1.300e+01 -1.300e+01 -1.300e+01 -1.300e+01 -1.300e+01 -1.300e+01 -1.300e+01 -1.300e+01 -1.300e+01 -1.300e+01 -1.300e+01 -1.300e+01 -1.300e+01 -1.300e+01 -1.300e+01 -1.300e+01 -1.300e+01 -1.300e+01 -1.300e+01 -1.300e+01 -1.300e+01 -1.300e+01 -1.300e+01 -1.300e+01 -1.300e+01 -1.300e+01 -1.300e+01 -1.300e+01 -1.300e+01 -1.300e+01 -1.300e+01 -1.300e+01 -1.300e+01 -1.300e+01 -1.300e+01 -1.300e+01 -1.300e+01 -1.300e+01 -1.300e+01 -1.300e+01 -1.300e+01 -1.300e+01 -1.300e+01 -1.300e+01 -1.300e+01 -1.300e+01 -1.300e+01 -1.300e+01 -1.300e+01 -1.300e+01 -1.300e+01 -1.300e+01 -1.300e+01 -1.300e+01 -1.300e+01 -1.300e+01 -1.300e+01 -1.300e+01 -1.300e+01 -1.300e+01 -1.300e+01 -1.300e+01 -1.300e+01 -1.300e+01 -1.300e+01 -1.300e+01 -1.300e+01 -1.300e+01 -1.300e+01 -1.300e+01 -1.300e+01 -1.300e+01 -1.300e+01 -1.300e+01 -1.300e+01 -1.300e+01 -1.300e+01 -1.300e+01 -1.300e+01 -1.300e+01 -1.300e+01 -1.300e+01 -1.300e+01 -1.300e+01 -1.300e+01 -1.300e+01 -1.300e+01 -1.300e+01 -1.300e+01 -1.300e+01 -1.300e+01 -1.300e+01 -1.300e+01 -1.300e+01 -1.300e+01 -1.300e+01 -1.300e+01 -1.300e+01 -1.300e+01 -1.300e+01 -1.300e+01 -1.300e+01 -1.300e+01 -1.300e+01 -1.300e+01 -1.300e+01 -1.300e+01 -1.300e+01 -1.300e+01 -1.300e+01 -1.300e+01 -1.300e+01 -1.300e+01 -1.300e+01 -1.300e+01 -1.300e+01 -1.300e+01 -1.300e+01 -1.300e+01 -1.300e+01 -1.300e+01 -1.300e+01 -1.300e+01 -1.300e+01 -1.300e+01 -1.300e+01 -1.300e+01 -1.300e+01 -1.300e+01 -1.300e+01 -1.300e+01 -1.300e+01 -1.300e+01 -1.300e+01 -1.300e+01 -1.300e+01 -1.300e+01 -1.300e+01 -1.300e+01 -1.300e+01 -1.300e+01 -1.300e+01 -1.300e+01 -1.300e+01 -1.300e+01 -1.300e+01 -1.300e+01 -1.300e+01 -1.300e+01 -1.300e+01 -1.300e+01 -1.300e+01 -1.300e+01 -1.300e+01 -1.300e+01 -1.300e+01 -1.300e+01 -1.300e+01 -1.300e+01 -1.300e+01 -1.300e+01 -1.300e+01 -1.300e+01 -1.300e+01 -1.300e+01 -1.300e+01 -1.300e+01 -1.300e+01 -1.300e+01 -1.300e+01 -1.300e+01 -1.300e+01 -1.300e+01 -1.300e+01 -1.300e+01 -1.300e+01 -1.300e+01 -1.300e+01 -1.300e+01 -1.300e+01 -1.300e+01 -1.300e+01 -1.300e+01 -1.300e+01 -1.300e+01 -1.300e+01 -1.300e+01 -1.300e+01 -1.300e+01 -1.300e+01 -1.300e+01 -1.300e+01 -1.300e+01 -1.300e+01 -1.300e+01 -1.300e+01 -1.300e+01 -1.300e+01 -1.300e+01 -1.300e+01 -1.300e+01 -1.300e+01 -1.300e+01 -1.300e+01 -1.300e+01 -1.300e+01 -1.300e+01 -1.300e+01 -1.300e+01 -1.300e+01 -1.300e+01 -1.300e+01 -1.300e+01 -1.300e+01 -1.300e+01 -1.300e+01 -1.300e+01 -1.300e+01 -1.300e+01 -1.300e+01 -1.300e+01 -1.300e+01 -1.300e+01 -1.300e+01 -1.300e+01 -1.300e+01 -1.300e+01 -1.300e+01 -1.300e+01 -1.300e+01 -1.300e+01 -1.300e+01 -1.300e+01 -1.300e+01 -1.300e+01 -1.300e+01 -1.300e+01 -1.300e+01 -1.300e+01 -1.300e+01 -1.300e+01 -1.300e+01 -1.300e+01 -1.300e+01 -1.300e+01 -1.300e+01 -1.300e+01 -1.300e+01 -1.300e+01 -1.300e+01 -1.300e+01 -1.300e+01 -1.300e+01 -1.300e+01 -1.300e+01 -1.300e+01 -1.300e+01 -1.300e+01 -1.300e+01 -1.300e+01 -1.300e+01 -1.300e+01 -1.300e+01 -1.300e+01 -1.300e+01 -1.300e+01 -1.300e+01 -1.300e+01 -1.300e+01 -1.300e+01 -1.300e+01 -1.300e+01 -1.300e+01 -1.300e+01 -1.300e+01 -1.300e+01 -1.300e+01 -1.300e+01 -1.300e+01 -1.300e+01 -1.300e+01 -1.300e+01 -1.300e+01 -1.300e+01 -1.300e+01 -1.300e+01 -1.300e+01 -1.300e+01 -1.300e+01 -1.300e+01 -1.300e+01 -1.300e+01 -1.300e+01 -1.300e+01 -1.300e+01 -1.300e+01 -1.300e+01 -1.300e+01 -1.300e+01 -1.300e+01 -1.300e+01 -1.300e+01 -1.300e+01 -1.300e+01 -1.300e+01 -1.300e+01 -1.300e+01 -1.300e+01 -1.300e+01 -1.300e+01 -1.300e+01 -1.300e+01 -1.300e+01 -1.300e+01 -1.300e+01 -1.300e+01 -1.300e+01 -1.300e+01 -1.300e+01 -1.300e+01 -1.300e+01 -1.300e+01 -1.300e+01 -1.300e+01 -1.300e+01 -5.000e+00 -5.000e+00 -5.000e+00 -5.000e+00 -5.000e+00 -5.000e+00 -5.000e+00 -5.000e+00 -5.000e+00 -5.000e+00 -5.000e+00 -5.000e+00 -5.000e+00 -5.000e+00 -5.000e+00 -5.000e+00 -5.000e+00 -5.000e+00 -5.000e+00 -5.000e+00 -5.000e+00 -5.000e+00 -5.000e+00 -5.000e+00 -5.000e+00 -5.000e+00 -5.000e+00 -5.000e+00 -5.000e+00 -5.000e+00 -5.000e+00 -5.000e+00 -5.000e+00 -5.000e+00 -5.000e+00 -5.000e+00 -5.000e+00 -5.000e+00 -1.300e+01 -1.300e+01 -1.300e+01 -1.300e+01 -1.300e+01 -1.300e+01 -1.300e+01 -1.300e+01 -1.300e+01 -1.300e+01 -1.300e+01 -1.300e+01 -1.300e+01 -1.300e+01 -1.300e+01 -1.300e+01 -1.300e+01 -1.300e+01 -1.300e+01 -1.300e+01 -1.300e+01 -1.300e+01 -1.300e+01 -1.300e+01 -1.300e+01 -1.300e+01 -1.300e+01 -1.300e+01 -1.300e+01 -1.300e+01 -1.300e+01 -1.300e+01 -1.300e+01 -1.300e+01 -1.300e+01 -1.300e+01 -1.300e+01 -1.300e+01 -1.300e+01 -1.300e+01 -1.300e+01 -1.300e+01 -1.300e+01 -1.300e+01 -1.300e+01 -1.300e+01 -1.300e+01 -1.300e+01 -1.300e+01 -1.300e+01 -1.300e+01 -1.300e+01 -1.300e+01 -1.300e+01 -1.300e+01 -1.300e+01 -1.300e+01 -1.300e+01 -1.300e+01 -1.300e+01 -1.300e+01 -1.300e+01 -1.300e+01 -1.300e+01 -1.300e+01 -1.300e+01 -1.300e+01 -1.300e+01 -1.300e+01 -1.300e+01 -1.300e+01 -1.300e+01 -1.300e+01 -1.300e+01 -1.300e+01 -1.300e+01 -1.300e+01 -1.300e+01 -1.300e+01 -1.300e+01 -1.300e+01 -1.300e+01 -1.300e+01 -1.300e+01 -1.300e+01 -1.300e+01 -1.300e+01 -1.300e+01 -1.300e+01 -1.300e+01 -1.300e+01 -1.300e+01 -1.300e+01 -1.300e+01 -1.300e+01 -1.300e+01 -1.300e+01 -1.300e+01 -1.300e+01 -1.300e+01 -1.300e+01 -1.300e+01 -1.300e+01 -1.300e+01 -1.300e+01 -1.300e+01 -1.300e+01 -1.300e+01 -1.300e+01 -1.300e+01 -1.300e+01 -1.300e+01 -1.300e+01 -1.300e+01 -1.300e+01 -1.300e+01 -1.300e+01 -1.300e+01 -1.300e+01 -1.300e+01 -1.300e+01 -1.300e+01 -1.300e+01 -1.300e+01 -1.300e+01 -1.300e+01 -1.300e+01 -1.300e+01 -1.300e+01 -1.300e+01 -1.300e+01 -1.300e+01 -1.300e+01 -1.300e+01 -1.300e+01 -1.300e+01 -1.300e+01 -1.300e+01 -1.300e+01 -1.300e+01 -1.300e+01 -1.300e+01 -1.300e+01 -1.300e+01 -1.300e+01 -1.300e+01 -1.300e+01 -1.300e+01 -1.300e+01 -1.300e+01 -1.300e+01 -1.300e+01 -1.300e+01 -1.300e+01 -1.300e+01 -1.300e+01 -1.300e+01 -1.300e+01 -1.300e+01 -1.300e+01 -1.300e+01 -1.300e+01 -1.300e+01 -1.300e+01 -1.300e+01 -1.300e+01 -1.300e+01 -1.300e+01 -1.300e+01 -1.300e+01 -1.300e+01 -1.300e+01 -1.300e+01 -1.300e+01 -1.300e+01 -1.300e+01 -1.300e+01 -1.300e+01 -1.300e+01 -1.300e+01 -1.300e+01 -1.300e+01 -1.300e+01 -1.300e+01 -1.300e+01 -1.300e+01 -1.300e+01 -1.300e+01 -1.300e+01 -1.300e+01 -1.300e+01 -1.300e+01 -1.300e+01 -1.300e+01 -1.300e+01 -1.300e+01 -1.300e+01 -1.300e+01 -1.300e+01 -1.300e+01 -1.300e+01 -1.300e+01 -1.300e+01 -1.300e+01 -1.300e+01 -1.300e+01 -1.300e+01 -1.300e+01 -1.300e+01 -1.300e+01 -1.300e+01 -1.300e+01 -1.300e+01 -1.300e+01 -1.300e+01 -1.300e+01 -1.300e+01 -1.300e+01 -1.300e+01 -1.300e+01 -1.300e+01 -1.300e+01 -1.300e+01 -1.300e+01 -1.300e+01 -1.300e+01 -1.300e+01 -1.300e+01 -1.300e+01 -1.300e+01 -1.300e+01 -1.300e+01 -1.300e+01 -1.300e+01 -1.300e+01 -1.300e+01 -1.300e+01 -1.300e+01 -1.300e+01 -1.300e+01 -1.300e+01 -1.300e+01 -1.300e+01 -1.300e+01 -1.300e+01 -1.300e+01 -1.300e+01 -1.300e+01 -1.300e+01 -1.300e+01 -1.300e+01 -1.300e+01 -1.300e+01 -1.300e+01 -1.300e+01 -1.300e+01 -1.300e+01 -1.300e+01 -1.300e+01 -1.300e+01 -1.300e+01 -1.300e+01 -1.300e+01 -1.300e+01 -1.300e+01 -1.300e+01 -1.300e+01 -1.300e+01 -1.300e+01 -1.300e+01 -1.300e+01 -1.300e+01 -1.300e+01 -1.300e+01 -1.300e+01 -1.300e+01 -1.300e+01 -1.300e+01 -1.300e+01 -1.300e+01 -1.300e+01 -1.300e+01 -1.300e+01 -1.300e+01 -1.300e+01 -1.300e+01 -1.300e+01 -1.300e+01 -1.300e+01 -1.300e+01 -1.300e+01 -1.300e+01 -1.300e+01 -1.300e+01 -1.300e+01 -1.300e+01 -1.300e+01 -1.300e+01 -1.300e+01 -1.300e+01 -1.300e+01 -1.300e+01 -1.300e+01 -1.300e+01 -1.300e+01 -1.300e+01 -1.300e+01 -1.300e+01 -1.300e+01 -1.300e+01 -1.300e+01 -1.300e+01 -1.300e+01 -1.300e+01 -1.300e+01 -1.300e+01 -1.300e+01 -1.300e+01 -1.300e+01 -1.300e+01 -1.300e+01 -1.300e+01 -1.300e+01 -1.300e+01 -1.300e+01 -1.300e+01 -1.300e+01 -1.300e+01 -5.000e+00 -5.000e+00 -5.000e+00 -5.000e+00 -5.000e+00 -5.000e+00 -5.000e+00 -5.000e+00 -5.000e+00 -5.000e+00 -5.000e+00 -5.000e+00 -5.000e+00 -5.000e+00 -5.000e+00 -5.000e+00 -5.000e+00 -5.000e+00 -5.000e+00 -5.000e+00 -5.000e+00 -5.000e+00 -5.000e+00 -5.000e+00 -5.000e+00 -5.000e+00 -5.000e+00 -5.000e+00 -5.000e+00 -5.000e+00 -5.000e+00 -5.000e+00 -5.000e+00 -5.000e+00 -5.000e+00 -5.000e+00 -5.000e+00 -5.000e+00 -1.300e+01 -1.300e+01 -1.300e+01 -1.300e+01 -1.300e+01 -1.300e+01 -1.300e+01 -1.300e+01 -1.300e+01 -1.300e+01 -1.300e+01 -1.300e+01 -1.300e+01 -1.300e+01 -1.300e+01 -1.300e+01 -1.300e+01 -1.300e+01 -1.300e+01 -1.300e+01 -1.300e+01 -1.300e+01 -1.300e+01 -1.300e+01 -1.300e+01 -1.300e+01 -1.300e+01 -1.300e+01 -1.300e+01 -1.300e+01 -1.300e+01 -1.300e+01 -1.300e+01 -1.300e+01 -1.300e+01 -1.300e+01 -1.300e+01 -1.300e+01 -1.300e+01 -1.300e+01 -1.300e+01 -1.300e+01 -1.300e+01 -1.300e+01 -1.300e+01 -1.300e+01 -1.300e+01 -1.300e+01 -1.300e+01 -1.300e+01 -1.300e+01 -1.300e+01 -1.300e+01 -1.300e+01 -1.300e+01 -1.300e+01 -1.300e+01 -1.300e+01 -1.300e+01 -1.300e+01 -1.300e+01 -1.300e+01 -1.300e+01 -1.300e+01 -1.300e+01 -1.300e+01 -1.300e+01 -1.300e+01 -1.300e+01 -1.300e+01 -1.300e+01 -1.300e+01 -1.300e+01 -1.300e+01 -1.300e+01 -1.300e+01 -1.300e+01 -1.300e+01 -1.300e+01 -1.300e+01 -1.300e+01 -1.300e+01 -1.300e+01 -1.300e+01 -1.300e+01 -1.300e+01 -1.300e+01 -1.300e+01 -1.300e+01 -1.300e+01 -1.300e+01 -1.300e+01 -1.300e+01 -1.300e+01 -1.300e+01 -1.300e+01 -1.300e+01 -1.300e+01 -1.300e+01 -1.300e+01 -1.300e+01 -1.300e+01 -1.300e+01 -1.300e+01 -1.300e+01 -1.300e+01 -1.300e+01 -1.300e+01 -1.300e+01 -1.300e+01 -1.300e+01 -1.300e+01 -1.300e+01 -1.300e+01 -1.300e+01 -1.300e+01 -1.300e+01 -1.300e+01 -1.300e+01 -1.300e+01 -1.300e+01 -1.300e+01 -1.300e+01 -1.300e+01 -1.300e+01 -1.300e+01 -1.300e+01 -1.300e+01 -1.300e+01 -1.300e+01 -1.300e+01 -1.300e+01 -1.300e+01 -1.300e+01 -1.300e+01 -1.300e+01 -1.300e+01 -1.300e+01 -1.300e+01 -1.300e+01 -1.300e+01 -1.300e+01 -1.300e+01 -1.300e+01 -1.300e+01 -1.300e+01 -1.300e+01 -1.300e+01 -1.300e+01 -1.300e+01 -1.300e+01 -1.300e+01 -1.300e+01 -1.300e+01 -1.300e+01 -1.300e+01 -1.300e+01 -1.300e+01 -1.300e+01 -1.300e+01 -1.300e+01 -1.300e+01 -1.300e+01 -1.300e+01 -1.300e+01 -1.300e+01 -1.300e+01 -1.300e+01 -1.300e+01 -1.300e+01 -1.300e+01 -1.300e+01 -1.300e+01 -1.300e+01 -1.300e+01 -1.300e+01 -1.300e+01 -1.300e+01 -1.300e+01 -1.300e+01 -1.300e+01 -1.300e+01 -1.300e+01 -1.300e+01 -1.300e+01 -1.300e+01 -1.300e+01 -1.300e+01 -1.300e+01 -1.300e+01 -1.300e+01 -1.300e+01 -1.300e+01 -1.300e+01 -1.300e+01 -1.300e+01 -1.300e+01 -1.300e+01 -1.300e+01 -1.300e+01 -1.300e+01 -1.300e+01 -1.300e+01 -1.300e+01 -1.300e+01 -1.300e+01 -1.300e+01 -1.300e+01 -1.300e+01 -1.300e+01 -1.300e+01 -1.300e+01 -1.300e+01 -1.300e+01 -1.300e+01 -1.300e+01 -1.300e+01 -1.300e+01 -1.300e+01 -1.300e+01 -1.300e+01 -1.300e+01 -1.300e+01 -1.300e+01 -1.300e+01 -1.300e+01 -1.300e+01 -1.300e+01 -1.300e+01 -1.300e+01 -1.300e+01 -1.300e+01 -1.300e+01 -1.300e+01 -1.300e+01 -1.300e+01 -1.300e+01 -1.300e+01 -1.300e+01 -1.300e+01 -1.300e+01 -1.300e+01 -1.300e+01 -1.300e+01 -1.300e+01 -1.300e+01 -1.300e+01 -1.300e+01 -1.300e+01 -1.300e+01 -1.300e+01 -1.300e+01 -1.300e+01 -1.300e+01 -1.300e+01 -1.300e+01 -1.300e+01 -1.300e+01 -1.300e+01 -1.300e+01 -1.300e+01 -1.300e+01 -1.300e+01 -1.300e+01 -1.300e+01 -1.300e+01 -1.300e+01 -1.300e+01 -1.300e+01 -1.300e+01 -1.300e+01 -1.300e+01 -1.300e+01 -1.300e+01 -1.300e+01 -1.300e+01 -1.300e+01 -1.300e+01 -1.300e+01 -1.300e+01 -1.300e+01 -1.300e+01 -1.300e+01 -1.300e+01 -1.300e+01 -1.300e+01 -1.300e+01 -1.300e+01 -1.300e+01 -1.300e+01 -1.300e+01 -1.300e+01 -1.300e+01 -1.300e+01 -1.300e+01 -1.300e+01 -1.300e+01 -1.300e+01 -1.300e+01 -1.300e+01 -1.300e+01 -1.300e+01 -1.300e+01 -1.300e+01 -1.300e+01 -1.300e+01 -1.300e+01 -1.300e+01 -1.300e+01 -1.300e+01 -1.300e+01 -1.300e+01 -1.300e+01 -1.300e+01 -1.300e+01 -1.300e+01 -1.300e+01 -1.300e+01 -1.300e+01 -1.300e+01 -1.300e+01 -1.300e+01 -1.300e+01 -1.300e+01 -1.300e+01 -1.300e+01 -1.300e+01 -1.300e+01 -1.300e+01 -1.300e+01 -1.300e+01 -1.300e+01 -1.300e+01 -1.300e+01 -1.300e+01 -1.300e+01 -1.300e+01 -1.300e+01 -1.300e+01 -5.000e+00 -5.000e+00 -5.000e+00 -5.000e+00 -5.000e+00 -5.000e+00 -5.000e+00 -5.000e+00 -5.000e+00 -5.000e+00 -5.000e+00 -5.000e+00 -5.000e+00 -5.000e+00 -5.000e+00 -5.000e+00 -5.000e+00 -5.000e+00 -5.000e+00 -5.000e+00 -5.000e+00 -5.000e+00 -5.000e+00 -5.000e+00 -5.000e+00 -5.000e+00 -5.000e+00 -5.000e+00 -5.000e+00 -5.000e+00 -5.000e+00 -5.000e+00 -5.000e+00 -5.000e+00 -5.000e+00 -5.000e+00 -5.000e+00 -5.000e+00 -1.900e+01 -1.900e+01 -1.900e+01 -1.900e+01 -1.900e+01 -1.900e+01 -1.900e+01 -1.900e+01 -1.900e+01 -1.900e+01 -1.900e+01 -1.900e+01 -1.900e+01 -1.900e+01 -1.900e+01 -1.900e+01 -1.900e+01 -1.900e+01 -1.900e+01 -1.900e+01 -1.900e+01 -1.900e+01 -1.900e+01 -1.900e+01 -1.900e+01 -1.900e+01 -1.900e+01 -1.900e+01 -1.900e+01 -1.900e+01 -1.900e+01 -1.900e+01 -1.900e+01 -1.900e+01 -1.900e+01 -1.900e+01 -1.900e+01 -1.900e+01 -1.900e+01 -1.900e+01 -1.900e+01 -1.900e+01 -1.900e+01 -1.900e+01 -1.900e+01 -1.900e+01 -1.900e+01 -1.900e+01 -1.900e+01 -1.900e+01 -1.900e+01 -1.900e+01 -1.900e+01 -1.900e+01 -1.900e+01 -1.900e+01 -1.900e+01 -1.900e+01 -1.900e+01 -1.900e+01 -1.900e+01 -1.900e+01 -1.900e+01 -1.900e+01 -1.900e+01 -1.900e+01 -1.900e+01 -1.900e+01 -1.900e+01 -1.900e+01 -1.900e+01 -1.900e+01 -1.900e+01 -1.900e+01 -1.900e+01 -1.900e+01 -1.900e+01 -1.900e+01 -1.900e+01 -1.900e+01 -1.900e+01 -1.900e+01 -1.900e+01 -1.900e+01 -1.900e+01 -1.900e+01 -1.900e+01 -1.900e+01 -1.900e+01 -1.900e+01 -1.900e+01 -1.900e+01 -1.900e+01 -1.900e+01 -1.900e+01 -1.900e+01 -1.900e+01 -1.900e+01 -1.900e+01 -1.900e+01 -1.900e+01 -1.900e+01 -1.900e+01 -1.900e+01 -1.900e+01 -1.900e+01 -1.900e+01 -1.900e+01 -1.900e+01 -1.100e+01 -1.100e+01 -1.100e+01 -1.100e+01 -1.100e+01 -1.100e+01 -1.100e+01 -1.100e+01 -1.100e+01 -1.100e+01 -1.100e+01 -1.100e+01 -1.100e+01 -1.100e+01 -1.100e+01 -1.100e+01 -1.100e+01 -1.100e+01 -1.100e+01 -1.100e+01 -1.100e+01 -1.100e+01 -1.100e+01 -1.100e+01 -1.100e+01 -1.100e+01 -1.100e+01 -1.100e+01 -1.900e+01 -1.900e+01 -1.900e+01 -1.900e+01 -1.900e+01 -1.900e+01 -1.900e+01 -1.900e+01 -1.900e+01 -1.900e+01 -1.900e+01 -1.900e+01 -1.900e+01 -1.900e+01 -1.900e+01 -1.900e+01 -1.900e+01 -1.900e+01 -1.900e+01 -1.900e+01 -1.900e+01 -1.900e+01 -1.900e+01 -1.900e+01 -1.900e+01 -1.900e+01 -1.900e+01 -1.900e+01 -1.900e+01 -1.900e+01 -1.900e+01 -1.900e+01 -1.900e+01 -1.900e+01 -1.900e+01 -1.900e+01 -1.900e+01 -1.900e+01 -1.900e+01 -1.900e+01 -1.900e+01 -1.900e+01 -1.900e+01 -1.900e+01 -1.900e+01 -1.900e+01 -1.900e+01 -1.900e+01 -1.900e+01 -1.900e+01 -1.900e+01 -1.900e+01 -1.900e+01 -1.900e+01 -1.900e+01 -1.900e+01 -1.900e+01 -1.900e+01 -1.900e+01 -1.900e+01 -1.900e+01 -1.900e+01 -1.900e+01 -1.900e+01 -1.900e+01 -1.900e+01 -1.900e+01 -1.900e+01 -1.900e+01 -1.900e+01 -1.900e+01 -1.900e+01 -1.900e+01 -1.900e+01 -1.900e+01 -1.900e+01 -1.900e+01 -1.900e+01 -1.900e+01 -1.900e+01 -1.900e+01 -1.900e+01 -1.900e+01 -1.900e+01 -1.900e+01 -1.900e+01 -1.900e+01 -1.900e+01 -1.900e+01 -1.900e+01 -1.900e+01 -1.900e+01 -1.900e+01 -1.900e+01 -1.900e+01 -1.900e+01 -1.900e+01 -1.900e+01 -1.900e+01 -1.900e+01 -1.900e+01 -1.900e+01 -1.900e+01 -1.900e+01 -1.900e+01 -1.900e+01 -1.900e+01 -1.900e+01 -1.900e+01 -1.900e+01 -1.100e+01 -1.100e+01 -1.100e+01 -1.100e+01 -1.100e+01 -1.100e+01 -1.100e+01 -1.100e+01 -1.100e+01 -1.100e+01 -1.100e+01 -1.100e+01 -1.100e+01 -1.100e+01 -1.100e+01 -1.100e+01 -1.100e+01 -1.100e+01 -1.100e+01 -1.100e+01 -1.100e+01 -1.100e+01 -1.100e+01 -1.100e+01 -1.100e+01 -1.100e+01 -1.100e+01 -1.100e+01 -1.900e+01 -1.900e+01 -1.900e+01 -1.900e+01 -1.900e+01 -1.900e+01 -1.900e+01 -1.900e+01 -1.900e+01 -1.900e+01 -1.900e+01 -1.900e+01 -1.900e+01 -1.900e+01 -1.900e+01 -1.900e+01 -1.900e+01 -1.900e+01 -1.900e+01 -1.900e+01 -1.900e+01 -1.900e+01 -1.900e+01 -1.900e+01 -1.900e+01 -1.900e+01 -1.900e+01 -1.900e+01 -1.900e+01 -1.900e+01 -1.900e+01 -1.900e+01 -1.900e+01 -1.900e+01 -1.900e+01 -1.900e+01 -1.900e+01 -1.900e+01 -1.900e+01