<?xml version="1.0"?>
<VTKFile type="UnstructuredGrid" version="0.1" byte_order="LittleEndian">
   <UnstructuredGrid>
      <Piece NumberOfPoints="74650" NumberOfCells="5522">
         <Points>
            <DataArray type="Float32" Name="Position" NumberOfComponents="3" format="ascii">
0.140	-5.031	-0.076
0.139	-5.022	-0.073
0.134	-5.016	-0.067
0.128	-5.016	-0.061
0.122	-5.021	-0.056
0.118	-5.030	-0.055
0.119	-5.038	-0.058
0.124	-5.044	-0.064
0.130	-5.044	-0.070
0.137	-5.039	-0.075
0.717	-5.179	0.527
0.716	-5.170	0.531
0.712	-5.165	0.537
0.705	-5.165	0.544
0.699	-5.171	0.548
0.696	-5.179	0.549
0.696	-5.188	0.545
0.701	-5.193	0.539
0.707	-5.193	0.532
0.713	-5.188	0.528
1.310	-5.416	1.057
1.310	-5.407	1.060
1.305	-5.402	1.067
1.299	-5.403	1.074
1.293	-5.408	1.078
1.290	-5.417	1.078
1.290	-5.425	1.075
1.295	-5.430	1.068
1.301	-5.430	1.061
1.307	-5.424	1.057
1.953	-5.591	1.666
1.952	-5.582	1.668
1.948	-5.575	1.673
1.941	-5.574	1.679
1.934	-5.578	1.683
1.930	-5.587	1.685
1.930	-5.596	1.683
1.935	-5.602	1.678
1.942	-5.603	1.672
1.949	-5.599	1.668
2.386	-5.660	2.434
2.388	-5.651	2.435
2.384	-5.642	2.437
2.377	-5.638	2.440
2.368	-5.639	2.443
2.361	-5.645	2.445
2.360	-5.655	2.445
2.363	-5.663	2.442
2.371	-5.667	2.439
2.379	-5.666	2.436
2.397	-5.667	2.496
2.400	-5.658	2.496
2.397	-5.649	2.497
2.390	-5.644	2.499
2.381	-5.644	2.501
2.373	-5.650	2.502
2.370	-5.658	2.502
2.373	-5.667	2.500
2.380	-5.672	2.498
2.390	-5.672	2.497
0.242	-5.081	-0.122
0.250	-5.077	-0.124
0.260	-5.078	-0.124
0.266	-5.085	-0.125
0.268	-5.094	-0.124
0.264	-5.102	-0.123
0.256	-5.106	-0.122
0.247	-5.105	-0.122
0.240	-5.099	-0.121
0.238	-5.090	-0.122
0.162	-5.129	-0.973
0.170	-5.125	-0.975
0.179	-5.126	-0.975
0.186	-5.133	-0.975
0.187	-5.142	-0.974
0.183	-5.150	-0.973
0.175	-5.154	-0.972
0.166	-5.153	-0.971
0.159	-5.146	-0.971
0.158	-5.137	-0.972
0.061	-5.272	-1.816
0.069	-5.268	-1.818
0.078	-5.270	-1.819
0.085	-5.276	-1.819
0.086	-5.285	-1.818
0.082	-5.293	-1.816
0.074	-5.297	-1.813
0.065	-5.296	-1.812
0.059	-5.289	-1.812
0.057	-5.280	-1.814
-0.136	-5.447	-2.648
-0.129	-5.442	-2.651
-0.121	-5.442	-2.654
-0.113	-5.447	-2.655
-0.110	-5.456	-2.655
-0.113	-5.465	-2.653
-0.120	-5.470	-2.650
-0.129	-5.470	-2.647
-0.136	-5.464	-2.645
-0.139	-5.456	-2.646
-0.375	-5.478	-3.174
-0.369	-5.472	-3.177
-0.361	-5.470	-3.181
-0.353	-5.475	-3.184
-0.349	-5.483	-3.185
-0.350	-5.492	-3.184
-0.356	-5.499	-3.181
-0.365	-5.500	-3.177
-0.372	-5.495	-3.174
-0.376	-5.487	-3.173
1.232	-5.873	-0.570
1.241	-5.871	-0.572
1.250	-5.874	-0.572
1.255	-5.881	-0.571
1.256	-5.890	-0.568
1.251	-5.897	-0.565
1.242	-5.899	-0.562
1.233	-5.896	-0.562
1.227	-5.889	-0.564
1.227	-5.880	-0.566
1.108	-6.145	-1.368
1.116	-6.142	-1.371
1.125	-6.143	-1.373
1.131	-6.150	-1.372
1.133	-6.159	-1.370
1.129	-6.167	-1.367
1.121	-6.170	-1.364
1.112	-6.168	-1.362
1.105	-6.162	-1.363
1.104	-6.153	-1.365
0.822	-6.322	-2.187
0.831	-6.318	-2.189
0.840	-6.320	-2.190
0.846	-6.327	-2.190
0.847	-6.336	-2.188
0.843	-6.344	-2.186
0.835	-6.347	-2.183
0.826	-6.346	-2.182
0.820	-6.339	-2.182
0.818	-6.330	-2.184
0.799	-6.507	-3.053
0.808	-6.505	-3.054
0.817	-6.508	-3.053
0.822	-6.515	-3.050
0.821	-6.524	-3.048
0.816	-6.531	-3.045
0.807	-6.533	-3.045
0.798	-6.530	-3.045
0.793	-6.523	-3.048
0.793	-6.514	-3.051
0.814	-6.839	-3.845
0.823	-6.838	-3.845
0.831	-6.842	-3.843
0.835	-6.850	-3.839
0.833	-6.858	-3.834
0.825	-6.863	-3.832
0.816	-6.864	-3.831
0.808	-6.859	-3.834
0.805	-6.852	-3.838
0.807	-6.844	-3.842
0.807	-7.152	-4.312
0.816	-7.152	-4.312
0.823	-7.157	-4.309
0.826	-7.164	-4.304
0.822	-7.172	-4.299
0.815	-7.176	-4.296
0.805	-7.175	-4.296
0.798	-7.171	-4.299
0.796	-7.163	-4.304
0.799	-7.156	-4.309
5.170	-18.474	-2.090
5.177	-18.469	-2.094
5.186	-18.470	-2.097
5.193	-18.475	-2.099
5.196	-18.484	-2.098
5.193	-18.492	-2.094
5.187	-18.497	-2.090
5.178	-18.497	-2.087
5.171	-18.491	-2.085
5.168	-18.482	-2.086
4.863	-18.678	-2.825
4.869	-18.675	-2.831
4.878	-18.676	-2.835
4.885	-18.682	-2.836
4.888	-18.690	-2.833
4.885	-18.698	-2.828
4.879	-18.702	-2.823
4.871	-18.701	-2.819
4.864	-18.694	-2.818
4.861	-18.686	-2.820
4.429	-19.129	-3.410
4.436	-19.128	-3.416
4.444	-19.132	-3.418
4.450	-19.139	-3.417
4.451	-19.147	-3.412
4.448	-19.152	-3.405
4.441	-19.153	-3.399
4.433	-19.149	-3.396
4.427	-19.142	-3.398
4.426	-19.134	-3.403
4.089	-19.496	-3.835
4.097	-19.496	-3.840
4.104	-19.501	-3.842
4.109	-19.508	-3.840
4.110	-19.515	-3.834
4.106	-19.520	-3.827
4.098	-19.519	-3.821
4.091	-19.515	-3.819
4.085	-19.507	-3.822
4.085	-19.500	-3.827
5.203	-18.621	-2.105
5.205	-18.617	-2.097
5.206	-18.619	-2.088
5.206	-18.625	-2.081
5.205	-18.634	-2.080
5.203	-18.642	-2.084
5.201	-18.646	-2.092
5.200	-18.645	-2.101
5.199	-18.638	-2.108
5.201	-18.629	-2.109
6.027	-18.749	-2.243
6.029	-18.745	-2.235
6.030	-18.746	-2.226
6.029	-18.752	-2.219
6.027	-18.761	-2.217
6.025	-18.769	-2.221
6.022	-18.773	-2.229
6.022	-18.772	-2.238
6.022	-18.766	-2.245
6.025	-18.757	-2.247
6.844	-19.071	-2.301
6.847	-19.067	-2.294
6.847	-19.067	-2.285
6.845	-19.072	-2.277
6.841	-19.080	-2.275
6.837	-19.088	-2.278
6.835	-19.093	-2.285
6.834	-19.092	-2.294
6.837	-19.087	-2.302
6.840	-19.079	-2.305
7.419	-19.406	-2.293
7.427	-19.402	-2.293
7.436	-19.403	-2.293
7.443	-19.410	-2.293
7.444	-19.419	-2.293
7.440	-19.427	-2.293
7.432	-19.432	-2.293
7.422	-19.430	-2.293
7.416	-19.424	-2.293
7.414	-19.414	-2.293
5.224	-18.770	-2.108
5.225	-18.766	-2.100
5.226	-18.767	-2.091
5.225	-18.773	-2.084
5.224	-18.782	-2.082
5.223	-18.791	-2.086
5.222	-18.795	-2.094
5.221	-18.794	-2.103
5.221	-18.787	-2.110
5.222	-18.778	-2.112
6.096	-18.886	-2.182
6.097	-18.882	-2.174
6.097	-18.884	-2.165
6.097	-18.890	-2.159
6.097	-18.899	-2.157
6.096	-18.908	-2.161
6.095	-18.912	-2.169
6.094	-18.910	-2.178
6.094	-18.904	-2.185
6.095	-18.895	-2.187
6.972	-18.924	-2.230
6.973	-18.919	-2.222
6.974	-18.921	-2.212
6.973	-18.927	-2.206
6.973	-18.936	-2.204
6.972	-18.944	-2.208
6.971	-18.949	-2.216
6.971	-18.947	-2.225
6.971	-18.941	-2.232
6.972	-18.932	-2.234
7.264	-18.963	-2.244
7.265	-18.959	-2.235
7.265	-18.960	-2.226
7.265	-18.966	-2.219
7.263	-18.975	-2.218
7.262	-18.984	-2.222
7.261	-18.988	-2.230
7.261	-18.987	-2.239
7.261	-18.981	-2.246
7.263	-18.972	-2.247
5.240	-18.918	-2.111
5.243	-18.914	-2.103
5.245	-18.916	-2.094
5.246	-18.923	-2.088
5.245	-18.932	-2.088
5.244	-18.940	-2.092
5.242	-18.944	-2.101
5.240	-18.942	-2.109
5.239	-18.935	-2.115
5.239	-18.926	-2.116
6.074	-18.956	-2.311
6.077	-18.952	-2.303
6.079	-18.954	-2.294
6.080	-18.962	-2.288
6.080	-18.971	-2.287
6.078	-18.979	-2.292
6.076	-18.982	-2.300
6.074	-18.980	-2.309
6.073	-18.973	-2.315
6.073	-18.964	-2.315
6.922	-19.004	-2.547
6.924	-19.000	-2.539
6.926	-19.002	-2.530
6.926	-19.009	-2.524
6.926	-19.018	-2.523
6.925	-19.026	-2.528
6.923	-19.030	-2.536
6.921	-19.028	-2.545
6.920	-19.021	-2.551
6.921	-19.012	-2.552
7.722	-19.038	-2.660
7.723	-19.034	-2.652
7.724	-19.036	-2.643
7.725	-19.043	-2.637
7.725	-19.052	-2.636
7.724	-19.060	-2.640
7.722	-19.064	-2.648
7.721	-19.062	-2.657
7.720	-19.055	-2.664
7.721	-19.046	-2.665
5.261	-19.067	-2.118
5.263	-19.063	-2.110
5.265	-19.065	-2.101
5.264	-19.071	-2.094
5.263	-19.080	-2.093
5.260	-19.088	-2.097
5.258	-19.092	-2.105
5.256	-19.091	-2.114
5.257	-19.084	-2.120
5.258	-19.075	-2.122
6.103	-19.255	-2.282
6.104	-19.250	-2.274
6.105	-19.250	-2.265
6.103	-19.256	-2.258
6.100	-19.264	-2.255
6.097	-19.273	-2.258
6.095	-19.277	-2.266
6.095	-19.277	-2.275
6.097	-19.271	-2.283
6.100	-19.263	-2.285
6.851	-19.599	-2.151
6.859	-19.595	-2.151
6.868	-19.596	-2.151
6.875	-19.603	-2.151
6.876	-19.612	-2.151
6.872	-19.620	-2.151
6.864	-19.625	-2.151
6.854	-19.623	-2.151
6.848	-19.617	-2.151
6.846	-19.607	-2.151
5.291	-19.234	-2.117
5.294	-19.225	-2.116
5.291	-19.217	-2.114
5.283	-19.212	-2.111
5.274	-19.213	-2.109
5.267	-19.219	-2.109
5.265	-19.228	-2.110
5.268	-19.236	-2.112
5.275	-19.241	-2.115
5.284	-19.240	-2.117
5.473	-19.397	-1.315
5.476	-19.388	-1.314
5.473	-19.380	-1.312
5.466	-19.374	-1.310
5.457	-19.374	-1.309
5.449	-19.380	-1.308
5.446	-19.388	-1.309
5.449	-19.397	-1.311
5.456	-19.403	-1.313
5.465	-19.402	-1.314
5.552	-19.469	-0.478
5.555	-19.460	-0.478
5.553	-19.451	-0.477
5.546	-19.445	-0.476
5.537	-19.445	-0.474
5.529	-19.450	-0.473
5.526	-19.459	-0.473
5.528	-19.468	-0.474
5.535	-19.474	-0.476
5.545	-19.474	-0.477
5.701	-19.507	0.200
5.704	-19.498	0.200
5.702	-19.489	0.201
5.694	-19.484	0.203
5.685	-19.484	0.205
5.678	-19.490	0.206
5.675	-19.498	0.206
5.678	-19.507	0.205
5.685	-19.513	0.203
5.694	-19.512	0.201
5.310	-19.386	-2.116
5.310	-19.381	-2.109
5.307	-19.373	-2.105
5.301	-19.366	-2.107
5.296	-19.362	-2.113
5.293	-19.363	-2.122
5.293	-19.368	-2.130
5.296	-19.376	-2.133
5.302	-19.383	-2.131
5.307	-19.387	-2.125
4.628	-19.831	-1.825
4.629	-19.825	-1.818
4.627	-19.816	-1.816
4.622	-19.809	-1.818
4.616	-19.805	-1.825
4.611	-19.807	-1.833
4.610	-19.814	-1.839
4.612	-19.822	-1.842
4.617	-19.830	-1.839
4.623	-19.833	-1.833
3.991	-19.992	-1.219
3.995	-19.985	-1.214
3.993	-19.976	-1.213
3.988	-19.968	-1.215
3.981	-19.965	-1.220
3.975	-19.968	-1.227
3.972	-19.975	-1.231
3.973	-19.984	-1.233
3.978	-19.992	-1.230
3.985	-19.995	-1.225
3.765	-20.057	-0.931
3.765	-20.053	-0.923
3.765	-20.055	-0.914
3.765	-20.061	-0.907
3.765	-20.070	-0.906
3.765	-20.079	-0.910
3.765	-20.083	-0.918
3.765	-20.081	-0.927
3.765	-20.075	-0.934
3.765	-20.066	-0.935
5.321	-19.511	-2.135
5.325	-19.508	-2.127
5.328	-19.510	-2.119
5.330	-19.518	-2.113
5.329	-19.527	-2.112
5.326	-19.535	-2.116
5.322	-19.538	-2.124
5.319	-19.535	-2.133
5.318	-19.528	-2.138
5.318	-19.519	-2.139
6.133	-19.611	-2.482
6.136	-19.608	-2.474
6.139	-19.610	-2.465
6.141	-19.618	-2.460
6.140	-19.627	-2.459
6.138	-19.635	-2.464
6.134	-19.638	-2.472
6.131	-19.635	-2.480
6.129	-19.628	-2.485
6.130	-19.619	-2.486
6.950	-19.657	-2.796
6.953	-19.654	-2.788
6.955	-19.656	-2.780
6.957	-19.663	-2.774
6.956	-19.672	-2.773
6.954	-19.680	-2.778
6.952	-19.684	-2.786
6.949	-19.681	-2.794
6.948	-19.674	-2.800
6.948	-19.665	-2.801
7.257	-19.683	-2.863
7.259	-19.679	-2.855
[...]
         <CellData>
           <DataArray type="Float32" Name="combinedRootClassID" NumberOfComponents="1" format="ascii">
 -1.300e+01 -1.300e+01 -1.300e+01 -1.300e+01 -1.300e+01 -1.300e+01 -1.300e+01 -1.300e+01 -1.300e+01 -1.300e+01 -1.300e+01 -1.300e+01 -1.300e+01 -1.300e+01 -1.300e+01 -1.300e+01 -1.300e+01 -1.300e+01 -1.300e+01 -1.300e+01 -1.300e+01 -1.300e+01 -1.300e+01 -1.300e+01 -1.300e+01 -1.300e+01 -1.300e+01 -1.300e+01 -1.300e+01 -1.300e+01 -1.300e+01 -1.300e+01 -1.300e+01 -1.300e+01 -1.300e+01 -1.300e+01 -1.300e+01 -1.300e+01 -1.300e+01 -1.300e+01 -1.300e+01 -1.300e+01 -1.300e+01 -1.300e+01 -1.300e+01 -1.300e+01 -1.300e+01 -1.300e+01 -1.300e+01 -1.300e+01 -1.300e+01 -1.300e+01 -1.300e+01 -1.300e+01 -1.300e+01 -1.300e+01 -1.300e+01 -1.300e+01 -1.300e+01 -1.300e+01 -1.300e+01 -1.300e+01 -1.300e+01 -1.300e+01 -1.300e+01 -1.300e+01 -1.300e+01 -1.300e+01 -1.300e+01 -1.300e+01 -1.300e+01 -1.300e+01 -1.300e+01 -1.300e+01 -1.300e+01 -1.300e+01 -1.300e+01 -1.300e+01 -1.300e+01 -1.300e+01 -1.300e+01 -1.300e+01 -1.300e+01 -1.300e+01 -1.300e+01 -1.300e+01 -1.300e+01 -1.300e+01 -1.300e+01 -1.300e+01 -1.300e+01 -1.300e+01 -1.300e+01 -1.300e+01 -1.300e+01 -1.300e+01 -1.300e+01 -1.300e+01 -1.300e+01 -1.300e+01 -1.300e+01 -1.300e+01 -1.300e+01 -1.300e+01 -1.300e+01 -1.300e+01 -1.300e+01 -1.300e+01 -1.300e+01 -1.300e+01 -1.300e+01 -1.300e+01 -1.300e+01 -1.300e+01 -1.300e+01 -1.300e+01 -1.300e+01 -1.300e+01 -1.300e+01 -1.300e+01 -1.300e+01 -1.300e+01 -1.300e+01 -1.300e+01 -1.300e+01 -1.300e+01 -1.300e+01 -1.300e+01 -1.300e+01 -1.300e+01 -1.300e+01 -1.300e+01 -1.300e+01 -1.300e+01 -1.300e+01 -1.300e+01 -1.300e+01 -1.300e+01 -1.300e+01 -1.300e+01 -1.300e+01 -1.300e+01 -1.300e+01 -1.300e+01 -1.300e+01 -1.300e+01 -1.300e+01 -1.300e+01 -1.300e+01 -1.300e+01 -1.300e+01 -1.300e+01 -1.300e+01 -1.300e+01 -1.300e+01 -1.300e+01 -1.300e+01 -1.300e+01 -1.300e+01 -1.300e+01 -1.300e+01 -1.300e+01 -1.300e+01 -1.300e+01 -1.300e+01 -1.300e+01 -1.300e+01 -1.300e+01 -1.300e+01 -1.300e+01 -1.300e+01 -1.300e+01 -1.300e+01 -1.300e+01 -1.300e+01 -1.300e+01 -1.300e+01 -1.300e+01 -1.300e+01 -1.300e+01 -1.300e+01 -1.300e+01 -1.300e+01 -1.300e+01 -1.300e+01 -1.300e+01 -1.300e+01 -1.300e+01 -1.300e+01 -1.300e+01 -1.300e+01 -1.300e+01 -1.300e+01 -1.300e+01 -1.300e+01 -1.300e+01 -1.300e+01 -1.300e+01 -1.300e+01 -1.300e+01 -1.300e+01 -1.300e+01 -1.300e+01 -1.300e+01 -1.300e+01 -1.300e+01 -1.300e+01 -1.300e+01 -1.300e+01 -1.300e+01 -1.300e+01 -1.300e+01 -1.300e+01 -1.300e+01 -1.300e+01 -1.300e+01 -1.300e+01 -1.300e+01 -1.300e+01 -1.300e+01 -1.300e+01 -1.300e+01 -1.300e+01 -1.300e+01 -1.300e+01 -1.300e+01 -1.300e+01 -1.300e+01 -1.300e+01 -1.300e+01 -1.300e+01 -1.300e+01 -1.300e+01 -1.300e+01 -1.300e+01 -1.300e+01 -1.300e+01 -1.300e+01 -1.300e+01 -1.300e+01 -1.300e+01 -1.300e+01 -1.300e+01 -1.300e+01 -1.300e+01 -1.300e+01 -1.300e+01 -1.300e+01 -1.300e+01 -1.300e+01 -1.300e+01 -1.300e+01 -1.300e+01 -1.300e+01 -1.300e+01 -1.300e+01 -1.300e+01 -1.300e+01 -1.300e+01 -1.300e+01 -1.300e+01 -1.300e+01 -1.300e+01 -1.300e+01 -1.300e+01 -1.300e+01 -1.300e+01 -1.300e+01 -1.300e+01 -1.300e+01 -1.300e+01 -1.300e+01 -1.300e+01 -1.300e+01 -1.300e+01 -1.300e+01 -1.300e+01 -1.300e+01 -1.300e+01 -1.300e+01 -1.300e+01 -1.300e+01 -1.300e+01 -1.300e+01 -1.300e+01 -1.300e+01 -1.300e+01 -1.300e+01 -1.300e+01 -1.300e+01 -1.300e+01 -1.300e+01 -1.300e+01 -1.300e+01 -1.300e+01 -1.300e+01 -1.300e+01 -1.300e+01 -1.300e+01 -1.300e+01 -1.300e+01 -1.300e+01 -1.300e+01 -1.300e+01 -1.300e+01 -1.300e+01 -1.300e+01 -1.300e+01 -1.300e+01 -1.300e+01 -1.300e+01 -1.300e+01 -1.300e+01 -1.300e+01 -1.300e+01 -1.300e+01 -1.300e+01 -1.300e+01 -1.300e+01 -1.300e+01 -1.300e+01 -1.300e+01 -1.300e+01 -1.300e+01 -1.300e+01 -1.300e+01 -1.300e+01 -1.300e+01 -1.300e+01 -1.300e+01 -1.300e+01 -1.300e+01 -1.300e+01 -1.300e+01 -1.300e+01 -1.300e+01 -1.300e+01 -1.300e+01 -1.300e+01 -1.300e+01 -1.300e+01 -1.300e+01 -1.300e+01 -1.300e+01 -1.300e+01 -1.300e+01 -1.300e+01 -1.300e+01 -1.300e+01 -1.300e+01 -1.300e+01 -1.300e+01 -1.300e+01 -1.300e+01 -1.300e+01 -1.300e+01 -1.300e+01 -1.300e+01 -1.300e+01 -1.300e+01 -1.300e+01 -1.300e+01 -1.300e+01 -1.300e+01 -1.300e+01 -1.300e+01 -1.300e+01 -1.300e+01 -1.300e+01 -1.300e+01 -1.300e+01 -1.300e+01 -1.300e+01 -1.300e+01 -1.300e+01 -1.300e+01 -1.300e+01 -1.300e+01 -1.300e+01 -1.300e+01 -1.300e+01 -1.300e+01 -1.300e+01 -1.300e+01 -1.300e+01 -1.300e+01 -1.300e+01 -1.300e+01 -1.300e+01 -1.300e+01 -1.300e+01 -1.300e+01 -1.300e+01 -1.300e+01 -1.300e+01 -1.300e+01 -1.300e+01 -1.300e+01 -1.300e+01 -1.300e+01 -1.300e+01 -1.300e+01 -1.300e+01 -1.300e+01 -1.300e+01 -1.300e+01 -1.300e+01 -1.300e+01 -1.300e+01 -1.300e+01 -1.300e+01 -1.300e+01 -1.300e+01 -1.300e+01 -1.300e+01 -1.300e+01 -1.300e+01 -1.300e+01 -1.300e+01 -1.300e+01 -1.300e+01 -1.300e+01 -1.300e+01 -1.300e+01 -1.300e+01 -1.300e+01 -1.300e+01 -1.300e+01 -1.300e+01 -1.300e+01 -1.300e+01 -1.300e+01 -1.300e+01 -1.300e+01 -1.300e+01 -1.300e+01 -1.300e+01 -1.300e+01 -1.300e+01 -1.300e+01 -1.300e+01 -1.300e+01 -1.300e+01 -1.300e+01 -1.300e+01 -1.300e+01 -1.300e+01 -1.300e+01 -1.300e+01 -1.300e+01 -1.300e+01 -1.300e+01 -1.300e+01 -1.300e+01 -1.300e+01 -1.300e+01 -1.300e+01 -1.300e+01 -1.300e+01 -1.300e+01 -1.300e+01 -1.300e+01 -1.300e+01 -1.300e+01 -1.300e+01 -1.300e+01 -1.300e+01 -1.300e+01 -1.300e+01 -1.300e+01 -1.300e+01 -1.300e+01 -1.300e+01 -1.300e+01 -1.300e+01 -1.300e+01 -1.300e+01 -1.300e+01 -1.300e+01 -1.300e+01 -1.300e+01 -1.300e+01 -1.300e+01 -1.300e+01 -1.300e+01 -1.300e+01 -1.300e+01 -1.300e+01 -1.300e+01 -1.300e+01 -1.300e+01 -1.300e+01 -1.300e+01 -1.300e+01 -1.300e+01 -1.300e+01 -1.300e+01 -1.300e+01 -1.300e+01 -1.300e+01 -1.300e+01 -1.300e+01 -1.300e+01 -1.300e+01 -1.300e+01 -1.300e+01 -1.300e+01 -1.300e+01 -1.300e+01 -1.300e+01 -1.300e+01 -1.300e+01 -1.300e+01 -1.300e+01 -1.300e+01 -1.300e+01 -1.300e+01 -1.300e+01 -1.300e+01 -1.300e+01 -1.300e+01 -1.300e+01 -1.300e+01 -1.300e+01 -1.300e+01 -1.300e+01 -1.300e+01 -1.300e+01 -1.300e+01 -1.300e+01 -1.300e+01 -1.300e+01 -1.300e+01 -1.300e+01 -1.300e+01 -1.300e+01 -1.300e+01 -1.300e+01 -1.300e+01 -1.300e+01 -1.300e+01 -1.300e+01 -1.300e+01 -1.300e+01 -1.300e+01 -1.300e+01 -1.300e+01 -1.300e+01 -1.300e+01 -1.300e+01 -1.300e+01 -1.300e+01 -1.300e+01 -1.300e+01 -1.300e+01 -1.300e+01 -1.300e+01 -1.300e+01 -1.300e+01 -5.000e+00 -5.000e+00 -5.000e+00 -5.000e+00 -5.000e+00 -5.000e+00 -5.000e+00 -5.000e+00 -5.000e+00 -5.000e+00 -5.000e+00 -5.000e+00 -5.000e+00 -5.000e+00 -5.000e+00 -5.000e+00 -5.000e+00 -5.000e+00 -5.000e+00 -5.000e+00 -5.000e+00 -5.000e+00 -5.000e+00 -5.000e+00 -5.000e+00 -5.000e+00 -5.000e+00 -5.000e+00 -5.000e+00 -5.000e+00 -5.000e+00 -5.000e+00 -5.000e+00 -5.000e+00 -5.000e+00 -5.000e+00 -5.000e+00 -5.000e+00 -5.000e+00 -5.000e+00 -5.000e+00 -5.000e+00 -5.000e+00 -5.000e+00 -5.000e+00 -5.000e+00 -5.000e+00 -5.000e+00 -1.300e+01 -1.300e+01 -1.300e+01 -1.300e+01 -1.300e+01 -1.300e+01 -1.300e+01 -1.300e+01 -1.300e+01 -1.300e+01 -1.300e+01 -1.300e+01 -1.300e+01 -1.300e+01 -1.300e+01 -1.300e+01 -1.300e+01 -1.300e+01 -1.300e+01 -1.300e+01 -1.300e+01 -1.300e+01 -1.300e+01 -1.300e+01 -1.300e+01 -1.300e+01 -1.300e+01 -1.300e+01 -1.300e+01 -1.300e+01 -1.300e+01 -1.300e+01 -1.300e+01 -1.300e+01 -1.300e+01 -1.300e+01 -1.300e+01 -1.300e+01 -1.300e+01 -1.300e+01 -1.300e+01 -1.300e+01 -1.300e+01 -1.300e+01 -1.300e+01 -1.300e+01 -1.300e+01 -1.300e+01 -1.300e+01 -1.300e+01 -1.300e+01 -1.300e+01 -1.300e+01 -1.300e+01 -1.300e+01 -1.300e+01 -1.300e+01 -1.300e+01 -1.300e+01 -1.300e+01 -1.300e+01 -1.300e+01 -1.300e+01 -1.300e+01 -1.300e+01 -1.300e+01 -1.300e+01 -1.300e+01 -1.300e+01 -1.300e+01 -1.300e+01 -1.300e+01 -1.300e+01 -1.300e+01 -1.300e+01 -1.300e+01 -1.300e+01 -1.300e+01 -1.300e+01 -1.300e+01 -1.300e+01 -1.300e+01 -1.300e+01 -1.300e+01 -1.300e+01 -1.300e+01 -1.300e+01 -1.300e+01 -1.300e+01 -1.300e+01 -1.300e+01 -1.300e+01 -1.300e+01 -1.300e+01 -1.300e+01 -1.300e+01 -1.300e+01 -1.300e+01 -1.300e+01 -1.300e+01 -1.300e+01 -1.300e+01 -1.300e+01 -1.300e+01 -1.300e+01 -1.300e+01 -1.300e+01 -1.300e+01 -1.300e+01 -1.300e+01 -1.300e+01 -1.300e+01 -1.300e+01 -1.300e+01 -1.300e+01 -1.300e+01 -1.300e+01 -1.300e+01 -1.300e+01 -1.300e+01 -1.300e+01 -1.300e+01 -1.300e+01 -1.300e+01 -1.300e+01 -1.300e+01 -1.300e+01 -1.300e+01 -1.300e+01 -1.300e+01 -1.300e+01 -1.300e+01 -1.300e+01 -1.300e+01 -1.300e+01 -1.300e+01 -1.300e+01 -1.300e+01 -1.300e+01 -1.300e+01 -1.300e+01 -1.300e+01 -1.300e+01 -1.300e+01 -1.300e+01 -1.300e+01 -1.300e+01 -1.300e+01 -1.300e+01 -1.300e+01 -1.300e+01 -1.300e+01 -1.300e+01 -1.300e+01 -1.300e+01 -1.300e+01 -1.300e+01 -1.300e+01 -1.300e+01 -1.300e+01 -1.300e+01 -1.300e+01 -1.300e+01 -1.300e+01 -1.300e+01 -1.300e+01 -1.300e+01 -1.300e+01 -1.300e+01 -1.300e+01 -1.300e+01 -1.300e+01 -1.300e+01 -1.300e+01 -1.300e+01 -1.300e+01 -1.300e+01 -1.300e+01 -1.300e+01 -1.300e+01 -1.300e+01 -1.300e+01 -1.300e+01 -1.300e+01 -1.300e+01 -1.300e+01 -1.300e+01 -1.300e+01 -1.300e+01 -1.300e+01 -1.300e+01 -1.300e+01 -1.300e+01 -1.300e+01 -1.300e+01 -1.300e+01 -1.300e+01 -1.300e+01 -1.300e+01 -1.300e+01 -1.300e+01 -1.300e+01 -1.300e+01 -1.300e+01 -1.300e+01 -1.300e+01 -1.300e+01 -1.300e+01 -1.300e+01 -1.300e+01 -1.300e+01 -1.300e+01 -1.300e+01 -1.300e+01 -1.300e+01 -1.300e+01 -1.300e+01 -1.300e+01 -1.300e+01 -1.300e+01 -1.300e+01 -1.300e+01 -1.300e+01 -1.300e+01 -1.300e+01 -1.300e+01 -1.300e+01 -1.300e+01 -1.300e+01 -1.300e+01 -1.300e+01 -1.300e+01 -1.300e+01 -1.300e+01 -1.300e+01 -1.300e+01 -1.300e+01 -1.300e+01 -1.300e+01 -1.300e+01 -1.300e+01 -1.300e+01 -1.300e+01 -1.300e+01 -1.300e+01 -1.300e+01 -1.300e+01 -1.300e+01 -1.300e+01 -1.300e+01 -1.300e+01 -1.300e+01 -1.300e+01 -1.300e+01 -1.300e+01 -1.300e+01 -1.300e+01 -1.300e+01 -1.300e+01 -1.300e+01 -1.300e+01 -1.300e+01 -1.300e+01 -1.300e+01 -1.300e+01 -1.300e+01 -1.300e+01 -1.300e+01 -1.300e+01 -1.300e+01 -1.300e+01 -1.300e+01 -1.300e+01 -1.300e+01 -1.300e+01 -1.300e+01 -1.300e+01 -1.300e+01 -1.300e+01 -1.300e+01 -1.300e+01 -1.300e+01 -1.300e+01 -1.300e+01 -1.300e+01 -1.300e+01 -1.300e+01 -1.300e+01 -1.300e+01 -1.300e+01 -1.300e+01 -1.300e+01 -1.300e+01 -1.300e+01 -1.300e+01 -1.300e+01 -1.300e+01 -1.300e+01 -1.300e+01 -1.300e+01 -1.300e+01 -1.300e+01 -1.300e+01 -1.300e+01 -1.300e+01 -1.300e+01 -1.300e+01 -1.300e+01 -1.300e+01 -1.300e+01 -1.300e+01 -1.300e+01 -1.300e+01 -1.300e+01 -1.300e+01 -1.300e+01 -1.300e+01 -1.300e+01 -1.300e+01 -1.300e+01 -1.300e+01 -1.300e+01 -1.300e+01 -1.300e+01 -1.300e+01 -1.300e+01 -1.300e+01 -1.300e+01 -1.300e+01 -1.300e+01 -1.300e+01 -1.300e+01 -1.300e+01 -1.300e+01 -1.300e+01 -1.300e+01 -1.300e+01 -1.300e+01 -1.300e+01 -1.300e+01 -1.300e+01 -1.300e+01 -1.300e+01 -1.300e+01 -1.300e+01 -1.300e+01 -1.300e+01 -1.300e+01 -1.300e+01 -1.300e+01 -1.300e+01 -1.300e+01 -1.300e+01 -1.300e+01 -1.300e+01 -1.300e+01 -1.300e+01 -1.300e+01 -1.300e+01 -1.300e+01 -1.300e+01 -1.300e+01 -1.300e+01 -1.300e+01 -1.300e+01 -1.300e+01 -1.300e+01 -1.300e+01 -1.300e+01 -1.300e+01 -1.300e+01 -1.300e+01 -1.300e+01 -1.300e+01 -1.300e+01 -1.300e+01 -1.300e+01 -1.300e+01 -1.300e+01 -1.300e+01 -1.300e+01 -1.300e+01 -1.300e+01 -1.300e+01 -1.300e+01 -1.300e+01 -1.300e+01 -1.300e+01 -1.300e+01 -1.300e+01 -1.300e+01 -1.300e+01 -1.300e+01 -1.300e+01 -1.300e+01 -1.300e+01 -1.300e+01 -1.300e+01 -1.300e+01 -1.300e+01 -1.300e+01 -1.300e+01 -1.300e+01 -1.300e+01 -1.300e+01 -1.300e+01 -1.300e+01 -1.300e+01 -1.300e+01 -1.300e+01 -1.300e+01 -1.300e+01 -1.300e+01 -1.300e+01 -1.300e+01 -1.300e+01 -1.300e+01 -1.300e+01 -1.300e+01 -1.300e+01 -1.300e+01 -1.300e+01 -1.300e+01 -1.300e+01 -1.300e+01 -1.300e+01 -1.300e+01 -1.300e+01 -1.300e+01 -1.300e+01 -1.300e+01 -1.300e+01 -1.300e+01 -1.300e+01 -1.300e+01 -1.300e+01 -1.300e+01 -1.300e+01 -1.300e+01 -1.300e+01 -1.300e+01 -1.300e+01 -1.300e+01 -1.300e+01 -1.300e+01 -1.300e+01 -1.300e+01 -1.300e+01 -1.300e+01 -1.300e+01 -1.300e+01 -1.300e+01 -1.300e+01 -1.300e+01 -1.300e+01 -1.300e+01 -1.300e+01 -1.300e+01 -1.300e+01 -1.300e+01 -1.300e+01 -1.300e+01 -1.300e+01 -1.300e+01 -1.300e+01 -1.300e+01 -1.300e+01 -1.300e+01 -1.300e+01 -1.300e+01 -1.300e+01 -1.300e+01 -1.300e+01 -1.300e+01 -1.300e+01 -1.300e+01 -1.300e+01 -1.300e+01 -1.300e+01 -1.300e+01 -1.300e+01 -1.300e+01 -1.300e+01 -1.300e+01 -1.300e+01 -1.300e+01 -1.300e+01 -1.300e+01 -1.300e+01 -1.300e+01 -1.300e+01 -1.300e+01 -1.300e+01 -1.300e+01 -1.300e+01 -1.300e+01 -1.300e+01 -1.300e+01 -1.300e+01 -1.300e+01 -1.300e+01 -1.300e+01 -1.300e+01 -1.300e+01 -1.300e+01 -1.300e+01 -1.300e+01 -1.300e+01 -1.300e+01 -1.300e+01 -1.300e+01 -1.300e+01 -1.300e+01 -1.300e+01 -1.300e+01 -1.300e+01 -1.300e+01 -1.300e+01 -1.300e+01 -1.300e+01 -1.300e+01 -1.300e+01 -1.300e+01 -1.300e+01 -1.300e+01 -1.300e+01 -1.300e+01 -1.300e+01 -1.300e+01 -1.300e+01 -1.300e+01 -1.300e+01 -1.300e+01 -1.300e+01 -1.300e+01 -1.300e+01 -1.300e+01 -1.300e+01 -1.300e+01 -1.300e+01 -1.300e+01 -1.300e+01 -1.300e+01 -1.300e+01 -1.300e+01 -1.300e+01 -1.300e+01 -1.300e+01 -1.300e+01 -1.300e+01 -1.300e+01 -1.300e+01 -1.300e+01 -1.300e+01 -1.300e+01 -1.300e+01 -1.300e+01 -1.300e+01 -1.300e+01 -1.300e+01 -1.300e+01 -1.300e+01 -1.300e+01 -1.300e+01 -1.300e+01 -1.300e+01 -1.300e+01 -5.000e+00 -5.000e+00 -5.000e+00 -5.000e+00 -5.000e+00 -5.000e+00 -5.000e+00 -5.000e+00 -5.000e+00 -5.000e+00 -5.000e+00 -5.000e+00 -5.000e+00 -5.000e+00 -5.000e+00 -5.000e+00 -5.000e+00 -5.000e+00 -5.000e+00 -5.000e+00 -5.000e+00 -5.000e+00 -5.000e+00 -5.000e+00 -5.000e+00 -5.000e+00 -5.000e+00 -5.000e+00 -5.000e+00 -5.000e+00 -5.000e+00 -5.000e+00 -5.000e+00 -5.000e+00 -5.000e+00 -5.000e+00 -5.000e+00 -5.000e+00 -5.000e+00 -5.000e+00 -5.000e+00 -5.000e+00 -5.000e+00 -5.000e+00 -5.000e+00 -5.000e+00 -5.000e+00 -5.000e+00 -1.300e+01 -1.300e+01 -1.300e+01 -1.300e+01 -1.300e+01 -1.300e+01 -1.300e+01 -1.300e+01 -1.300e+01 -1.300e+01 -1.300e+01 -1.300e+01 -1.300e+01 -1.300e+01 -1.300e+01 -1.300e+01 -1.300e+01 -1.300e+01 -1.300e+01 -1.300e+01 -1.300e+01 -1.300e+01 -1.300e+01 -1.300e+01 -1.300e+01 -1.300e+01 -1.300e+01 -1.300e+01 -1.300e+01 -1.300e+01 -1.300e+01 -1.300e+01 -1.300e+01 -1.300e+01 -1.300e+01 -1.300e+01 -1.300e+01 -1.300e+01 -1.300e+01 -1.300e+01 -1.300e+01 -1.300e+01 -1.300e+01 -1.300e+01 -1.300e+01 -1.300e+01 -1.300e+01 -1.300e+01 -1.300e+01 -1.300e+01 -1.300e+01 -1.300e+01 -1.300e+01 -1.300e+01 -1.300e+01 -1.300e+01 -1.300e+01 -1.300e+01 -1.300e+01 -1.300e+01 -1.300e+01 -1.300e+01 -1.300e+01 -1.300e+01 -1.300e+01 -1.300e+01 -1.300e+01 -1.300e+01 -1.300e+01 -1.300e+01 -1.300e+01 -1.300e+01 -1.300e+01 -1.300e+01 -1.300e+01 -1.300e+01 -1.300e+01 -1.300e+01 -1.300e+01 -1.300e+01 -1.300e+01 -1.300e+01 -1.300e+01 -1.300e+01 -1.300e+01 -1.300e+01 -1.300e+01 -1.300e+01 -1.300e+01 -1.300e+01 -1.300e+01 -1.300e+01 -1.300e+01 -1.300e+01 -1.300e+01 -1.300e+01 -1.300e+01 -1.300e+01 -1.300e+01 -1.300e+01 -1.300e+01 -1.300e+01 -1.300e+01 -1.300e+01 -1.300e+01 -1.300e+01 -1.300e+01 -1.300e+01 -1.300e+01 -1.300e+01 -1.300e+01 -1.300e+01 -1.300e+01 -1.300e+01 -1.300e+01 -1.300e+01 -1.300e+01 -1.300e+01 -1.300e+01 -1.300e+01 -1.300e+01 -1.300e+01 -1.300e+01 -1.300e+01 -1.300e+01 -1.300e+01 -1.300e+01 -1.300e+01 -1.300e+01 -1.300e+01 -1.300e+01 -1.300e+01 -1.300e+01 -1.300e+01 -1.300e+01 -1.300e+01 -1.300e+01 -1.300e+01 -1.300e+01 -1.300e+01 -1.300e+01 -1.300e+01 -1.300e+01 -1.300e+01 -1.300e+01 -1.300e+01 -1.300e+01 -1.300e+01 -1.300e+01 -1.300e+01 -1.300e+01 -1.300e+01 -1.300e+01 -1.300e+01 -1.300e+01 -1.300e+01 -1.300e+01 -1.300e+01 -1.300e+01 -1.300e+01 -1.300e+01 -1.300e+01 -1.300e+01 -1.300e+01 -1.300e+01 -1.300e+01 -1.300e+01 -1.300e+01 -1.300e+01 -1.300e+01 -1.300e+01 -1.300e+01 -1.300e+01 -1.300e+01 -1.300e+01 -1.300e+01 -1.300e+01 -1.300e+01 -1.300e+01 -1.300e+01 -1.300e+01 -1.300e+01 -1.300e+01 -1.300e+01 -1.300e+01 -1.300e+01 -1.300e+01 -1.300e+01 -1.300e+01 -1.300e+01 -1.300e+01 -1.300e+01 -1.300e+01 -1.300e+01 -1.300e+01 -1.300e+01 -1.300e+01 -1.300e+01 -1.300e+01 -1.300e+01 -1.300e+01 -1.300e+01 -1.300e+01 -1.300e+01 -1.300e+01 -1.300e+01 -1.300e+01 -1.300e+01 -1.300e+01 -1.300e+01 -1.300e+01 -1.300e+01 -1.300e+01 -1.300e+01 -1.300e+01 -1.300e+01 -1.300e+01 -1.300e+01 -1.300e+01 -1.300e+01 -1.300e+01 -1.300e+01 -1.300e+01 -1.300e+01 -1.300e+01 -1.300e+01 -1.300e+01 -1.300e+01 -1.300e+01 -1.300e+01 -1.300e+01 -1.300e+01 -1.300e+01 -1.300e+01 -1.300e+01 -1.300e+01 -1.300e+01 -1.300e+01 -1.300e+01 -1.300e+01 -1.300e+01 -1.300e+01 -1.300e+01 -1.300e+01 -1.300e+01 -1.300e+01 -1.300e+01 -1.300e+01 -1.300e+01 -1.300e+01 -1.300e+01 -1.300e+01 -1.300e+01 -1.300e+01 -1.300e+01 -1.300e+01 -1.300e+01 -1.300e+01 -1.300e+01 -1.300e+01 -1.300e+01 -1.300e+01 -1.300e+01 -1.300e+01 -1.300e+01 -1.300e+01 -1.300e+01 -1.300e+01 -1.300e+01 -1.300e+01 -1.300e+01 -1.300e+01 -1.300e+01 -1.300e+01 -1.300e+01 -1.300e+01 -1.300e+01 -1.300e+01 -1.300e+01 -1.300e+01 -1.300e+01 -1.300e+01 -1.300e+01 -1.300e+01 -1.300e+01 -1.300e+01 -1.300e+01 -1.300e+01 -1.300e+01 -1.300e+01 -1.300e+01 -1.300e+01 -1.300e+01 -1.300e+01 -1.300e+01 -1.300e+01 -1.300e+01 -1.300e+01 -1.300e+01 -1.300e+01 -1.300e+01 -1.300e+01 -1.300e+01 -1.300e+01 -1.300e+01 -1.300e+01 -1.300e+01 -1.300e+01 -1.300e+01 -1.300e+01 -1.300e+01 -1.300e+01 -1.300e+01 -1.300e+01 -1.300e+01 -1.300e+01 -1.300e+01 -1.300e+01 -1.300e+01 -1.300e+01 -1.300e+01 -1.300e+01 -1.300e+01 -1.300e+01 -1.300e+01 -1.300e+01 -1.300e+01 -1.300e+01 -1.300e+01 -1.300e+01 -1.300e+01 -1.300e+01 -1.300e+01 -1.300e+01 -1.300e+01 -1.300e+01 -1.300e+01 -1.300e+01 -1.300e+01 -1.300e+01 -1.300e+01 -1.300e+01 -1.300e+01 -1.300e+01 -1.300e+01 -1.300e+01 -1.300e+01 -1.300e+01 -1.300e+01 -1.300e+01 -1.300e+01 -1.300e+01 -1.300e+01 -1.300e+01 -1.300e+01 -1.300e+01 -1.300e+01 -1.300e+01 -1.300e+01 -1.300e+01 -1.300e+01 -1.300e+01 -1.300e+01 -1.300e+01 -1.300e+01 -1.300e+01 -1.300e+01 -1.300e+01 -1.300e+01 -1.300e+01 -1.300e+01 -1.300e+01 -1.300e+01 -1.300e+01 -1.300e+01 -1.300e+01 -1.300e+01 -1.300e+01 -1.300e+01 -1.300e+01 -1.300e+01 -1.300e+01 -1.300e+01 -1.300e+01 -1.300e+01 -1.300e+01 -1.300e+01 -1.300e+01 -1.300e+01 -1.300e+01 -1.300e+01 -1.300e+01 -1.300e+01 -1.300e+01 -1.300e+01 -1.300e+01 -1.300e+01 -1.300e+01 -1.300e+01 -1.300e+01 -1.300e+01 -1.300e+01 -1.300e+01 -1.300e+01 -1.300e+01 -1.300e+01 -1.300e+01 -1.300e+01 -1.300e+01 -1.300e+01 -1.300e+01 -1.300e+01 -1.300e+01 -1.300e+01 -1.300e+01 -1.300e+01 -1.300e+01 -1.300e+01 -1.300e+01 -1.300e+01 -1.300e+01 -1.300e+01 -1.300e+01 -1.300e+01 -1.300e+01 -1.300e+01 -1.300e+01 -1.300e+01 -1.300e+01 -1.300e+01 -1.300e+01 -1.300e+01 -1.300e+01 -1.300e+01 -1.300e+01 -1.300e+01 -1.300e+01 -1.300e+01 -1.300e+01 -1.300e+01 -1.300e+01 -1.300e+01 -1.300e+01 -1.300e+01 -1.300e+01 -1.300e+01 -1.300e+01 -1.300e+01 -1.300e+01 -1.300e+01 -1.300e+01 -1.300e+01 -1.300e+01 -1.300e+01 -1.300e+01 -1.300e+01 -1.300e+01 -1.300e+01 -1.300e+01 -1.300e+01 -1.300e+01 -1.300e+01 -1.300e+01 -1.300e+01 -1.300e+01 -1.300e+01 -1.300e+01 -1.300e+01 -1.300e+01 -1.300e+01 -1.300e+01 -1.300e+01 -1.300e+01 -1.300e+01 -1.300e+01 -1.300e+01 -1.300e+01 -1.300e+01 -1.300e+01 -1.300e+01 -1.300e+01 -1.300e+01 -1.300e+01 -1.300e+01 -1.300e+01 -1.300e+01 -1.300e+01 -1.300e+01 -1.300e+01 -1.300e+01 -1.300e+01 -1.300e+01 -1.300e+01 -1.300e+01 -1.300e+01 -1.300e+01 -1.300e+01 -1.300e+01 -1.300e+01 -1.300e+01 -1.300e+01 -1.300e+01 -1.300e+01 -1.300e+01 -1.300e+01 -1.300e+01 -1.300e+01 -1.300e+01 -1.300e+01 -1.300e+01 -1.300e+01 -1.300e+01 -1.300e+01 -1.300e+01 -1.300e+01 -1.300e+01 -1.300e+01 -1.300e+01 -1.300e+01 -1.300e+01 -1.300e+01 -1.300e+01 -1.300e+01 -1.300e+01 -1.300e+01 -1.300e+01 -1.300e+01 -1.300e+01 -1.300e+01 -1.300e+01 -1.300e+01 -1.300e+01 -1.300e+01 -1.300e+01 -1.300e+01 -1.300e+01 -1.300e+01 -1.300e+01 -1.300e+01 -1.300e+01 -1.300e+01 -1.300e+01 -1.300e+01 -1.300e+01 -1.300e+01 -1.300e+01 -1.300e+01 -1.300e+01 -1.300e+01 -5.000e+00 -5.000e+00 -5.000e+00 -5.000e+00 -5.000e+00 -5.000e+00 -5.000e+00 -5.000e+00 -5.000e+00 -5.000e+00 -5.000e+00 -5.000e+00 -5.000e+00 -5.000e+00 -5.000e+00 -5.000e+00 -5.000e+00 -5.000e+00 -5.000e+00 -5.000e+00 -5.000e+00 -5.000e+00 -5.000e+00 -5.000e+00 -5.000e+00 -5.000e+00 -5.000e+00 -5.000e+00 -5.000e+00 -5.000e+00 -5.000e+00 -5.000e+00 -5.000e+00 -5.000e+00 -5.000e+00 -5.000e+00