<?xml version="1.0"?>
<VTKFile type="UnstructuredGrid" version="0.1" byte_order="LittleEndian">
   <UnstructuredGrid>
      <Piece NumberOfPoints="13760" NumberOfCells="968">
         <Points>
            <DataArray type="Float32" Name="Position" NumberOfComponents="3" format="ascii">
0.140	-5.031	-0.076
0.139	-5.022	-0.073
0.134	-5.016	-0.067
0.128	-5.016	-0.061
0.122	-5.021	-0.056
0.118	-5.030	-0.055
0.119	-5.038	-0.058
0.124	-5.044	-0.064
0.130	-5.044	-0.070
0.137	-5.039	-0.075
0.717	-5.179	0.527
0.716	-5.170	0.531
0.712	-5.165	0.538
0.705	-5.165	0.544
0.699	-5.171	0.548
0.696	-5.179	0.549
0.696	-5.188	0.545
0.700	-5.193	0.539
0.707	-5.193	0.532
0.713	-5.188	0.528
1.164	-5.388	0.932
1.164	-5.380	0.936
1.160	-5.375	0.943
1.153	-5.375	0.950
1.147	-5.381	0.954
1.143	-5.389	0.954
1.143	-5.397	0.949
1.147	-5.402	0.943
1.154	-5.402	0.936
1.160	-5.396	0.932
0.242	-5.081	-0.122
0.250	-5.077	-0.124
0.260	-5.078	-0.124
0.266	-5.085	-0.125
0.268	-5.094	-0.124
0.264	-5.102	-0.123
0.256	-5.106	-0.122
0.247	-5.105	-0.122
0.240	-5.099	-0.121
0.238	-5.090	-0.122
0.162	-5.129	-0.973
0.170	-5.125	-0.975
0.179	-5.127	-0.976
0.186	-5.133	-0.975
0.187	-5.142	-0.974
0.183	-5.150	-0.973
0.175	-5.154	-0.972
0.165	-5.153	-0.971
0.159	-5.146	-0.971
0.158	-5.137	-0.972
0.109	-5.221	-1.421
0.118	-5.217	-1.423
0.127	-5.219	-1.424
0.133	-5.226	-1.423
0.134	-5.235	-1.421
0.129	-5.243	-1.419
0.121	-5.246	-1.417
0.112	-5.244	-1.417
0.106	-5.237	-1.417
0.105	-5.228	-1.419
1.232	-5.873	-0.570
1.241	-5.871	-0.572
1.250	-5.874	-0.572
1.255	-5.881	-0.571
1.256	-5.890	-0.568
1.251	-5.897	-0.565
1.242	-5.899	-0.562
1.233	-5.896	-0.562
1.227	-5.889	-0.564
1.227	-5.880	-0.566
1.108	-6.145	-1.367
1.115	-6.141	-1.370
1.124	-6.143	-1.372
1.131	-6.150	-1.372
1.133	-6.159	-1.371
1.129	-6.166	-1.368
1.121	-6.170	-1.364
1.112	-6.169	-1.363
1.106	-6.162	-1.362
1.104	-6.153	-1.364
0.901	-6.240	-1.911
0.908	-6.234	-1.915
0.916	-6.234	-1.918
0.924	-6.240	-1.920
0.927	-6.249	-1.919
0.924	-6.257	-1.917
0.918	-6.263	-1.914
0.909	-6.262	-1.910
0.902	-6.257	-1.909
0.899	-6.248	-1.909
1.338	-5.982	-0.614
1.341	-5.978	-0.606
1.343	-5.980	-0.597
1.343	-5.987	-0.591
1.342	-5.996	-0.589
1.340	-6.004	-0.594
1.338	-6.008	-0.602
1.336	-6.006	-0.611
1.335	-5.999	-0.617
1.336	-5.990	-0.618
2.187	-6.098	-0.824
2.189	-6.094	-0.816
2.190	-6.095	-0.807
2.190	-6.102	-0.801
2.189	-6.111	-0.799
2.187	-6.119	-0.803
2.185	-6.123	-0.812
2.184	-6.122	-0.821
2.184	-6.115	-0.827
2.185	-6.106	-0.829
2.339	-6.122	-0.827
2.347	-6.118	-0.827
2.357	-6.119	-0.827
2.363	-6.126	-0.827
2.365	-6.135	-0.827
2.360	-6.143	-0.827
2.352	-6.148	-0.827
2.343	-6.146	-0.827
2.336	-6.140	-0.827
2.335	-6.130	-0.827
1.425	-6.092	-0.637
1.433	-6.087	-0.640
1.442	-6.088	-0.643
1.449	-6.094	-0.643
1.451	-6.103	-0.642
1.448	-6.111	-0.640
1.440	-6.116	-0.637
1.431	-6.115	-0.635
1.424	-6.109	-0.634
1.422	-6.100	-0.635
1.202	-6.238	-1.432
1.208	-6.231	-1.436
1.216	-6.231	-1.440
1.224	-6.235	-1.442
1.227	-6.244	-1.443
1.226	-6.253	-1.441
1.220	-6.259	-1.437
1.212	-6.260	-1.434
1.204	-6.255	-1.431
1.200	-6.246	-1.430
0.926	-6.280	-1.841
0.930	-6.272	-1.845
0.937	-6.269	-1.850
0.945	-6.272	-1.855
0.949	-6.280	-1.857
0.950	-6.289	-1.857
0.946	-6.296	-1.853
0.939	-6.299	-1.848
0.931	-6.297	-1.843
0.926	-6.289	-1.841
1.531	-6.199	-0.681
1.534	-6.196	-0.673
1.538	-6.198	-0.665
1.540	-6.205	-0.660
1.539	-6.215	-0.659
1.537	-6.222	-0.663
1.533	-6.226	-0.671
1.529	-6.223	-0.680
1.528	-6.216	-0.685
1.528	-6.207	-0.686
2.326	-6.260	-1.028
2.330	-6.257	-1.020
2.333	-6.259	-1.012
2.335	-6.266	-1.006
2.334	-6.276	-1.006
2.332	-6.283	-1.010
2.329	-6.287	-1.018
2.325	-6.284	-1.026
2.324	-6.277	-1.032
2.324	-6.268	-1.032
2.717	-6.280	-1.180
2.720	-6.277	-1.172
2.724	-6.279	-1.164
2.725	-6.286	-1.158
2.725	-6.296	-1.158
2.723	-6.303	-1.162
2.720	-6.306	-1.170
2.716	-6.304	-1.179
2.715	-6.297	-1.184
2.715	-6.287	-1.185
1.623	-6.312	-0.714
1.627	-6.309	-0.707
1.631	-6.312	-0.699
1.633	-6.319	-0.693
1.632	-6.328	-0.693
1.629	-6.336	-0.697
1.625	-6.339	-0.705
1.621	-6.336	-0.713
1.619	-6.329	-0.718
1.619	-6.320	-0.719
2.374	-6.388	-1.120
2.379	-6.385	-1.113
2.384	-6.388	-1.106
2.387	-6.395	-1.101
2.386	-6.404	-1.100
2.382	-6.412	-1.104
2.376	-6.415	-1.111
2.371	-6.412	-1.118
2.369	-6.405	-1.123
2.370	-6.395	-1.124
2.548	-6.432	-1.288
2.555	-6.429	-1.282
2.560	-6.432	-1.275
2.563	-6.440	-1.271
2.562	-6.449	-1.270
2.557	-6.456	-1.273
2.550	-6.459	-1.279
2.545	-6.456	-1.285
2.542	-6.449	-1.290
2.543	-6.439	-1.291
1.728	-6.448	-0.740
1.729	-6.445	-0.731
1.725	-6.439	-0.725
1.718	-6.433	-0.725
1.711	-6.429	-0.729
1.706	-6.429	-0.737
1.706	-6.432	-0.746
1.710	-6.438	-0.751
1.717	-6.444	-0.752
1.724	-6.448	-0.748
1.215	-7.065	-0.456
1.216	-7.061	-0.448
1.212	-7.054	-0.442
1.205	-7.048	-0.441
1.198	-7.045	-0.446
1.193	-7.045	-0.454
1.192	-7.049	-0.462
1.196	-7.055	-0.467
1.203	-7.062	-0.468
1.210	-7.065	-0.464
1.175	-7.101	-0.421
1.175	-7.093	-0.416
1.175	-7.083	-0.418
1.175	-7.077	-0.424
1.175	-7.075	-0.433
1.175	-7.080	-0.442
1.175	-7.088	-0.446
1.175	-7.097	-0.444
1.175	-7.104	-0.438
1.175	-7.105	-0.429
1.819	-6.559	-0.776
1.822	-6.558	-0.767
1.818	-6.556	-0.759
1.811	-6.553	-0.754
1.802	-6.550	-0.755
1.795	-6.550	-0.761
1.793	-6.551	-0.770
1.796	-6.554	-0.778
1.803	-6.557	-0.783
1.812	-6.559	-0.782
1.602	-7.384	-0.604
1.605	-7.383	-0.595
1.602	-7.381	-0.587
1.594	-7.378	-0.582
1.585	-7.377	-0.582
1.578	-7.377	-0.587
1.575	-7.378	-0.596
1.578	-7.381	-0.605
1.585	-7.383	-0.610
1.594	-7.384	-0.609
1.586	-7.641	-0.546
1.589	-7.639	-0.537
1.587	-7.637	-0.528
1.579	-7.635	-0.523
1.570	-7.635	-0.523
1.562	-7.635	-0.528
1.559	-7.637	-0.536
1.562	-7.639	-0.545
1.569	-7.641	-0.550
1.578	-7.642	-0.551
1.894	-6.661	-0.805
1.896	-6.657	-0.797
1.899	-6.660	-0.789
1.900	-6.667	-0.783
1.900	-6.676	-0.782
1.898	-6.684	-0.787
1.896	-6.687	-0.795
1.893	-6.685	-0.804
1.892	-6.678	-0.809
1.892	-6.669	-0.810
2.710	-6.697	-1.054
2.712	-6.694	-1.046
2.714	-6.696	-1.037
2.715	-6.703	-1.031
2.715	-6.712	-1.030
2.714	-6.720	-1.035
2.711	-6.724	-1.043
2.710	-6.722	-1.052
2.708	-6.715	-1.058
2.709	-6.705	-1.059
2.823	-6.701	-1.073
2.825	-6.697	-1.064
2.826	-6.699	-1.055
2.827	-6.706	-1.049
2.827	-6.715	-1.048
2.826	-6.723	-1.053
2.824	-6.727	-1.061
2.823	-6.725	-1.070
2.822	-6.718	-1.076
2.822	-6.709	-1.077
1.996	-6.799	-0.827
1.996	-6.798	-0.817
1.992	-6.794	-0.810
1.985	-6.790	-0.807
1.977	-6.786	-0.810
1.971	-6.784	-0.817
1.971	-6.785	-0.826
1.975	-6.788	-0.834
1.982	-6.793	-0.837
1.990	-6.797	-0.834
1.594	-7.533	-0.718
1.596	-7.532	-0.709
1.592	-7.530	-0.701
1.585	-7.526	-0.697
1.576	-7.523	-0.698
1.570	-7.522	-0.705
1.568	-7.522	-0.714
1.572	-7.525	-0.722
1.579	-7.528	-0.726
1.588	-7.531	-0.725
1.583	-7.584	-0.713
1.586	-7.583	-0.704
1.583	-7.582	-0.696
1.576	-7.580	-0.690
1.567	-7.578	-0.691
1.559	-7.577	-0.696
1.556	-7.577	-0.705
1.559	-7.579	-0.714
1.567	-7.581	-0.719
1.576	-7.583	-0.719
2.068	-6.903	-0.856
2.069	-6.899	-0.848
2.069	-6.900	-0.839
2.069	-6.907	-0.832
2.069	-6.916	-0.830
2.067	-6.924	-0.834
2.066	-6.928	-0.843
2.066	-6.927	-0.852
2.066	-6.920	-0.858
2.067	-6.911	-0.860
2.947	-6.992	-0.930
2.948	-6.988	-0.922
2.949	-6.989	-0.913
2.948	-6.995	-0.906
2.946	-7.004	-0.904
2.945	-7.012	-0.908
2.943	-7.017	-0.916
2.943	-7.016	-0.925
2.944	-7.009	-0.932
2.945	-7.001	-0.934
3.069	-7.025	-0.935
3.070	-7.021	-0.927
3.071	-7.021	-0.918
3.069	-7.027	-0.911
3.067	-7.036	-0.909
3.065	-7.044	-0.912
3.063	-7.049	-0.920
3.063	-7.048	-0.929
3.064	-7.042	-0.937
3.066	-7.034	-0.939
0.365	-5.149	-0.174
0.373	-5.145	-0.177
0.382	-5.146	-0.180
0.389	-5.152	-0.181
0.391	-5.161	-0.179
0.387	-5.169	-0.176
0.380	-5.174	-0.173
0.371	-5.172	-0.170
0.364	-5.166	-0.170
0.362	-5.157	-0.171
0.124	-5.334	-0.970
0.132	-5.330	-0.974
0.140	-5.332	-0.977
0.147	-5.339	-0.977
0.149	-5.347	-0.974
0.146	-5.355	-0.970
0.138	-5.359	-0.966
0.129	-5.357	-0.964
0.123	-5.350	-0.964
0.121	-5.342	-0.966
0.057	-5.410	-1.124
0.064	-5.407	-1.129
0.073	-5.410	-1.131
0.079	-5.417	-1.131
0.081	-5.425	-1.127
0.077	-5.432	-1.122
0.069	-5.435	-1.117
0.061	-5.432	-1.115
0.054	-5.425	-1.116
0.053	-5.417	-1.119
2.144	-7.024	-0.873
2.153	-7.024	-0.876
2.161	-7.028	-0.875
2.165	-7.036	-0.871
2.164	-7.043	-0.867
2.157	-7.049	-0.862
2.148	-7.049	-0.860
2.140	-7.045	-0.861
2.136	-7.037	-0.864
2.137	-7.029	-0.869
1.984	-7.438	-1.601
1.993	-7.438	-1.603
2.001	-7.442	-1.602
2.005	-7.450	-1.598
2.004	-7.458	-1.593
1.997	-7.463	-1.589
1.988	-7.463	-1.587
1.980	-7.459	-1.588
1.976	-7.451	-1.592
1.978	-7.444	-1.597
1.960	-7.535	-1.775
1.969	-7.535	-1.777
1.977	-7.539	-1.776
1.981	-7.547	-1.772
1.979	-7.555	-1.767
1.972	-7.560	-1.764
1.963	-7.560	-1.762
1.955	-7.556	-1.763
1.951	-7.548	-1.767
1.953	-7.540	-1.772
2.240	-7.169	-0.895
2.242	-7.160	-0.892
2.239	-7.153	-0.888
2.232	-7.149	-0.884
2.223	-7.151	-0.882
2.216	-7.157	-0.882
2.214	-7.165	-0.885
2.217	-7.173	-0.889
2.225	-7.177	-0.893
2.234	-7.175	-0.895
2.487	-7.474	-0.107
2.490	-7.466	-0.104
2.486	-7.458	-0.100
2.479	-7.454	-0.096
2.470	-7.455	-0.094
2.463	-7.462	-0.095
2.461	-7.470	-0.098
2.464	-7.478	-0.102
2.472	-7.482	-0.105
2.480	-7.480	-0.107
2.505	-7.507	0.006
2.505	-7.503	0.014
2.505	-7.504	0.023
2.505	-7.511	0.030
2.505	-7.520	0.031
2.505	-7.528	0.027
2.505	-7.532	0.019
2.505	-7.531	0.010
2.505	-7.524	0.003
2.505	-7.515	0.002
2.294	-7.280	-0.908
2.302	-7.276	-0.911
2.311	-7.277	-0.913
2.318	-7.283	-0.914
2.320	-7.292	-0.912
2.316	-7.300	-0.910
2.308	-7.305	-0.907
2.299	-7.303	-0.905
2.293	-7.297	-0.904
2.291	-7.288	-0.906
2.079	-7.448	-1.743
2.087	-7.444	-1.746
2.096	-7.445	-1.748
2.103	-7.451	-1.749
2.105	-7.460	-1.748
2.102	-7.468	-1.746
2.094	-7.473	-1.743
2.085	-7.472	-1.741
2.078	-7.466	-1.740
2.076	-7.457	-1.741
2.026	-7.472	-1.954
2.033	-7.467	-1.956
2.042	-7.468	-1.958
2.049	-7.473	-1.960
2.052	-7.482	-1.959
2.049	-7.491	-1.958
2.041	-7.496	-1.955
2.032	-7.495	-1.953
2.025	-7.489	-1.952
2.023	-7.480	-1.952
2.388	-7.430	-0.931
2.388	-7.425	-0.923
2.384	-7.418	-0.918
2.378	-7.411	-0.919
2.372	-7.407	-0.925
2.369	-7.408	-0.933
2.369	-7.412	-0.941
[...]
         <CellData>
           <DataArray type="Float32" Name="combinedRootClassID" NumberOfComponents="1" format="ascii">
 -1.300e+01 -1.300e+01 -1.300e+01 -1.300e+01 -1.300e+01 -1.300e+01 -1.300e+01 -1.300e+01 -1.300e+01 -1.300e+01 -1.300e+01 -1.300e+01 -1.300e+01 -1.300e+01 -1.300e+01 -1.300e+01 -1.300e+01 -1.300e+01 -1.300e+01 -1.300e+01 -1.300e+01 -1.300e+01 -1.300e+01 -1.300e+01 -1.300e+01 -1.300e+01 -1.300e+01 -1.300e+01 -1.300e+01 -1.300e+01 -1.300e+01 -1.300e+01 -1.300e+01 -1.300e+01 -1.300e+01 -1.300e+01 -1.300e+01 -1.300e+01 -1.300e+01 -1.300e+01 -1.300e+01 -1.300e+01 -1.300e+01 -1.300e+01 -1.300e+01 -1.300e+01 -1.300e+01 -1.300e+01 -1.300e+01 -1.300e+01 -1.300e+01 -1.300e+01 -1.300e+01 -1.300e+01 -1.300e+01 -1.300e+01 -1.300e+01 -1.300e+01 -1.300e+01 -1.300e+01 -1.300e+01 -1.300e+01 -1.300e+01 -1.300e+01 -1.300e+01 -1.300e+01 -1.300e+01 -1.300e+01 -1.300e+01 -1.300e+01 -1.300e+01 -1.300e+01 -1.300e+01 -1.300e+01 -1.300e+01 -1.300e+01 -1.300e+01 -1.300e+01 -1.300e+01 -1.300e+01 -1.300e+01 -1.300e+01 -1.300e+01 -1.300e+01 -1.300e+01 -1.300e+01 -1.300e+01 -1.300e+01 -5.000e+00 -5.000e+00 -5.000e+00 -5.000e+00 -5.000e+00 -5.000e+00 -5.000e+00 -5.000e+00 -5.000e+00 -5.000e+00 -5.000e+00 -5.000e+00 -5.000e+00 -5.000e+00 -5.000e+00 -5.000e+00 -5.000e+00 -5.000e+00 -5.000e+00 -5.000e+00 -5.000e+00 -5.000e+00 -5.000e+00 -1.300e+01 -1.300e+01 -1.300e+01 -1.300e+01 -1.300e+01 -1.300e+01 -1.300e+01 -1.300e+01 -1.300e+01 -1.300e+01 -1.300e+01 -1.300e+01 -1.300e+01 -1.300e+01 -1.300e+01 -1.300e+01 -1.300e+01 -1.300e+01 -1.300e+01 -1.300e+01 -1.300e+01 -1.300e+01 -1.300e+01 -1.300e+01 -1.300e+01 -1.300e+01 -1.300e+01 -1.300e+01 -1.300e+01 -1.300e+01 -1.300e+01 -1.300e+01 -1.300e+01 -1.300e+01 -1.300e+01 -1.300e+01 -1.300e+01 -1.300e+01 -1.300e+01 -1.300e+01 -1.300e+01 -1.300e+01 -1.300e+01 -1.300e+01 -1.300e+01 -1.300e+01 -1.300e+01 -1.300e+01 -1.300e+01 -1.300e+01 -1.300e+01 -1.300e+01 -1.300e+01 -1.300e+01 -1.300e+01 -1.300e+01 -1.300e+01 -1.300e+01 -1.300e+01 -1.300e+01 -1.300e+01 -1.300e+01 -1.300e+01 -1.300e+01 -1.300e+01 -1.300e+01 -1.300e+01 -1.300e+01 -1.300e+01 -1.300e+01 -1.300e+01 -1.300e+01 -1.300e+01 -1.300e+01 -1.300e+01 -1.300e+01 -1.300e+01 -1.300e+01 -1.300e+01 -1.300e+01 -1.300e+01 -1.300e+01 -1.300e+01 -1.300e+01 -5.000e+00 -5.000e+00 -5.000e+00 -5.000e+00 -5.000e+00 -5.000e+00 -5.000e+00 -5.000e+00 -5.000e+00 -5.000e+00 -5.000e+00 -5.000e+00 -5.000e+00 -5.000e+00 -5.000e+00 -5.000e+00 -5.000e+00 -5.000e+00 -5.000e+00 -5.000e+00 -5.000e+00 -5.000e+00 -5.000e+00 -1.300e+01 -1.300e+01 -1.300e+01 -1.300e+01 -1.300e+01 -1.300e+01 -1.300e+01 -1.300e+01 -1.300e+01 -1.300e+01 -1.300e+01 -1.300e+01 -1.300e+01 -1.300e+01 -1.300e+01 -1.300e+01 -1.300e+01 -1.300e+01 -1.300e+01 -1.300e+01 -1.300e+01 -1.300e+01 -1.300e+01 -1.300e+01 -1.300e+01 -1.300e+01 -1.300e+01 -1.300e+01 -1.300e+01 -1.300e+01 -1.300e+01 -1.300e+01 -1.300e+01 -1.300e+01 -1.300e+01 -1.300e+01 -1.300e+01 -1.300e+01 -1.300e+01 -1.300e+01 -1.300e+01 -1.300e+01 -1.300e+01 -1.300e+01 -1.300e+01 -1.300e+01 -1.300e+01 -1.300e+01 -1.300e+01 -1.300e+01 -1.300e+01 -1.300e+01 -1.300e+01 -1.300e+01 -1.300e+01 -1.300e+01 -1.300e+01 -1.300e+01 -1.300e+01 -1.300e+01 -1.300e+01 -1.300e+01 -1.300e+01 -1.300e+01 -1.300e+01 -1.300e+01 -1.300e+01 -1.300e+01 -1.300e+01 -1.300e+01 -1.300e+01 -1.300e+01 -1.300e+01 -1.300e+01 -1.300e+01 -1.300e+01 -1.300e+01 -1.300e+01 -1.300e+01 -1.300e+01 -1.300e+01 -1.300e+01 -1.300e+01 -1.300e+01 -1.300e+01 -5.000e+00 -5.000e+00 -5.000e+00 -5.000e+00 -5.000e+00 -5.000e+00 -5.000e+00 -5.000e+00 -5.000e+00 -5.000e+00 -5.000e+00 -5.000e+00 -5.000e+00 -5.000e+00 -5.000e+00 -5.000e+00 -5.000e+00 -5.000e+00 -5.000e+00 -5.000e+00 -5.000e+00 -5.000e+00 -5.000e+00 -1.300e+01 -1.300e+01 -1.300e+01 -1.300e+01 -1.300e+01 -1.300e+01 -1.300e+01 -1.300e+01 -1.300e+01 -1.300e+01 -1.300e+01 -1.300e+01 -1.300e+01 -1.300e+01 -1.300e+01 -1.300e+01 -1.300e+01 -1.300e+01 -1.300e+01 -1.300e+01 -1.300e+01 -1.300e+01 -1.300e+01 -1.300e+01 -1.300e+01 -1.300e+01 -1.300e+01 -1.300e+01 -1.300e+01 -1.300e+01 -1.300e+01 -1.300e+01 -1.300e+01 -1.300e+01 -1.300e+01 -1.300e+01 -1.300e+01 -1.300e+01 -1.300e+01 -1.300e+01 -1.300e+01 -1.300e+01 -1.300e+01 -1.300e+01 -1.300e+01 -1.300e+01 -1.300e+01 -1.300e+01 -1.300e+01 -1.300e+01 -1.300e+01 -1.300e+01 -1.300e+01 -1.300e+01 -1.300e+01 -1.300e+01 -1.300e+01 -1.300e+01 -1.300e+01 -1.300e+01 -1.300e+01 -1.300e+01 -1.300e+01 -1.300e+01 -1.300e+01 -1.300e+01 -1.300e+01 -1.300e+01 -1.300e+01 -1.300e+01 -1.300e+01 -1.300e+01 -1.300e+01 -1.300e+01 -1.300e+01 -1.300e+01 -1.300e+01 -1.300e+01 -1.300e+01 -1.300e+01 -1.300e+01 -1.300e+01 -1.300e+01 -1.300e+01 -1.300e+01 -1.300e+01 -1.300e+01 -1.300e+01 -1.300e+01 -5.000e+00 -5.000e+00 -5.000e+00 -5.000e+00 -5.000e+00 -5.000e+00 -5.000e+00 -5.000e+00 -5.000e+00 -5.000e+00 -5.000e+00 -5.000e+00 -5.000e+00 -5.000e+00 -5.000e+00 -5.000e+00 -5.000e+00 -5.000e+00 -5.000e+00 -5.000e+00 -5.000e+00 -5.000e+00 -5.000e+00 -1.100e+01 -1.100e+01 -1.100e+01 -1.100e+01 -1.100e+01 -1.100e+01 -1.100e+01 -1.100e+01 -1.100e+01 -1.100e+01 -1.100e+01 -1.100e+01 -1.100e+01 -1.100e+01 -1.100e+01 -1.100e+01 -1.100e+01 -1.100e+01 -1.100e+01 -1.100e+01 -1.100e+01 -1.100e+01 -1.100e+01 -1.100e+01 -1.100e+01 -1.100e+01 -1.100e+01 -1.100e+01 -1.100e+01 -1.100e+01 -1.100e+01 -1.100e+01 -1.100e+01 -1.100e+01 -1.100e+01 -1.100e+01 -1.100e+01 -1.100e+01 -1.100e+01 -1.100e+01 -1.100e+01 -1.100e+01 -1.100e+01 -1.100e+01 -1.100e+01 -1.100e+01 -1.100e+01 -1.100e+01 -2.000e+00 -2.000e+00 -2.000e+00 -2.000e+00 -2.000e+00 -2.000e+00 -2.000e+00 -2.000e+00 -2.000e+00 -2.000e+00 -1.700e+01 -7.000e+00 -7.000e+00 -7.000e+00 -7.000e+00 -7.000e+00 -7.000e+00 -7.000e+00 -7.000e+00 -7.000e+00 -7.000e+00 -7.000e+00 -7.000e+00 -7.000e+00 -7.000e+00 -7.000e+00 -7.000e+00 -7.000e+00 -7.000e+00 -7.000e+00 -7.000e+00 -7.000e+00 -7.000e+00 -7.000e+00 -7.000e+00 -7.000e+00 -7.000e+00 -7.000e+00 -7.000e+00 -7.000e+00 -7.000e+00 -7.000e+00 -7.000e+00 -7.000e+00 -7.000e+00 -7.000e+00 -7.000e+00 -7.000e+00 -7.000e+00 -7.000e+00 -7.000e+00 -7.000e+00 -7.000e+00 -7.000e+00 -7.000e+00 -7.000e+00 -7.000e+00 -7.000e+00 -7.000e+00 -7.000e+00 -7.000e+00 -7.000e+00 -7.000e+00 -7.000e+00 -7.000e+00 -7.000e+00 -7.000e+00 -7.000e+00 -7.000e+00 -7.000e+00 -7.000e+00 -7.000e+00 -7.000e+00 -7.000e+00 -7.000e+00 -7.000e+00 -7.000e+00 -7.000e+00 -7.000e+00 -7.000e+00 -7.000e+00 -7.000e+00 -7.000e+00 -7.000e+00 -7.000e+00 -7.000e+00 -7.000e+00 -7.000e+00 -7.000e+00 -7.000e+00 -7.000e+00 -7.000e+00 -7.000e+00 -7.000e+00 -7.000e+00 -7.000e+00 -7.000e+00 -7.000e+00 -7.000e+00 -7.000e+00 -7.000e+00 -7.000e+00 -7.000e+00 -7.000e+00 -7.000e+00 -7.000e+00 -7.000e+00 -7.000e+00 -7.000e+00 -7.000e+00 -7.000e+00 -7.000e+00 -7.000e+00 -7.000e+00 -7.000e+00 -7.000e+00 -7.000e+00 -7.000e+00 -7.000e+00 -7.000e+00 -7.000e+00 -7.000e+00 -7.000e+00 -7.000e+00 -7.000e+00 -7.000e+00 -7.000e+00 -7.000e+00 -7.000e+00 -7.000e+00 -7.000e+00 -7.000e+00 -7.000e+00 -7.000e+00 -7.000e+00 -7.000e+00 -7.000e+00 -7.000e+00 -7.000e+00 -7.000e+00 -7.000e+00 -7.000e+00 -7.000e+00 -7.000e+00 -7.000e+00 -7.000e+00 -7.000e+00 -7.000e+00 -7.000e+00 -7.000e+00 -7.000e+00 -7.000e+00 -7.000e+00 -7.000e+00 -7.000e+00 -7.000e+00 -7.000e+00 -7.000e+00 -7.000e+00 -7.000e+00 -7.000e+00 -7.000e+00 -7.000e+00 -7.000e+00 -7.000e+00 -7.000e+00 -7.000e+00 -7.000e+00 -7.000e+00 -7.000e+00 -7.000e+00 -7.000e+00 -7.000e+00 -7.000e+00 -7.000e+00 -7.000e+00 -7.000e+00 -7.000e+00 -7.000e+00 -7.000e+00 -7.000e+00 -7.000e+00 -7.000e+00 -7.000e+00 -7.000e+00 -7.000e+00 -7.000e+00 -7.000e+00 -7.000e+00 -7.000e+00 -7.000e+00 -7.000e+00 -7.000e+00 -7.000e+00 -7.000e+00 -7.000e+00 -7.000e+00 -7.000e+00 -7.000e+00 -7.000e+00 -7.000e+00 -7.000e+00 -7.000e+00 -7.000e+00 -7.000e+00 -7.000e+00 -7.000e+00 -7.000e+00 -7.000e+00 -7.000e+00 -7.000e+00 -7.000e+00 -7.000e+00 -7.000e+00 -7.000e+00 -7.000e+00 -7.000e+00 -7.000e+00 -7.000e+00 -7.000e+00 -7.000e+00 -7.000e+00 -7.000e+00 -7.000e+00 -7.000e+00 -7.000e+00 -7.000e+00 -7.000e+00 -7.000e+00 -7.000e+00 -7.000e+00 -7.000e+00 -7.000e+00 -7.000e+00 -7.000e+00 -7.000e+00 -7.000e+00 -7.000e+00 -7.000e+00 -7.000e+00 -7.000e+00 -7.000e+00 -7.000e+00 -7.000e+00 -7.000e+00 -7.000e+00 -7.000e+00 -7.000e+00 -7.000e+00 -7.000e+00 -7.000e+00 -7.000e+00 -7.000e+00 -7.000e+00 -7.000e+00 -7.000e+00 -7.000e+00 -7.000e+00 -7.000e+00 -7.000e+00 -7.000e+00 -7.000e+00 -7.000e+00 -7.000e+00 -7.000e+00 -7.000e+00 -7.000e+00 -7.000e+00 -7.000e+00 -7.000e+00 -7.000e+00 -7.000e+00 -7.000e+00 -7.000e+00 -7.000e+00 -7.000e+00 -7.000e+00 -7.000e+00 -7.000e+00 -7.000e+00 -7.000e+00 -7.000e+00 -7.000e+00 -7.000e+00 -7.000e+00 -7.000e+00 -7.000e+00 -7.000e+00 -7.000e+00 -7.000e+00 -7.000e+00 -7.000e+00 -7.000e+00 -7.000e+00 -7.000e+00 -7.000e+00 -7.000e+00 -7.000e+00 -7.000e+00 -7.000e+00 -7.000e+00 -7.000e+00 -7.000e+00 -7.000e+00 -7.000e+00 -7.000e+00 -7.000e+00 -7.000e+00 -7.000e+00 -7.000e+00 -7.000e+00 -7.000e+00 -7.000e+00 -7.000e+00 -7.000e+00 -7.000e+00 -7.000e+00 -7.000e+00 -7.000e+00 -7.000e+00 -7.000e+00 -7.000e+00 -7.000e+00 -7.000e+00 -7.000e+00 -7.000e+00 -7.000e+00 -7.000e+00 -7.000e+00 -7.000e+00 -7.000e+00 -7.000e+00 -7.000e+00 -7.000e+00 -7.000e+00 -7.000e+00 -7.000e+00 -7.000e+00 -7.000e+00 -7.000e+00 -7.000e+00 -7.000e+00 -7.000e+00 -7.000e+00 -7.000e+00 -7.000e+00 -7.000e+00 -7.000e+00 -7.000e+00 -7.000e+00 -7.000e+00 -7.000e+00 -7.000e+00 -7.000e+00 -7.000e+00 -7.000e+00 -7.000e+00 -7.000e+00 -7.000e+00 -7.000e+00 -7.000e+00 -7.000e+00 -7.000e+00 -7.000e+00 -7.000e+00 -7.000e+00 -1.700e+01 -7.000e+00 -7.000e+00 -7.000e+00 -7.000e+00 -7.000e+00 -7.000e+00 -7.000e+00 -7.000e+00 -7.000e+00 -7.000e+00 -7.000e+00 -7.000e+00 -7.000e+00 -7.000e+00 -7.000e+00 -7.000e+00 -7.000e+00 -7.000e+00 -7.000e+00 -7.000e+00 -7.000e+00 -7.000e+00 -7.000e+00 -7.000e+00 -7.000e+00 -7.000e+00 -7.000e+00 -7.000e+00 -7.000e+00 -7.000e+00 -7.000e+00 -7.000e+00 -7.000e+00 -7.000e+00 -7.000e+00 -7.000e+00 -7.000e+00 -7.000e+00 -7.000e+00 -7.000e+00 -7.000e+00 -7.000e+00 -7.000e+00 -7.000e+00 -7.000e+00 -7.000e+00 -7.000e+00 -7.000e+00 -7.000e+00 -7.000e+00 -7.000e+00 -7.000e+00 -7.000e+00 -7.000e+00 -7.000e+00 -1.500e+01 -1.500e+01 -1.500e+01 -1.500e+01 -9.000e+00 -9.000e+00 -9.000e+00 -9.000e+00 -9.000e+00 -9.000e+00 -9.000e+00 -9.000e+00 -1.500e+01 -9.000e+00 -9.000e+00 -9.000e+00 -9.000e+00 -9.000e+00 -9.000e+00 -9.000e+00 -9.000e+00 -9.000e+00 -9.000e+00 -9.000e+00 -9.000e+00 -9.000e+00 -4.000e+00 -4.000e+00 -4.000e+00 -4.000e+00 -4.000e+00 -4.000e+00 -4.000e+00 -4.000e+00 -4.000e+00 -4.000e+00 -4.000e+00 -4.000e+00 -4.000e+00 -4.000e+00 -4.000e+00 -4.000e+00 -4.000e+00 -4.000e+00 -4.000e+00 -4.000e+00 -4.000e+00 -4.000e+00 -4.000e+00 -4.000e+00 -4.000e+00 -4.000e+00 -4.000e+00 -4.000e+00 -4.000e+00 -4.000e+00 -4.000e+00 -4.000e+00 -4.000e+00 -4.000e+00
           </DataArray>
           <DataArray type="Float32" Name="parentRootClassID" NumberOfComponents="1" format="ascii">