<?xml version="1.0"?>
<VTKFile type="UnstructuredGrid" version="0.1" byte_order="LittleEndian">
   <UnstructuredGrid>
      <Piece NumberOfPoints="8580" NumberOfCells="587">
         <Points>
            <DataArray type="Float32" Name="Position" NumberOfComponents="3" format="ascii">
0.140	-5.031	-0.076
0.139	-5.022	-0.073
0.134	-5.016	-0.067
0.128	-5.016	-0.061
0.122	-5.021	-0.056
0.118	-5.030	-0.055
0.119	-5.038	-0.058
0.124	-5.044	-0.064
0.130	-5.044	-0.070
0.137	-5.039	-0.075
0.717	-5.180	0.528
0.716	-5.171	0.531
0.711	-5.165	0.536
0.705	-5.165	0.543
0.699	-5.170	0.548
0.695	-5.179	0.549
0.696	-5.188	0.546
0.701	-5.193	0.540
0.707	-5.193	0.533
0.714	-5.188	0.529
0.242	-5.081	-0.122
0.250	-5.077	-0.123
0.259	-5.078	-0.124
0.266	-5.084	-0.125
0.268	-5.094	-0.124
0.264	-5.102	-0.124
0.256	-5.106	-0.123
0.247	-5.105	-0.122
0.240	-5.099	-0.121
0.238	-5.090	-0.122
0.168	-5.113	-0.859
0.176	-5.108	-0.860
0.185	-5.109	-0.861
0.192	-5.116	-0.861
0.194	-5.125	-0.861
0.190	-5.133	-0.860
0.182	-5.138	-0.859
0.173	-5.137	-0.859
0.166	-5.130	-0.858
0.164	-5.121	-0.858
1.233	-5.873	-0.570
1.241	-5.871	-0.572
1.250	-5.874	-0.572
1.256	-5.881	-0.570
1.256	-5.890	-0.567
1.250	-5.897	-0.564
1.242	-5.899	-0.562
1.233	-5.896	-0.562
1.227	-5.889	-0.564
1.227	-5.880	-0.567
1.141	-6.110	-1.230
1.150	-6.108	-1.232
1.158	-6.111	-1.232
1.164	-6.118	-1.230
1.164	-6.127	-1.227
1.158	-6.134	-1.224
1.150	-6.136	-1.222
1.141	-6.133	-1.221
1.135	-6.126	-1.223
1.135	-6.117	-1.226
1.337	-5.981	-0.613
1.340	-5.978	-0.605
1.343	-5.980	-0.597
1.345	-5.987	-0.591
1.344	-5.997	-0.590
1.341	-6.004	-0.594
1.338	-6.008	-0.602
1.335	-6.005	-0.611
1.334	-5.998	-0.616
1.334	-5.989	-0.617
1.808	-6.036	-0.790
1.811	-6.033	-0.782
1.814	-6.035	-0.774
1.815	-6.043	-0.768
1.814	-6.052	-0.767
1.812	-6.059	-0.771
1.808	-6.063	-0.779
1.806	-6.061	-0.788
1.804	-6.053	-0.794
1.805	-6.044	-0.794
1.425	-6.091	-0.638
1.433	-6.087	-0.641
1.442	-6.088	-0.642
1.449	-6.094	-0.643
1.451	-6.103	-0.642
1.447	-6.112	-0.639
1.440	-6.116	-0.637
1.431	-6.115	-0.635
1.424	-6.108	-0.635
1.422	-6.099	-0.636
1.289	-6.198	-1.244
1.297	-6.193	-1.246
1.306	-6.195	-1.248
1.313	-6.201	-1.249
1.314	-6.210	-1.248
1.311	-6.218	-1.245
1.303	-6.222	-1.243
1.294	-6.221	-1.241
1.287	-6.215	-1.241
1.285	-6.206	-1.242
1.531	-6.199	-0.681
1.534	-6.196	-0.673
1.538	-6.198	-0.665
1.539	-6.205	-0.660
1.539	-6.215	-0.659
1.536	-6.222	-0.663
1.533	-6.226	-0.671
1.529	-6.223	-0.680
1.528	-6.216	-0.685
1.528	-6.207	-0.686
2.071	-6.242	-0.914
2.075	-6.238	-0.906
2.078	-6.241	-0.897
2.080	-6.248	-0.892
2.080	-6.257	-0.891
2.077	-6.265	-0.896
2.073	-6.268	-0.904
2.070	-6.266	-0.912
2.068	-6.258	-0.917
2.069	-6.249	-0.918
1.623	-6.312	-0.715
1.627	-6.309	-0.707
1.630	-6.311	-0.698
1.632	-6.319	-0.693
1.631	-6.328	-0.692
1.629	-6.336	-0.697
1.625	-6.339	-0.705
1.622	-6.336	-0.713
1.620	-6.329	-0.719
1.621	-6.320	-0.719
2.080	-6.355	-0.901
2.084	-6.352	-0.893
2.087	-6.354	-0.884
2.088	-6.361	-0.879
2.088	-6.370	-0.878
2.085	-6.378	-0.882
2.082	-6.381	-0.890
2.079	-6.379	-0.899
2.077	-6.372	-0.904
2.078	-6.363	-0.905
1.729	-6.448	-0.741
1.729	-6.445	-0.732
1.725	-6.440	-0.725
1.718	-6.434	-0.724
1.710	-6.430	-0.728
1.705	-6.429	-0.736
1.705	-6.432	-0.745
1.709	-6.437	-0.751
1.717	-6.443	-0.753
1.724	-6.447	-0.749
1.508	-6.760	-0.644
1.508	-6.757	-0.635
1.504	-6.752	-0.629
1.496	-6.747	-0.627
1.489	-6.743	-0.631
1.484	-6.742	-0.639
1.484	-6.744	-0.648
1.488	-6.749	-0.654
1.496	-6.755	-0.656
1.503	-6.759	-0.652
1.819	-6.561	-0.774
1.821	-6.559	-0.765
1.817	-6.556	-0.758
1.810	-6.552	-0.754
1.801	-6.549	-0.756
1.795	-6.548	-0.762
1.793	-6.550	-0.771
1.797	-6.553	-0.779
1.805	-6.557	-0.783
1.813	-6.560	-0.781
1.645	-7.000	-0.671
1.647	-6.998	-0.662
1.643	-6.995	-0.654
1.635	-6.991	-0.650
1.627	-6.988	-0.652
1.621	-6.987	-0.659
1.619	-6.988	-0.668
1.623	-6.992	-0.676
1.630	-6.996	-0.679
1.639	-6.999	-0.678
1.894	-6.661	-0.805
1.896	-6.657	-0.797
1.898	-6.660	-0.788
1.900	-6.667	-0.783
1.900	-6.676	-0.782
1.898	-6.684	-0.787
1.896	-6.687	-0.795
1.893	-6.685	-0.804
1.892	-6.678	-0.810
1.892	-6.669	-0.810
2.275	-6.671	-0.915
2.278	-6.667	-0.907
2.280	-6.670	-0.898
2.281	-6.677	-0.892
2.281	-6.686	-0.892
2.280	-6.694	-0.897
2.277	-6.697	-0.905
2.275	-6.695	-0.913
2.273	-6.688	-0.919
2.274	-6.679	-0.920
1.995	-6.800	-0.825
1.995	-6.799	-0.816
1.991	-6.795	-0.809
1.983	-6.789	-0.807
1.976	-6.785	-0.810
1.972	-6.783	-0.818
1.972	-6.784	-0.828
1.976	-6.788	-0.835
1.984	-6.793	-0.837
1.991	-6.798	-0.833
1.793	-7.095	-0.790
1.793	-7.093	-0.780
1.788	-7.089	-0.773
1.781	-7.084	-0.771
1.774	-7.080	-0.775
1.769	-7.078	-0.783
1.769	-7.079	-0.792
1.774	-7.083	-0.799
1.781	-7.088	-0.801
1.789	-7.093	-0.797
2.067	-6.902	-0.855
2.068	-6.898	-0.847
2.069	-6.900	-0.838
2.070	-6.907	-0.832
2.070	-6.916	-0.831
2.068	-6.924	-0.835
2.067	-6.928	-0.843
2.066	-6.926	-0.852
2.065	-6.920	-0.859
2.066	-6.910	-0.860
2.450	-6.923	-0.912
2.451	-6.920	-0.903
2.452	-6.921	-0.894
2.453	-6.928	-0.888
2.452	-6.937	-0.887
2.451	-6.945	-0.891
2.450	-6.949	-0.900
2.449	-6.947	-0.909
2.448	-6.941	-0.915
2.448	-6.931	-0.916
0.365	-5.149	-0.175
0.373	-5.145	-0.177
0.382	-5.146	-0.179
0.389	-5.152	-0.180
0.391	-5.161	-0.178
0.387	-5.169	-0.176
0.380	-5.174	-0.173
0.371	-5.172	-0.171
0.364	-5.166	-0.171
0.362	-5.157	-0.172
0.226	-5.261	-0.724
0.234	-5.257	-0.727
0.243	-5.258	-0.729
0.250	-5.264	-0.729
0.252	-5.273	-0.728
0.248	-5.281	-0.725
0.240	-5.286	-0.722
0.231	-5.284	-0.720
0.225	-5.278	-0.720
0.223	-5.269	-0.721
2.142	-7.024	-0.871
2.151	-7.023	-0.874
2.159	-7.026	-0.874
2.165	-7.033	-0.872
2.164	-7.042	-0.868
2.159	-7.048	-0.864
2.150	-7.050	-0.862
2.141	-7.047	-0.862
2.136	-7.039	-0.864
2.136	-7.031	-0.867
2.072	-7.177	-1.220
2.081	-7.175	-1.223
2.089	-7.179	-1.223
2.094	-7.186	-1.221
2.094	-7.195	-1.217
2.089	-7.201	-1.213
2.080	-7.203	-1.211
2.071	-7.199	-1.211
2.066	-7.192	-1.213
2.066	-7.184	-1.217
2.240	-7.170	-0.894
2.243	-7.161	-0.892
2.239	-7.153	-0.888
2.232	-7.149	-0.885
2.223	-7.150	-0.883
2.216	-7.156	-0.883
2.214	-7.165	-0.885
2.217	-7.173	-0.889
2.224	-7.177	-0.892
2.233	-7.176	-0.894
2.331	-7.280	-0.567
2.333	-7.271	-0.564
2.330	-7.263	-0.561
2.322	-7.259	-0.557
2.313	-7.260	-0.555
2.306	-7.266	-0.556
2.304	-7.275	-0.558
2.307	-7.283	-0.561
2.315	-7.287	-0.565
2.324	-7.286	-0.567
2.295	-7.279	-0.910
2.303	-7.276	-0.912
2.312	-7.278	-0.913
2.318	-7.284	-0.913
2.320	-7.293	-0.911
2.315	-7.301	-0.908
2.307	-7.305	-0.906
2.298	-7.303	-0.905
2.292	-7.296	-0.905
2.291	-7.287	-0.907
2.229	-7.367	-1.264
2.237	-7.363	-1.266
2.246	-7.365	-1.267
2.253	-7.372	-1.267
2.254	-7.381	-1.265
2.249	-7.389	-1.262
2.241	-7.392	-1.260
2.232	-7.390	-1.259
2.226	-7.383	-1.259
2.225	-7.374	-1.261
2.390	-7.429	-0.933
2.389	-7.426	-0.924
2.385	-7.420	-0.918
2.378	-7.414	-0.918
2.372	-7.409	-0.923
2.368	-7.409	-0.931
2.368	-7.412	-0.940
2.372	-7.418	-0.945
2.379	-7.424	-0.946
2.386	-7.428	-0.941
2.214	-7.628	-0.866
2.214	-7.625	-0.858
2.209	-7.620	-0.852
2.203	-7.613	-0.851
2.196	-7.609	-0.856
2.192	-7.608	-0.864
2.192	-7.611	-0.873
2.196	-7.617	-0.879
2.203	-7.623	-0.880
2.210	-7.628	-0.875
2.463	-7.557	-0.958
2.464	-7.554	-0.949
2.460	-7.548	-0.943
2.453	-7.543	-0.941
2.445	-7.539	-0.945
2.440	-7.539	-0.953
2.440	-7.541	-0.961
2.444	-7.547	-0.968
2.451	-7.552	-0.969
2.458	-7.556	-0.966
2.324	-7.757	-0.881
2.325	-7.754	-0.872
2.321	-7.749	-0.866
2.313	-7.743	-0.864
2.306	-7.739	-0.868
2.301	-7.739	-0.876
2.300	-7.742	-0.884
2.304	-7.747	-0.891
2.311	-7.753	-0.892
2.319	-7.757	-0.889
2.530	-7.687	-0.979
2.532	-7.679	-0.976
2.528	-7.671	-0.972
2.521	-7.667	-0.968
2.512	-7.669	-0.966
2.505	-7.675	-0.966
2.503	-7.684	-0.969
2.507	-7.692	-0.972
2.514	-7.695	-0.976
2.523	-7.694	-0.979
2.596	-7.756	-0.782
2.598	-7.748	-0.780
2.594	-7.740	-0.776
2.587	-7.736	-0.772
2.578	-7.738	-0.770
2.571	-7.744	-0.770
2.569	-7.753	-0.772
2.573	-7.761	-0.776
2.580	-7.765	-0.780
2.589	-7.763	-0.782
2.593	-7.826	-0.989
2.592	-7.823	-0.980
2.588	-7.817	-0.975
2.581	-7.811	-0.974
2.575	-7.806	-0.979
2.571	-7.806	-0.988
2.571	-7.809	-0.997
2.576	-7.814	-1.002
2.583	-7.821	-1.003
2.589	-7.825	-0.998
2.427	-8.006	-0.936
2.426	-8.003	-0.927
2.422	-7.997	-0.922
2.415	-7.991	-0.921
2.409	-7.987	-0.926
2.405	-7.986	-0.935
2.406	-7.989	-0.943
2.410	-7.995	-0.949
2.417	-8.001	-0.949
2.423	-8.005	-0.944
2.658	-7.957	-1.014
2.660	-7.948	-1.012
2.656	-7.940	-1.009
2.649	-7.936	-1.006
2.640	-7.937	-1.003
2.633	-7.944	-1.002
2.631	-7.952	-1.004
2.635	-7.961	-1.007
2.642	-7.965	-1.010
2.651	-7.963	-1.013
2.720	-8.001	-0.827
2.722	-7.992	-0.825
2.718	-7.984	-0.822
2.711	-7.980	-0.819
2.702	-7.981	-0.816
2.695	-7.988	-0.816
2.693	-7.996	-0.817
2.697	-8.004	-0.820
2.704	-8.009	-0.824
2.713	-8.007	-0.826
2.720	-8.094	-1.030
2.720	-8.092	-1.021
2.715	-8.086	-1.015
2.708	-8.080	-1.015
2.702	-8.075	-1.019
2.698	-8.074	-1.028
2.699	-8.077	-1.037
2.703	-8.083	-1.043
2.710	-8.089	-1.043
2.717	-8.093	-1.038
2.610	-8.219	-0.997
2.609	-8.216	-0.988
2.605	-8.211	-0.983
2.598	-8.205	-0.982
2.591	-8.200	-0.987
2.588	-8.199	-0.995
2.588	-8.202	-1.004
2.593	-8.207	-1.010
2.600	-8.214	-1.011
2.606	-8.218	-1.006
2.769	-8.207	-1.061
2.772	-8.204	-1.053
2.775	-8.206	-1.044
2.777	-8.214	-1.039
2.777	-8.223	-1.039
2.775	-8.231	-1.043
2.771	-8.234	-1.051
2.768	-8.231	-1.060
2.766	-8.224	-1.065
2.766	-8.215	-1.065
2.905	-8.213	-1.117
2.908	-8.210	-1.109
2.911	-8.213	-1.101
2.913	-8.220	-1.096
2.913	-8.229	-1.095
2.911	-8.237	-1.100
2.907	-8.240	-1.108
2.904	-8.238	-1.116
2.902	-8.230	-1.121
2.902	-8.221	-1.122
0.506	-5.242	-0.234
0.507	-5.240	-0.225
0.503	-5.236	-0.218
0.495	-5.231	-0.216
0.487	-5.227	-0.219
0.482	-5.226	-0.226
0.481	-5.228	-0.235
0.485	-5.233	-0.242
0.493	-5.238	-0.245
0.501	-5.241	-0.242
0.160	-5.839	-0.078
0.161	-5.837	-0.069
0.157	-5.833	-0.062
0.150	-5.828	-0.060
0.142	-5.824	-0.063
0.136	-5.823	-0.070
0.136	-5.825	-0.079
0.140	-5.829	-0.086
0.147	-5.834	-0.089
0.155	-5.838	-0.086
2.843	-8.364	-1.077
2.843	-8.360	-1.068
2.839	-8.354	-1.063
2.832	-8.347	-1.064
2.826	-8.343	-1.069
2.823	-8.343	-1.077
[...]
         <CellData>
           <DataArray type="Float32" Name="combinedRootClassID" NumberOfComponents="1" format="ascii">
 -1.300e+01 -1.300e+01 -1.300e+01 -1.300e+01 -1.300e+01 -1.300e+01 -1.300e+01 -1.300e+01 -1.300e+01 -1.300e+01 -1.300e+01 -1.300e+01 -1.300e+01 -1.300e+01 -1.300e+01 -1.300e+01 -1.300e+01 -1.300e+01 -1.300e+01 -1.300e+01 -1.300e+01 -1.300e+01 -1.300e+01 -1.300e+01 -1.300e+01 -1.300e+01 -1.300e+01 -1.300e+01 -1.300e+01 -1.300e+01 -1.300e+01 -1.300e+01 -1.300e+01 -1.300e+01 -1.300e+01 -1.300e+01 -5.000e+00 -5.000e+00 -5.000e+00 -5.000e+00 -5.000e+00 -5.000e+00 -5.000e+00 -5.000e+00 -5.000e+00 -5.000e+00 -5.000e+00 -5.000e+00 -5.000e+00 -5.000e+00 -5.000e+00 -5.000e+00 -5.000e+00 -5.000e+00 -1.300e+01 -1.300e+01 -1.300e+01 -1.300e+01 -1.300e+01 -1.300e+01 -1.300e+01 -1.300e+01 -1.300e+01 -1.300e+01 -1.300e+01 -1.300e+01 -1.300e+01 -1.300e+01 -1.300e+01 -1.300e+01 -1.300e+01 -1.300e+01 -1.300e+01 -1.300e+01 -1.300e+01 -1.300e+01 -1.300e+01 -1.300e+01 -1.300e+01 -1.300e+01 -1.300e+01 -1.300e+01 -1.300e+01 -1.300e+01 -1.300e+01 -1.300e+01 -1.300e+01 -1.300e+01 -1.300e+01 -1.300e+01 -5.000e+00 -5.000e+00 -5.000e+00 -5.000e+00 -5.000e+00 -5.000e+00 -5.000e+00 -5.000e+00 -5.000e+00 -5.000e+00 -5.000e+00 -5.000e+00 -5.000e+00 -5.000e+00 -5.000e+00 -5.000e+00 -5.000e+00 -5.000e+00 -1.300e+01 -1.300e+01 -1.300e+01 -1.300e+01 -1.300e+01 -1.300e+01 -1.300e+01 -1.300e+01 -1.300e+01 -1.300e+01 -1.300e+01 -1.300e+01 -1.300e+01 -1.300e+01 -1.300e+01 -1.300e+01 -1.300e+01 -1.300e+01 -1.300e+01 -1.300e+01 -1.300e+01 -1.300e+01 -1.300e+01 -1.300e+01 -1.300e+01 -1.300e+01 -1.300e+01 -1.300e+01 -1.300e+01 -1.300e+01 -1.300e+01 -1.300e+01 -1.300e+01 -1.300e+01 -1.300e+01 -1.300e+01 -5.000e+00 -5.000e+00 -5.000e+00 -5.000e+00 -5.000e+00 -5.000e+00 -5.000e+00 -5.000e+00 -5.000e+00 -5.000e+00 -5.000e+00 -5.000e+00 -5.000e+00 -5.000e+00 -5.000e+00 -5.000e+00 -5.000e+00 -5.000e+00 -1.300e+01 -1.300e+01 -1.300e+01 -1.300e+01 -1.300e+01 -1.300e+01 -1.300e+01 -1.300e+01 -1.300e+01 -1.300e+01 -1.300e+01 -1.300e+01 -1.300e+01 -1.300e+01 -1.300e+01 -1.300e+01 -1.300e+01 -1.300e+01 -1.300e+01 -1.300e+01 -1.300e+01 -1.300e+01 -1.300e+01 -1.300e+01 -1.300e+01 -1.300e+01 -1.300e+01 -1.300e+01 -1.300e+01 -1.300e+01 -1.300e+01 -1.300e+01 -1.300e+01 -1.300e+01 -1.300e+01 -1.300e+01 -1.300e+01 -5.000e+00 -5.000e+00 -5.000e+00 -5.000e+00 -5.000e+00 -5.000e+00 -5.000e+00 -5.000e+00 -5.000e+00 -5.000e+00 -5.000e+00 -5.000e+00 -5.000e+00 -5.000e+00 -5.000e+00 -5.000e+00 -5.000e+00 -5.000e+00 -1.100e+01 -1.100e+01 -1.100e+01 -1.100e+01 -1.100e+01 -1.100e+01 -1.100e+01 -1.100e+01 -1.100e+01 -1.100e+01 -1.100e+01 -1.100e+01 -1.100e+01 -1.100e+01 -1.100e+01 -1.100e+01 -1.100e+01 -1.100e+01 -1.100e+01 -1.100e+01 -1.100e+01 -1.100e+01 -1.100e+01 -1.100e+01 -1.100e+01 -1.100e+01 -1.100e+01 -1.100e+01 -2.000e+00 -2.000e+00 -2.000e+00 -2.000e+00 -2.000e+00 -2.000e+00 -2.000e+00 -2.000e+00 -2.000e+00 -2.000e+00 -7.000e+00 -7.000e+00 -7.000e+00 -7.000e+00 -7.000e+00 -7.000e+00 -7.000e+00 -7.000e+00 -7.000e+00 -7.000e+00 -7.000e+00 -7.000e+00 -7.000e+00 -7.000e+00 -7.000e+00 -7.000e+00 -7.000e+00 -7.000e+00 -7.000e+00 -7.000e+00 -7.000e+00 -7.000e+00 -7.000e+00 -7.000e+00 -7.000e+00 -7.000e+00 -7.000e+00 -7.000e+00 -7.000e+00 -7.000e+00 -7.000e+00 -7.000e+00 -7.000e+00 -7.000e+00 -7.000e+00 -7.000e+00 -7.000e+00 -7.000e+00 -7.000e+00 -7.000e+00 -7.000e+00 -7.000e+00 -7.000e+00 -7.000e+00 -7.000e+00 -7.000e+00 -7.000e+00 -7.000e+00 -7.000e+00 -7.000e+00 -7.000e+00 -7.000e+00 -7.000e+00 -7.000e+00 -7.000e+00 -7.000e+00 -7.000e+00 -7.000e+00 -7.000e+00 -7.000e+00 -7.000e+00 -7.000e+00 -7.000e+00 -7.000e+00 -7.000e+00 -7.000e+00 -7.000e+00 -7.000e+00 -7.000e+00 -7.000e+00 -7.000e+00 -7.000e+00 -7.000e+00 -7.000e+00 -7.000e+00 -7.000e+00 -7.000e+00 -7.000e+00 -7.000e+00 -7.000e+00 -7.000e+00 -7.000e+00 -7.000e+00 -7.000e+00 -7.000e+00 -7.000e+00 -7.000e+00 -7.000e+00 -7.000e+00 -7.000e+00 -7.000e+00 -7.000e+00 -7.000e+00 -7.000e+00 -7.000e+00 -7.000e+00 -7.000e+00 -7.000e+00 -7.000e+00 -7.000e+00 -7.000e+00 -7.000e+00 -7.000e+00 -7.000e+00 -7.000e+00 -7.000e+00 -7.000e+00 -7.000e+00 -7.000e+00 -7.000e+00 -7.000e+00 -7.000e+00 -7.000e+00 -7.000e+00 -7.000e+00 -7.000e+00 -7.000e+00 -7.000e+00 -7.000e+00 -7.000e+00 -7.000e+00 -7.000e+00 -7.000e+00 -7.000e+00 -7.000e+00 -7.000e+00 -7.000e+00 -7.000e+00 -7.000e+00 -7.000e+00 -7.000e+00 -7.000e+00 -7.000e+00 -7.000e+00 -7.000e+00 -7.000e+00 -7.000e+00 -7.000e+00 -7.000e+00 -7.000e+00 -7.000e+00 -7.000e+00 -7.000e+00 -7.000e+00 -7.000e+00 -7.000e+00 -7.000e+00 -7.000e+00 -7.000e+00 -7.000e+00 -7.000e+00 -7.000e+00 -7.000e+00 -7.000e+00 -7.000e+00 -7.000e+00 -7.000e+00 -7.000e+00 -7.000e+00 -7.000e+00 -7.000e+00 -7.000e+00 -7.000e+00 -7.000e+00 -7.000e+00 -7.000e+00 -7.000e+00 -7.000e+00 -7.000e+00 -7.000e+00 -7.000e+00 -7.000e+00 -7.000e+00 -7.000e+00 -7.000e+00 -7.000e+00 -7.000e+00 -7.000e+00 -7.000e+00 -7.000e+00 -7.000e+00 -7.000e+00 -7.000e+00 -7.000e+00 -7.000e+00 -7.000e+00 -7.000e+00 -7.000e+00 -7.000e+00 -7.000e+00 -7.000e+00 -7.000e+00 -7.000e+00 -7.000e+00 -7.000e+00 -7.000e+00 -7.000e+00 -7.000e+00 -7.000e+00 -7.000e+00 -7.000e+00 -7.000e+00 -7.000e+00 -7.000e+00 -7.000e+00 -7.000e+00 -7.000e+00 -7.000e+00 -7.000e+00 -7.000e+00 -7.000e+00 -7.000e+00 -7.000e+00 -7.000e+00 -7.000e+00 -7.000e+00 -7.000e+00 -7.000e+00 -7.000e+00 -7.000e+00 -7.000e+00 -7.000e+00 -7.000e+00 -7.000e+00 -7.000e+00 -7.000e+00 -7.000e+00 -7.000e+00 -7.000e+00 -7.000e+00 -7.000e+00 -7.000e+00 -7.000e+00 -7.000e+00 -7.000e+00 -7.000e+00 -7.000e+00 -7.000e+00 -7.000e+00 -7.000e+00 -7.000e+00 -7.000e+00 -7.000e+00 -7.000e+00 -7.000e+00 -7.000e+00 -7.000e+00 -7.000e+00 -7.000e+00 -7.000e+00 -7.000e+00 -7.000e+00 -7.000e+00 -7.000e+00 -7.000e+00 -7.000e+00 -7.000e+00 -7.000e+00 -7.000e+00 -7.000e+00 -7.000e+00 -7.000e+00 -7.000e+00 -7.000e+00 -7.000e+00 -7.000e+00 -7.000e+00 -7.000e+00 -7.000e+00 -7.000e+00 -7.000e+00 -7.000e+00 -7.000e+00 -7.000e+00 -7.000e+00 -7.000e+00 -7.000e+00 -7.000e+00 -7.000e+00 -7.000e+00 -7.000e+00 -7.000e+00 -7.000e+00 -7.000e+00 -7.000e+00 -7.000e+00 -7.000e+00 -1.500e+01 -9.000e+00 -9.000e+00 -9.000e+00 -9.000e+00 -9.000e+00 -9.000e+00 -9.000e+00 -9.000e+00 -9.000e+00 -9.000e+00 -9.000e+00 -9.000e+00 -9.000e+00 -9.000e+00 -4.000e+00 -4.000e+00 -4.000e+00 -4.000e+00 -4.000e+00 -4.000e+00 -4.000e+00 -4.000e+00 -4.000e+00 -4.000e+00 -4.000e+00 -4.000e+00 -4.000e+00 -4.000e+00 -4.000e+00 -4.000e+00 -4.000e+00 -4.000e+00 -4.000e+00 -4.000e+00 -4.000e+00 -4.000e+00 -4.000e+00 -4.000e+00 -4.000e+00 -4.000e+00 -4.000e+00 -4.000e+00 -4.000e+00 -4.000e+00
           </DataArray>
           <DataArray type="Float32" Name="parentRootClassID" NumberOfComponents="1" format="ascii">
 9.900e+01 9.900e+01 9.900e+01 9.900e+01 9.900e+01 9.900e+01 9.900e+01 9.900e+01 9.900e+01 9.900e+01 9.900e+01 9.900e+01 9.900e+01 9.900e+01 9.900e+01 9.900e+01 9.900e+01 9.900e+01 9.900e+01 9.900e+01 9.900e+01 9.900e+01 9.900e+01 9.900e+01 9.900e+01 9.900e+01 9.900e+01 9.900e+01 9.900e+01 9.900e+01 9.900e+01 9.900e+01 9.900e+01 9.900e+01 9.900e+01 9.900e+01 -2.000e+00 -2.000e+00 -2.000e+00 -2.000e+00 -2.000e+00 -2.000e+00 -2.000e+00 -2.000e+00 -2.000e+00 -2.000e+00 -2.000e+00 -2.000e+00 -2.000e+00 -2.000e+00 -2.000e+00 -2.000e+00 -2.000e+00 -2.000e+00 9.900e+01 9.900e+01 9.900e+01 9.900e+01 9.900e+01 9.900e+01 9.900e+01 9.900e+01 9.900e+01 9.900e+01 9.900e+01 9.900e+01 9.900e+01 9.900e+01 9.900e+01 9.900e+01 9.900e+01 9.900e+01 9.900e+01 9.900e+01 9.900e+01 9.900e+01 9.900e+01 9.900e+01 9.900e+01 9.900e+01 9.900e+01 9.900e+01 9.900e+01 9.900e+01 9.900e+01 9.900e+01 9.900e+01 9.900e+01 9.900e+01 9.900e+01 -2.000e+00 -2.000e+00 -2.000e+00 -2.000e+00 -2.000e+00 -2.000e+00 -2.000e+00 -2.000e+00 -2.000e+00 -2.000e+00 -2.000e+00 -2.000e+00 -2.000e+00 -2.000e+00 -2.000e+00 -2.000e+00 -2.000e+00 -2.000e+00 9.900e+01 9.900e+01 9.900e+01 9.900e+01 9.900e+01 9.900e+01 9.900e+01 9.900e+01 9.900e+01 9.900e+01 9.900e+01 9.900e+01 9.900e+01 9.900e+01 9.900e+01 9.900e+01 9.900e+01 9.900e+01 9.900e+01 9.900e+01 9.900e+01 9.900e+01 9.900e+01 9.900e+01 9.900e+01 9.900e+01 9.900e+01 9.900e+01 9.900e+01 9.900e+01 9.900e+01 9.900e+01 9.900e+01 9.900e+01 9.900e+01 9.900e+01 -2.000e+00 -2.000e+00 -2.000e+00 -2.000e+00 -2.000e+00 -2.000e+00 -2.000e+00 -2.000e+00 -2.000e+00 -2.000e+00 -2.000e+00 -2.000e+00 -2.000e+00 -2.000e+00 -2.000e+00 -2.000e+00 -2.000e+00 -2.000e+00 9.900e+01 9.900e+01 9.900e+01 9.900e+01 9.900e+01 9.900e+01 9.900e+01 9.900e+01 9.900e+01 9.900e+01 9.900e+01 9.900e+01 9.900e+01 9.900e+01 9.900e+01 9.900e+01 9.900e+01 9.900e+01 9.900e+01 9.900e+01 9.900e+01 9.900e+01 9.900e+01 9.900e+01 9.900e+01 9.900e+01 9.900e+01 9.900e+01 9.900e+01 9.900e+01 9.900e+01 9.900e+01 9.900e+01 9.900e+01 9.900e+01 9.900e+01 9.900e+01 -2.000e+00 -2.000e+00 -2.000e+00 -2.000e+00 -2.000e+00 -2.000e+00 -2.000e+00 -2.000e+00 -2.000e+00 -2.000e+00 -2.000e+00 -2.000e+00 -2.000e+00 -2.000e+00 -2.000e+00 -2.000e+00 -2.000e+00 -2.000e+00 -2.000e+00 -2.000e+00 -2.000e+00 -2.000e+00 -2.000e+00 -2.000e+00 -2.000e+00 -2.000e+00 -2.000e+00 -2.000e+00 -2.000e+00 -2.000e+00 -2.000e+00 -2.000e+00 -2.000e+00 -2.000e+00 -2.000e+00 -2.000e+00 -2.000e+00 -2.000e+00 -2.000e+00 -2.000e+00 -2.000e+00 -2.000e+00 -2.000e+00 -2.000e+00 -2.000e+00 -2.000e+00 -3.000e+00 -3.000e+00 -3.000e+00 -3.000e+00 -3.000e+00 -3.000e+00 -3.000e+00 -3.000e+00 -3.000e+00 -3.000e+00 -4.000e+00 -4.000e+00 -4.000e+00 -4.000e+00 -4.000e+00 -4.000e+00 -4.000e+00 -4.000e+00 -4.000e+00 -4.000e+00 -4.000e+00 -4.000e+00 -4.000e+00 -4.000e+00 -4.000e+00 -4.000e+00 -4.000e+00 -4.000e+00 -4.000e+00 -4.000e+00 -4.000e+00 -4.000e+00 -4.000e+00 -4.000e+00 -4.000e+00 -4.000e+00 -4.000e+00 -4.000e+00 -4.000e+00 -4.000e+00 -4.000e+00 -4.000e+00 -4.000e+00 -4.000e+00 -4.000e+00 -4.000e+00 -4.000e+00 -4.000e+00 -4.000e+00 -4.000e+00 -4.000e+00 -4.000e+00 -4.000e+00 -4.000e+00 -4.000e+00 -4.000e+00 -4.000e+00 -4.000e+00 -4.000e+00 -4.000e+00 -4.000e+00 -4.000e+00 -4.000e+00 -4.000e+00 -4.000e+00 -4.000e+00 -4.000e+00 -4.000e+00 -4.000e+00 -4.000e+00 -4.000e+00 -4.000e+00 -4.000e+00 -4.000e+00 -4.000e+00 -4.000e+00 -4.000e+00 -4.000e+00 -4.000e+00 -4.000e+00 -4.000e+00 -4.000e+00 -4.000e+00 -4.000e+00 -4.000e+00 -4.000e+00 -4.000e+00 -4.000e+00 -4.000e+00 -4.000e+00 -4.000e+00 -4.000e+00 -4.000e+00 -4.000e+00 -4.000e+00 -4.000e+00 -4.000e+00 -4.000e+00 -4.000e+00 -4.000e+00 -4.000e+00 -4.000e+00 -4.000e+00 -4.000e+00 -4.000e+00 -4.000e+00 -4.000e+00 -4.000e+00 -4.000e+00 -4.000e+00 -4.000e+00 -4.000e+00 -4.000e+00 -4.000e+00 -4.000e+00 -4.000e+00 -4.000e+00 -4.000e+00 -4.000e+00 -4.000e+00 -4.000e+00 -4.000e+00 -4.000e+00 -4.000e+00 -4.000e+00 -4.000e+00 -4.000e+00 -4.000e+00 -4.000e+00 -4.000e+00 -4.000e+00 -4.000e+00 -4.000e+00 -4.000e+00 -4.000e+00 -4.000e+00 -4.000e+00 -4.000e+00 -4.000e+00 -4.000e+00 -4.000e+00 -4.000e+00 -4.000e+00 -4.000e+00 -4.000e+00 -4.000e+00 -4.000e+00 -4.000e+00 -4.000e+00 -4.000e+00 -4.000e+00 -4.000e+00 -4.000e+00 -4.000e+00 -4.000e+00 -4.000e+00 -4.000e+00 -4.000e+00 -4.000e+00 -4.000e+00 -4.000e+00 -4.000e+00 -4.000e+00 -4.000e+00 -4.000e+00 -4.000e+00 -4.000e+00 -4.000e+00 -4.000e+00 -4.000e+00 -4.000e+00 -4.000e+00 -4.000e+00 -4.000e+00 -4.000e+00 -4.000e+00 -4.000e+00 -4.000e+00 -4.000e+00 -4.000e+00 -4.000e+00 -4.000e+00 -4.000e+00 -4.000e+00 -4.000e+00 -4.000e+00 -4.000e+00 -4.000e+00 -4.000e+00 -4.000e+00 -4.000e+00 -4.000e+00 -4.000e+00 -4.000e+00 -4.000e+00 -4.000e+00 -4.000e+00 -4.000e+00 -4.000e+00 -4.000e+00 -4.000e+00 -4.000e+00 -4.000e+00 -4.000e+00 -4.000e+00 -4.000e+00 -4.000e+00 -4.000e+00 -4.000e+00 -4.000e+00 -4.000e+00 -4.000e+00 -4.000e+00 -4.000e+00 -4.000e+00 -4.000e+00 -4.000e+00 -4.000e+00 -4.000e+00 -4.000e+00 -4.000e+00 -4.000e+00 -4.000e+00 -4.000e+00 -4.000e+00 -4.000e+00 -4.000e+00 -4.000e+00 -4.000e+00 -4.000e+00 -4.000e+00 -4.000e+00 -4.000e+00 -4.000e+00 -4.000e+00 -4.000e+00 -4.000e+00 -4.000e+00 -4.000e+00 -4.000e+00 -4.000e+00 -4.000e+00 -4.000e+00 -4.000e+00 -4.000e+00 -4.000e+00 -4.000e+00 -4.000e+00 -4.000e+00 -4.000e+00 -4.000e+00 -4.000e+00 -4.000e+00 -4.000e+00 -4.000e+00 -4.000e+00 -4.000e+00 -4.000e+00 -4.000e+00 -4.000e+00 -4.000e+00 -4.000e+00 -4.000e+00 -4.000e+00 -4.000e+00 -4.000e+00 -4.000e+00 -4.000e+00 -4.000e+00 -4.000e+00 -4.000e+00 -4.000e+00 -4.000e+00 -4.000e+00 -4.000e+00 -4.000e+00 -4.000e+00 -4.000e+00 -4.000e+00 -4.000e+00 -4.000e+00 -4.000e+00 -4.000e+00 -4.000e+00 -4.000e+00 -4.000e+00 -4.000e+00 -4.000e+00 -4.000e+00 -4.000e+00 -4.000e+00 -4.000e+00 -4.000e+00 -4.000e+00 -4.000e+00 -4.000e+00 -4.000e+00 9.700e+01 -4.000e+00 -4.000e+00 -4.000e+00 -4.000e+00 -4.000e+00 -4.000e+00 -4.000e+00 -4.000e+00 -4.000e+00 -4.000e+00 -4.000e+00 -4.000e+00 -4.000e+00 -4.000e+00 -3.000e+00 -3.000e+00 -3.000e+00 -3.000e+00 -3.000e+00 -3.000e+00 -3.000e+00 -3.000e+00 -3.000e+00 -3.000e+00 -3.000e+00 -3.000e+00 -3.000e+00 -3.000e+00 -3.000e+00 -3.000e+00 -3.000e+00 -3.000e+00 -3.000e+00 -3.000e+00 -3.000e+00 -3.000e+00 -3.000e+00 -3.000e+00 -3.000e+00 -3.000e+00 -3.000e+00 -3.000e+00 -3.000e+00 -3.000e+00
           </DataArray>
           <DataArray type="Float32" Name="phosphorus/Imax" NumberOfComponents="1" format="ascii">
 5.550e-02 5.550e-02 5.550e-02 5.550e-02 5.550e-02 5.550e-02 5.550e-02 5.550e-02 5.550e-02 5.550e-02 5.550e-02 5.550e-02 5.550e-02 5.550e-02 5.550e-02 5.550e-02 5.550e-02 5.550e-02 5.550e-02 5.550e-02 5.550e-02 5.550e-02 5.550e-02 5.550e-02 5.550e-02 5.550e-02 5.550e-02 5.550e-02 5.550e-02 5.550e-02 5.550e-02 5.550e-02 5.550e-02 5.550e-02 5.550e-02 5.550e-02 5.550e-02 5.550e-02 5.550e-02 5.550e-02 5.550e-02 5.550e-02 5.550e-02 5.550e-02 5.550e-02 5.550e-02 5.550e-02 5.550e-02 5.550e-02 5.550e-02 5.550e-02 5.550e-02 5.550e-02 5.550e-02 5.550e-02 5.550e-02 5.550e-02 5.550e-02 5.550e-02 5.550e-02 5.550e-02 5.550e-02 5.550e-02 5.550e-02 5.550e-02 5.550e-02 5.550e-02 5.550e-02 5.550e-02 5.550e-02 5.550e-02 5.550e-02 5.550e-02 5.550e-02 5.550e-02 5.550e-02 5.550e-02 5.550e-02 5.550e-02 5.550e-02 5.550e-02 5.550e-02 5.550e-02 5.550e-02 5.550e-02 5.550e-02 5.550e-02 5.550e-02 5.550e-02 5.550e-02 5.550e-02 5.550e-02 5.550e-02 5.550e-02 5.550e-02 5.550e-02 5.550e-02 5.550e-02 5.550e-02 5.550e-02 5.550e-02 5.550e-02 5.550e-02 5.550e-02 5.550e-02 5.550e-02 5.550e-02 5.550e-02 5.550e-02 5.550e-02 5.550e-02 5.550e-02 5.550e-02 5.550e-02 5.550e-02 5.550e-02 5.550e-02 5.550e-02 5.550e-02 5.550e-02 5.550e-02 5.550e-02 5.550e-02 5.550e-02 5.550e-02 5.550e-02 5.550e-02 5.550e-02 5.550e-02 5.550e-02 5.550e-02 5.550e-02 5.550e-02 5.550e-02 5.550e-02 5.550e-02 5.550e-02 5.550e-02 5.550e-02 5.550e-02 5.550e-02 5.550e-02 5.550e-02 5.550e-02 5.550e-02 5.550e-02 5.550e-02 5.550e-02 5.550e-02 5.550e-02 5.550e-02 5.550e-02 5.550e-02 5.550e-02 5.550e-02 5.550e-02 5.550e-02 5.550e-02 5.550e-02 5.550e-02 5.550e-02 5.550e-02 5.550e-02 5.550e-02 5.550e-02 5.550e-02 5.550e-02 5.550e-02 5.550e-02 5.550e-02 5.550e-02 5.550e-02 5.550e-02 5.550e-02 5.550e-02 5.550e-02 5.550e-02 5.550e-02 5.550e-02 5.550e-02 5.550e-02 5.550e-02 5.550e-02 5.550e-02 5.550e-02 5.550e-02 5.550e-02 5.550e-02 5.550e-02 5.550e-02 5.550e-02 5.550e-02 5.550e-02 5.550e-02 5.550e-02 5.550e-02 5.550e-02 5.550e-02 5.550e-02 5.550e-02 5.550e-02 5.550e-02 5.550e-02 5.550e-02 5.550e-02 5.550e-02 5.550e-02 5.550e-02 5.550e-02 5.550e-02 5.550e-02 5.550e-02 5.550e-02 5.550e-02 5.550e-02 5.550e-02 5.550e-02 5.550e-02 5.550e-02 5.550e-02 5.550e-02 5.550e-02 5.550e-02 5.550e-02 5.550e-02 5.550e-02 5.550e-02 5.550e-02 5.550e-02 5.550e-02 5.550e-02 5.550e-02 5.550e-02 5.550e-02 5.550e-02 5.550e-02 5.550e-02 5.550e-02 5.550e-02 5.550e-02 5.550e-02 5.550e-02 5.550e-02 5.550e-02 5.550e-02 5.550e-02 5.550e-02 5.550e-02 5.550e-02 5.550e-02 5.550e-02 5.550e-02 5.550e-02 5.550e-02 5.550e-02 5.550e-02 5.550e-02 5.550e-02 5.550e-02 5.550e-02 5.550e-02 5.550e-02 5.550e-02 5.550e-02 5.550e-02 5.550e-02 5.550e-02 5.550e-02 5.550e-02 5.550e-02 5.550e-02 5.550e-02 5.550e-02 5.550e-02 5.550e-02 5.550e-02 5.550e-02 5.550e-02 5.550e-02 5.550e-02 5.550e-02 5.550e-02 5.550e-02 5.550e-02 5.550e-02 5.550e-02 5.550e-02 5.550e-02 5.550e-02 5.550e-02 5.550e-02 5.550e-02 5.550e-02 5.550e-02 5.550e-02 5.550e-02 5.550e-02 5.550e-02 5.550e-02 5.550e-02 5.550e-02 5.550e-02 5.550e-02 5.550e-02 5.550e-02 5.550e-02 5.550e-02 5.550e-02 5.550e-02 5.550e-02 5.550e-02 5.550e-02 5.550e-02 5.550e-02 5.550e-02 5.550e-02 5.550e-02 5.550e-02 5.550e-02 5.550e-02 5.550e-02 5.550e-02 5.550e-02 5.550e-02 5.550e-02 5.550e-02 5.550e-02 5.550e-02 5.550e-02 5.550e-02 5.550e-02 5.550e-02 5.550e-02 5.550e-02 5.550e-02 5.550e-02 5.550e-02 5.550e-02 5.550e-02 5.550e-02 5.550e-02 5.550e-02 5.550e-02 5.550e-02 5.550e-02 5.550e-02 5.550e-02 5.550e-02 5.550e-02 5.550e-02 5.550e-02 5.550e-02 5.550e-02 5.550e-02 5.550e-02 5.550e-02 5.550e-02 5.550e-02 5.550e-02 5.550e-02 5.550e-02 5.550e-02 5.550e-02 5.550e-02 5.550e-02 5.550e-02 5.550e-02 5.550e-02 5.550e-02 5.550e-02 5.550e-02 5.550e-02 5.550e-02 5.550e-02 5.550e-02 5.550e-02 5.550e-02 5.550e-02 5.550e-02 5.550e-02 5.550e-02 5.550e-02 5.550e-02 5.550e-02 5.550e-02 5.550e-02 5.550e-02 5.550e-02 5.550e-02 5.550e-02 5.550e-02 5.550e-02 5.550e-02 5.550e-02 5.550e-02 5.550e-02 5.550e-02 5.550e-02 5.550e-02 5.550e-02 5.550e-02 5.550e-02 5.550e-02 5.550e-02 5.550e-02 5.550e-02 5.550e-02 5.550e-02 5.550e-02 5.550e-02 5.550e-02 5.550e-02 5.550e-02 5.550e-02 5.550e-02 5.550e-02 5.550e-02 5.550e-02 5.550e-02 5.550e-02 5.550e-02 5.550e-02 5.550e-02 5.550e-02 5.550e-02 5.550e-02 5.550e-02 5.550e-02 5.550e-02 5.550e-02 5.550e-02 5.550e-02 5.550e-02 5.550e-02 5.550e-02 5.550e-02 5.550e-02 5.550e-02 5.550e-02 5.550e-02 5.550e-02 5.550e-02 5.550e-02 5.550e-02 5.550e-02 5.550e-02 5.550e-02 5.550e-02 5.550e-02 5.550e-02 5.550e-02 5.550e-02 5.550e-02 5.550e-02 5.550e-02 5.550e-02 5.550e-02 5.550e-02 5.550e-02 5.550e-02 5.550e-02 5.550e-02 5.550e-02 5.550e-02 5.550e-02 5.550e-02 5.550e-02 5.550e-02 5.550e-02 5.550e-02 5.550e-02 5.550e-02 5.550e-02 5.550e-02 5.550e-02 5.550e-02 5.550e-02 5.550e-02 5.550e-02 5.550e-02 5.550e-02 5.550e-02 5.550e-02 5.550e-02 5.550e-02 5.550e-02 5.550e-02 5.550e-02 5.550e-02 5.550e-02 5.550e-02 5.550e-02 5.550e-02 5.550e-02 5.550e-02 5.550e-02 5.550e-02 5.550e-02 5.550e-02 5.550e-02 5.550e-02 5.550e-02 5.550e-02 5.550e-02 5.550e-02 5.550e-02 5.550e-02 5.550e-02 5.550e-02 5.550e-02 5.550e-02 5.550e-02 5.550e-02 5.550e-02 5.550e-02 5.550e-02 5.550e-02 5.550e-02 5.550e-02 5.550e-02 5.550e-02 5.550e-02 5.550e-02 5.550e-02 5.550e-02 5.550e-02 5.550e-02 5.550e-02 5.550e-02 5.550e-02 5.550e-02 5.550e-02 5.550e-02 5.550e-02 5.550e-02 5.550e-02 5.550e-02 5.550e-02 5.550e-02 5.550e-02 5.550e-02 5.550e-02 5.550e-02 5.550e-02 5.550e-02 5.550e-02 5.550e-02 5.550e-02 5.550e-02 5.550e-02 5.550e-02 5.550e-02 5.550e-02 5.550e-02 5.550e-02 5.550e-02 5.550e-02 5.550e-02 5.550e-02 5.550e-02 5.550e-02 5.550e-02 5.550e-02 5.550e-02 5.550e-02 5.550e-02 5.550e-02 5.550e-02 5.550e-02 5.550e-02 5.550e-02 5.550e-02 5.550e-02 5.550e-02 5.550e-02 5.550e-02 5.550e-02 5.550e-02 5.550e-02 5.550e-02 5.550e-02 5.550e-02 5.550e-02 5.550e-02 5.550e-02 5.550e-02 5.550e-02
           </DataArray>
           <DataArray type="Float32" Name="phosphorus/Km" NumberOfComponents="1" format="ascii">