<?xml version="1.0"?>
<VTKFile type="UnstructuredGrid" version="0.1" byte_order="LittleEndian">
   <UnstructuredGrid>
      <Piece NumberOfPoints="32370" NumberOfCells="2284">
         <Points>
            <DataArray type="Float32" Name="Position" NumberOfComponents="3" format="ascii">
0.140	-5.031	-0.076
0.139	-5.022	-0.073
0.134	-5.016	-0.067
0.128	-5.016	-0.061
0.122	-5.021	-0.056
0.118	-5.030	-0.055
0.119	-5.038	-0.058
0.124	-5.044	-0.064
0.130	-5.044	-0.070
0.137	-5.039	-0.075
0.717	-5.179	0.527
0.716	-5.170	0.531
0.712	-5.165	0.537
0.705	-5.165	0.544
0.699	-5.171	0.548
0.696	-5.179	0.549
0.696	-5.188	0.545
0.701	-5.193	0.539
0.707	-5.193	0.532
0.713	-5.188	0.528
1.310	-5.416	1.057
1.310	-5.407	1.060
1.305	-5.402	1.067
1.299	-5.403	1.074
1.293	-5.408	1.078
1.290	-5.417	1.078
1.290	-5.425	1.075
1.295	-5.430	1.068
1.301	-5.430	1.061
1.307	-5.424	1.057
1.953	-5.590	1.666
1.952	-5.581	1.668
1.948	-5.575	1.673
1.941	-5.574	1.679
1.934	-5.579	1.684
1.930	-5.587	1.685
1.931	-5.596	1.683
1.935	-5.602	1.678
1.942	-5.603	1.672
1.949	-5.599	1.667
2.039	-5.616	1.801
2.039	-5.607	1.802
2.034	-5.600	1.807
2.027	-5.598	1.812
2.019	-5.601	1.816
2.015	-5.609	1.818
2.014	-5.618	1.816
2.019	-5.625	1.812
2.026	-5.627	1.807
2.034	-5.624	1.803
0.242	-5.081	-0.122
0.250	-5.077	-0.124
0.260	-5.078	-0.124
0.266	-5.085	-0.125
0.268	-5.094	-0.124
0.264	-5.102	-0.123
0.256	-5.106	-0.122
0.247	-5.105	-0.122
0.240	-5.099	-0.121
0.238	-5.090	-0.122
0.162	-5.129	-0.973
0.170	-5.125	-0.975
0.179	-5.126	-0.975
0.186	-5.133	-0.975
0.187	-5.142	-0.974
0.183	-5.150	-0.973
0.175	-5.154	-0.972
0.166	-5.153	-0.971
0.159	-5.146	-0.971
0.158	-5.137	-0.972
0.061	-5.272	-1.816
0.069	-5.268	-1.818
0.078	-5.270	-1.819
0.085	-5.276	-1.819
0.086	-5.285	-1.818
0.082	-5.293	-1.815
0.074	-5.297	-1.813
0.065	-5.295	-1.812
0.058	-5.289	-1.812
0.057	-5.280	-1.814
-0.087	-5.424	-2.517
-0.079	-5.421	-2.519
-0.070	-5.422	-2.521
-0.063	-5.429	-2.521
-0.062	-5.438	-2.519
-0.066	-5.446	-2.517
-0.074	-5.450	-2.514
-0.083	-5.448	-2.513
-0.089	-5.441	-2.513
-0.091	-5.432	-2.514
1.232	-5.873	-0.570
1.241	-5.871	-0.572
1.250	-5.874	-0.572
1.255	-5.881	-0.571
1.256	-5.890	-0.568
1.251	-5.897	-0.565
1.242	-5.899	-0.562
1.233	-5.896	-0.562
1.227	-5.889	-0.564
1.227	-5.880	-0.566
1.108	-6.145	-1.368
1.116	-6.142	-1.371
1.125	-6.143	-1.373
1.131	-6.150	-1.372
1.133	-6.159	-1.370
1.129	-6.167	-1.367
1.121	-6.170	-1.364
1.112	-6.168	-1.362
1.105	-6.162	-1.363
1.104	-6.153	-1.365
0.822	-6.322	-2.187
0.831	-6.318	-2.189
0.840	-6.320	-2.190
0.846	-6.327	-2.190
0.847	-6.336	-2.188
0.843	-6.344	-2.186
0.835	-6.347	-2.183
0.826	-6.346	-2.182
0.820	-6.339	-2.182
0.818	-6.330	-2.184
0.798	-6.507	-3.052
0.807	-6.504	-3.053
0.816	-6.507	-3.052
0.822	-6.514	-3.051
0.822	-6.523	-3.048
0.816	-6.531	-3.046
0.808	-6.533	-3.045
0.799	-6.531	-3.046
0.793	-6.523	-3.047
0.793	-6.515	-3.050
0.787	-6.602	-3.321
0.796	-6.601	-3.318
0.805	-6.600	-3.320
0.811	-6.599	-3.326
0.812	-6.599	-3.336
0.807	-6.600	-3.344
0.799	-6.601	-3.347
0.790	-6.602	-3.345
0.783	-6.603	-3.339
0.783	-6.603	-3.329
5.171	-18.473	-2.092
5.179	-18.469	-2.094
5.188	-18.470	-2.095
5.195	-18.476	-2.096
5.197	-18.485	-2.094
5.193	-18.494	-2.092
5.185	-18.498	-2.090
5.176	-18.496	-2.089
5.169	-18.490	-2.088
5.167	-18.481	-2.090
5.121	-18.541	-2.473
5.125	-18.541	-2.465
5.124	-18.541	-2.456
5.117	-18.541	-2.449
5.108	-18.541	-2.448
5.100	-18.541	-2.452
5.096	-18.541	-2.460
5.097	-18.541	-2.469
5.104	-18.541	-2.476
5.113	-18.541	-2.477
5.202	-18.621	-2.105
5.204	-18.617	-2.097
5.205	-18.619	-2.088
5.205	-18.625	-2.081
5.204	-18.634	-2.080
5.203	-18.643	-2.084
5.202	-18.647	-2.092
5.201	-18.645	-2.101
5.200	-18.638	-2.108
5.201	-18.629	-2.109
5.569	-18.649	-2.153
5.570	-18.645	-2.144
5.571	-18.646	-2.135
5.572	-18.653	-2.129
5.571	-18.662	-2.128
5.570	-18.670	-2.132
5.569	-18.674	-2.140
5.568	-18.673	-2.149
5.567	-18.666	-2.156
5.568	-18.657	-2.157
5.224	-18.770	-2.108
5.226	-18.766	-2.100
5.227	-18.767	-2.091
5.226	-18.773	-2.084
5.225	-18.782	-2.082
5.223	-18.791	-2.086
5.221	-18.795	-2.094
5.220	-18.793	-2.103
5.220	-18.787	-2.110
5.222	-18.778	-2.112
5.525	-18.846	-2.136
5.529	-18.838	-2.136
5.528	-18.829	-2.136
5.521	-18.822	-2.136
5.512	-18.821	-2.136
5.504	-18.825	-2.136
5.500	-18.833	-2.136
5.501	-18.842	-2.136
5.508	-18.849	-2.136
5.517	-18.850	-2.136
5.241	-18.918	-2.112
5.243	-18.914	-2.104
5.245	-18.916	-2.095
5.245	-18.923	-2.088
5.245	-18.932	-2.087
5.243	-18.940	-2.092
5.242	-18.944	-2.100
5.240	-18.942	-2.109
5.239	-18.935	-2.115
5.240	-18.926	-2.116
5.579	-18.941	-2.179
5.581	-18.938	-2.171
5.582	-18.939	-2.162
5.583	-18.946	-2.156
5.582	-18.956	-2.155
5.581	-18.964	-2.159
5.579	-18.967	-2.167
5.577	-18.965	-2.176
5.577	-18.958	-2.182
5.577	-18.949	-2.183
5.259	-19.066	-2.117
5.262	-19.063	-2.109
5.264	-19.065	-2.100
5.265	-19.072	-2.094
5.264	-19.081	-2.093
5.262	-19.089	-2.098
5.259	-19.093	-2.106
5.257	-19.090	-2.114
5.256	-19.083	-2.120
5.257	-19.074	-2.121
5.468	-19.092	-2.181
5.471	-19.088	-2.173
5.474	-19.090	-2.164
5.475	-19.097	-2.158
5.474	-19.106	-2.157
5.472	-19.114	-2.162
5.469	-19.118	-2.170
5.466	-19.116	-2.178
5.465	-19.109	-2.184
5.466	-19.099	-2.185
5.291	-19.234	-2.118
5.294	-19.225	-2.117
5.290	-19.216	-2.114
5.283	-19.212	-2.111
5.274	-19.213	-2.109
5.267	-19.219	-2.108
5.265	-19.228	-2.109
5.268	-19.236	-2.112
5.276	-19.241	-2.115
5.285	-19.240	-2.117
5.367	-19.289	-1.857
5.369	-19.280	-1.855
5.366	-19.271	-1.853
5.358	-19.267	-1.850
5.349	-19.268	-1.847
5.342	-19.274	-1.847
5.340	-19.283	-1.848
5.343	-19.291	-1.850
5.351	-19.296	-1.854
5.360	-19.295	-1.856
5.309	-19.387	-2.115
5.309	-19.381	-2.108
5.305	-19.373	-2.105
5.300	-19.366	-2.107
5.296	-19.362	-2.114
5.293	-19.363	-2.123
5.294	-19.368	-2.131
5.298	-19.376	-2.134
5.303	-19.384	-2.131
5.307	-19.388	-2.124
5.117	-19.495	-2.054
5.116	-19.489	-2.047
5.113	-19.481	-2.044
5.108	-19.474	-2.046
5.103	-19.470	-2.053
5.101	-19.471	-2.062
5.102	-19.476	-2.070
5.105	-19.484	-2.073
5.110	-19.492	-2.070
5.115	-19.496	-2.063
5.322	-19.512	-2.135
5.325	-19.508	-2.127
5.328	-19.510	-2.119
5.329	-19.517	-2.113
5.328	-19.526	-2.112
5.325	-19.534	-2.116
5.322	-19.538	-2.124
5.319	-19.536	-2.132
5.318	-19.529	-2.138
5.320	-19.520	-2.140
5.511	-19.543	-2.197
5.514	-19.539	-2.189
5.517	-19.541	-2.180
5.518	-19.548	-2.174
5.517	-19.557	-2.173
5.514	-19.565	-2.177
5.511	-19.569	-2.185
5.508	-19.566	-2.194
5.508	-19.559	-2.200
5.509	-19.550	-2.201
5.330	-19.666	-2.127
5.335	-19.659	-2.132
5.342	-19.657	-2.137
5.350	-19.660	-2.141
5.354	-19.668	-2.142
5.355	-19.677	-2.140
5.350	-19.684	-2.136
5.343	-19.686	-2.131
5.335	-19.683	-2.127
5.330	-19.675	-2.126
5.231	-19.699	-2.283
5.236	-19.692	-2.288
5.243	-19.690	-2.293
5.251	-19.693	-2.297
5.256	-19.701	-2.298
5.256	-19.710	-2.296
5.251	-19.717	-2.292
5.244	-19.719	-2.287
5.236	-19.715	-2.283
5.232	-19.708	-2.282
5.365	-19.832	-2.140
5.367	-19.826	-2.134
5.365	-19.817	-2.132
5.360	-19.810	-2.134
5.354	-19.806	-2.141
5.350	-19.808	-2.149
5.348	-19.815	-2.155
5.350	-19.824	-2.157
5.355	-19.831	-2.155
5.361	-19.834	-2.148
5.247	-19.883	-2.061
5.248	-19.876	-2.055
5.246	-19.867	-2.053
5.241	-19.860	-2.055
5.236	-19.857	-2.062
5.231	-19.859	-2.070
5.230	-19.865	-2.076
5.232	-19.874	-2.078
5.237	-19.881	-2.076
5.243	-19.885	-2.069
1.338	-5.982	-0.614
1.341	-5.978	-0.606
1.343	-5.980	-0.597
1.343	-5.987	-0.591
1.342	-5.996	-0.589
1.340	-6.004	-0.594
1.338	-6.008	-0.602
1.336	-6.006	-0.611
1.335	-5.999	-0.617
1.336	-5.990	-0.618
2.187	-6.098	-0.825
2.189	-6.094	-0.817
2.190	-6.095	-0.808
2.190	-6.102	-0.801
2.188	-6.111	-0.799
2.186	-6.119	-0.803
2.184	-6.123	-0.811
2.183	-6.122	-0.820
2.184	-6.115	-0.827
2.185	-6.106	-0.829
3.075	-6.327	-0.838
3.076	-6.321	-0.831
3.075	-6.321	-0.822
3.072	-6.326	-0.814
3.069	-6.334	-0.811
3.066	-6.342	-0.814
3.065	-6.348	-0.821
3.066	-6.348	-0.831
3.069	-6.344	-0.838
3.072	-6.335	-0.841
3.379	-6.464	-0.740
3.379	-6.457	-0.734
3.377	-6.455	-0.725
3.373	-6.459	-0.717
3.369	-6.466	-0.714
3.366	-6.475	-0.716
3.365	-6.481	-0.723
3.367	-6.483	-0.732
3.371	-6.479	-0.739
3.376	-6.472	-0.743
5.381	-19.981	-2.152
5.382	-19.975	-2.145
5.380	-19.966	-2.143
5.375	-19.959	-2.145
5.369	-19.955	-2.151
5.364	-19.957	-2.159
5.363	-19.964	-2.165
5.365	-19.972	-2.168
5.371	-19.979	-2.166
5.377	-19.983	-2.160
5.282	-20.033	-2.084
5.283	-20.027	-2.077
5.281	-20.018	-2.074
5.275	-20.011	-2.076
5.269	-20.008	-2.083
5.265	-20.009	-2.090
5.264	-20.016	-2.097
5.266	-20.024	-2.100
5.271	-20.032	-2.098
5.277	-20.035	-2.092
5.397	-20.129	-2.166
5.398	-20.123	-2.159
5.395	-20.115	-2.156
5.390	-20.108	-2.158
5.383	-20.104	-2.163
5.378	-20.106	-2.171
5.377	-20.112	-2.178
5.379	-20.121	-2.181
5.385	-20.128	-2.179
5.392	-20.131	-2.174
5.307	-20.184	-2.095
5.309	-20.178	-2.089
5.306	-20.169	-2.085
5.300	-20.162	-2.087
5.294	-20.159	-2.093
5.289	-20.161	-2.100
5.288	-20.167	-2.107
5.290	-20.175	-2.110
5.296	-20.183	-2.109
5.302	-20.186	-2.103
5.412	-20.278	-2.180
5.414	-20.271	-2.174
5.412	-20.263	-2.171
5.406	-20.256	-2.173
5.399	-20.253	-2.178
5.393	-20.255	-2.184
5.390	-20.262	-2.190
5.393	-20.270	-2.193
5.398	-20.277	-2.192
5.406	-20.280	-2.187
5.368	-20.305	-2.132
5.370	-20.298	-2.126
5.368	-20.290	-2.123
5.362	-20.283	-2.124
5.355	-20.280	-2.129
5.349	-20.282	-2.136
5.347	-20.289	-2.142
5.349	-20.298	-2.145
5.355	-20.305	-2.144
5.362	-20.308	-2.139
5.429	-20.417	-2.205
5.429	-20.408	-2.202
5.425	-20.402	-2.196
5.418	-20.401	-2.191
5.411	-20.405	-2.187
5.406	-20.413	-2.186
5.406	-20.422	-2.189
5.410	-20.428	-2.195
5.417	-20.429	-2.201
5.424	-20.425	-2.205
5.465	-20.435	-2.159
5.465	-20.426	-2.156
5.461	-20.420	-2.150
5.454	-20.419	-2.144
5.446	-20.423	-2.140
5.442	-20.431	-2.140
5.442	-20.440	-2.143
5.446	-20.446	-2.148
5.453	-20.447	-2.154
5.460	-20.443	-2.158
5.443	-20.575	-2.204
5.444	-20.569	-2.197
5.441	-20.561	-2.193
5.436	-20.554	-2.195
5.430	-20.550	-2.202
5.426	-20.552	-2.210
5.425	-20.558	-2.217
5.428	-20.566	-2.220
5.433	-20.573	-2.218
5.439	-20.577	-2.212
5.419	-20.590	-2.189
5.420	-20.584	-2.182
[...]
         <CellData>
           <DataArray type="Float32" Name="combinedRootClassID" NumberOfComponents="1" format="ascii">
 -1.300e+01 -1.300e+01 -1.300e+01 -1.300e+01 -1.300e+01 -1.300e+01 -1.300e+01 -1.300e+01 -1.300e+01 -1.300e+01 -1.300e+01 -1.300e+01 -1.300e+01 -1.300e+01 -1.300e+01 -1.300e+01 -1.300e+01 -1.300e+01 -1.300e+01 -1.300e+01 -1.300e+01 -1.300e+01 -1.300e+01 -1.300e+01 -1.300e+01 -1.300e+01 -1.300e+01 -1.300e+01 -1.300e+01 -1.300e+01 -1.300e+01 -1.300e+01 -1.300e+01 -1.300e+01 -1.300e+01 -1.300e+01 -1.300e+01 -1.300e+01 -1.300e+01 -1.300e+01 -1.300e+01 -1.300e+01 -1.300e+01 -1.300e+01 -1.300e+01 -1.300e+01 -1.300e+01 -1.300e+01 -1.300e+01 -1.300e+01 -1.300e+01 -1.300e+01 -1.300e+01 -1.300e+01 -1.300e+01 -1.300e+01 -1.300e+01 -1.300e+01 -1.300e+01 -1.300e+01 -1.300e+01 -1.300e+01 -1.300e+01 -1.300e+01 -1.300e+01 -1.300e+01 -1.300e+01 -1.300e+01 -1.300e+01 -1.300e+01 -1.300e+01 -1.300e+01 -1.300e+01 -1.300e+01 -1.300e+01 -1.300e+01 -1.300e+01 -1.300e+01 -1.300e+01 -1.300e+01 -1.300e+01 -1.300e+01 -1.300e+01 -1.300e+01 -1.300e+01 -1.300e+01 -1.300e+01 -1.300e+01 -1.300e+01 -1.300e+01 -1.300e+01 -1.300e+01 -1.300e+01 -1.300e+01 -1.300e+01 -1.300e+01 -1.300e+01 -1.300e+01 -1.300e+01 -1.300e+01 -1.300e+01 -1.300e+01 -1.300e+01 -1.300e+01 -1.300e+01 -1.300e+01 -1.300e+01 -1.300e+01 -1.300e+01 -1.300e+01 -1.300e+01 -1.300e+01 -1.300e+01 -1.300e+01 -1.300e+01 -1.300e+01 -1.300e+01 -1.300e+01 -1.300e+01 -1.300e+01 -1.300e+01 -1.300e+01 -1.300e+01 -1.300e+01 -1.300e+01 -1.300e+01 -1.300e+01 -1.300e+01 -1.300e+01 -1.300e+01 -1.300e+01 -1.300e+01 -1.300e+01 -1.300e+01 -1.300e+01 -1.300e+01 -1.300e+01 -1.300e+01 -1.300e+01 -1.300e+01 -1.300e+01 -1.300e+01 -1.300e+01 -1.300e+01 -1.300e+01 -1.300e+01 -1.300e+01 -1.300e+01 -1.300e+01 -1.300e+01 -1.300e+01 -1.300e+01 -1.300e+01 -1.300e+01 -1.300e+01 -1.300e+01 -1.300e+01 -1.300e+01 -1.300e+01 -1.300e+01 -1.300e+01 -1.300e+01 -1.300e+01 -1.300e+01 -1.300e+01 -1.300e+01 -1.300e+01 -1.300e+01 -1.300e+01 -1.300e+01 -1.300e+01 -1.300e+01 -1.300e+01 -1.300e+01 -1.300e+01 -1.300e+01 -1.300e+01 -1.300e+01 -1.300e+01 -1.300e+01 -1.300e+01 -1.300e+01 -1.300e+01 -1.300e+01 -1.300e+01 -1.300e+01 -1.300e+01 -1.300e+01 -1.300e+01 -1.300e+01 -1.300e+01 -1.300e+01 -1.300e+01 -1.300e+01 -1.300e+01 -1.300e+01 -1.300e+01 -1.300e+01 -1.300e+01 -1.300e+01 -1.300e+01 -1.300e+01 -1.300e+01 -1.300e+01 -1.300e+01 -1.300e+01 -1.300e+01 -1.300e+01 -1.300e+01 -1.300e+01 -1.300e+01 -1.300e+01 -1.300e+01 -1.300e+01 -1.300e+01 -1.300e+01 -1.300e+01 -1.300e+01 -1.300e+01 -1.300e+01 -1.300e+01 -1.300e+01 -1.300e+01 -1.300e+01 -1.300e+01 -1.300e+01 -1.300e+01 -1.300e+01 -1.300e+01 -1.300e+01 -1.300e+01 -1.300e+01 -1.300e+01 -1.300e+01 -5.000e+00 -5.000e+00 -5.000e+00 -5.000e+00 -5.000e+00 -5.000e+00 -5.000e+00 -5.000e+00 -5.000e+00 -5.000e+00 -5.000e+00 -5.000e+00 -5.000e+00 -5.000e+00 -5.000e+00 -5.000e+00 -5.000e+00 -5.000e+00 -5.000e+00 -5.000e+00 -5.000e+00 -5.000e+00 -5.000e+00 -5.000e+00 -5.000e+00 -5.000e+00 -5.000e+00 -5.000e+00 -5.000e+00 -5.000e+00 -5.000e+00 -5.000e+00 -5.000e+00 -1.300e+01 -1.300e+01 -1.300e+01 -1.300e+01 -1.300e+01 -1.300e+01 -1.300e+01 -1.300e+01 -1.300e+01 -1.300e+01 -1.300e+01 -1.300e+01 -1.300e+01 -1.300e+01 -1.300e+01 -1.300e+01 -1.300e+01 -1.300e+01 -1.300e+01 -1.300e+01 -1.300e+01 -1.300e+01 -1.300e+01 -1.300e+01 -1.300e+01 -1.300e+01 -1.300e+01 -1.300e+01 -1.300e+01 -1.300e+01 -1.300e+01 -1.300e+01 -1.300e+01 -1.300e+01 -1.300e+01 -1.300e+01 -1.300e+01 -1.300e+01 -1.300e+01 -1.300e+01 -1.300e+01 -1.300e+01 -1.300e+01 -1.300e+01 -1.300e+01 -1.300e+01 -1.300e+01 -1.300e+01 -1.300e+01 -1.300e+01 -1.300e+01 -1.300e+01 -1.300e+01 -1.300e+01 -1.300e+01 -1.300e+01 -1.300e+01 -1.300e+01 -1.300e+01 -1.300e+01 -1.300e+01 -1.300e+01 -1.300e+01 -1.300e+01 -1.300e+01 -1.300e+01 -1.300e+01 -1.300e+01 -1.300e+01 -1.300e+01 -1.300e+01 -1.300e+01 -1.300e+01 -1.300e+01 -1.300e+01 -1.300e+01 -1.300e+01 -1.300e+01 -1.300e+01 -1.300e+01 -1.300e+01 -1.300e+01 -1.300e+01 -1.300e+01 -1.300e+01 -1.300e+01 -1.300e+01 -1.300e+01 -1.300e+01 -1.300e+01 -1.300e+01 -1.300e+01 -1.300e+01 -1.300e+01 -1.300e+01 -1.300e+01 -1.300e+01 -1.300e+01 -1.300e+01 -1.300e+01 -1.300e+01 -1.300e+01 -1.300e+01 -1.300e+01 -1.300e+01 -1.300e+01 -1.300e+01 -1.300e+01 -1.300e+01 -1.300e+01 -1.300e+01 -1.300e+01 -1.300e+01 -1.300e+01 -1.300e+01 -1.300e+01 -1.300e+01 -1.300e+01 -1.300e+01 -1.300e+01 -1.300e+01 -1.300e+01 -1.300e+01 -1.300e+01 -1.300e+01 -1.300e+01 -1.300e+01 -1.300e+01 -1.300e+01 -1.300e+01 -1.300e+01 -1.300e+01 -1.300e+01 -1.300e+01 -1.300e+01 -1.300e+01 -1.300e+01 -1.300e+01 -1.300e+01 -1.300e+01 -1.300e+01 -1.300e+01 -1.300e+01 -1.300e+01 -1.300e+01 -1.300e+01 -1.300e+01 -1.300e+01 -1.300e+01 -1.300e+01 -1.300e+01 -1.300e+01 -1.300e+01 -1.300e+01 -1.300e+01 -1.300e+01 -1.300e+01 -1.300e+01 -1.300e+01 -1.300e+01 -1.300e+01 -1.300e+01 -1.300e+01 -1.300e+01 -1.300e+01 -1.300e+01 -1.300e+01 -1.300e+01 -1.300e+01 -1.300e+01 -1.300e+01 -1.300e+01 -1.300e+01 -1.300e+01 -1.300e+01 -1.300e+01 -1.300e+01 -1.300e+01 -1.300e+01 -1.300e+01 -1.300e+01 -1.300e+01 -1.300e+01 -1.300e+01 -1.300e+01 -1.300e+01 -1.300e+01 -1.300e+01 -1.300e+01 -1.300e+01 -1.300e+01 -1.300e+01 -1.300e+01 -1.300e+01 -1.300e+01 -1.300e+01 -1.300e+01 -1.300e+01 -1.300e+01 -1.300e+01 -1.300e+01 -1.300e+01 -1.300e+01 -1.300e+01 -1.300e+01 -1.300e+01 -1.300e+01 -1.300e+01 -1.300e+01 -1.300e+01 -1.300e+01 -1.300e+01 -1.300e+01 -1.300e+01 -1.300e+01 -1.300e+01 -1.300e+01 -1.300e+01 -1.300e+01 -1.300e+01 -1.300e+01 -1.300e+01 -1.300e+01 -1.300e+01 -1.300e+01 -1.300e+01 -1.300e+01 -1.300e+01 -1.300e+01 -1.300e+01 -1.300e+01 -1.300e+01 -1.300e+01 -1.300e+01 -1.300e+01 -5.000e+00 -5.000e+00 -5.000e+00 -5.000e+00 -5.000e+00 -5.000e+00 -5.000e+00 -5.000e+00 -5.000e+00 -5.000e+00 -5.000e+00 -5.000e+00 -5.000e+00 -5.000e+00 -5.000e+00 -5.000e+00 -5.000e+00 -5.000e+00 -5.000e+00 -5.000e+00 -5.000e+00 -5.000e+00 -5.000e+00 -5.000e+00 -5.000e+00 -5.000e+00 -5.000e+00 -5.000e+00 -5.000e+00 -5.000e+00 -5.000e+00 -5.000e+00 -5.000e+00 -1.300e+01 -1.300e+01 -1.300e+01 -1.300e+01 -1.300e+01 -1.300e+01 -1.300e+01 -1.300e+01 -1.300e+01 -1.300e+01 -1.300e+01 -1.300e+01 -1.300e+01 -1.300e+01 -1.300e+01 -1.300e+01 -1.300e+01 -1.300e+01 -1.300e+01 -1.300e+01 -1.300e+01 -1.300e+01 -1.300e+01 -1.300e+01 -1.300e+01 -1.300e+01 -1.300e+01 -1.300e+01 -1.300e+01 -1.300e+01 -1.300e+01 -1.300e+01 -1.300e+01 -1.300e+01 -1.300e+01 -1.300e+01 -1.300e+01 -1.300e+01 -1.300e+01 -1.300e+01 -1.300e+01 -1.300e+01 -1.300e+01 -1.300e+01 -1.300e+01 -1.300e+01 -1.300e+01 -1.300e+01 -1.300e+01 -1.300e+01 -1.300e+01 -1.300e+01 -1.300e+01 -1.300e+01 -1.300e+01 -1.300e+01 -1.300e+01 -1.300e+01 -1.300e+01 -1.300e+01 -1.300e+01 -1.300e+01 -1.300e+01 -1.300e+01 -1.300e+01 -1.300e+01 -1.300e+01 -1.300e+01 -1.300e+01 -1.300e+01 -1.300e+01 -1.300e+01 -1.300e+01 -1.300e+01 -1.300e+01 -1.300e+01 -1.300e+01 -1.300e+01 -1.300e+01 -1.300e+01 -1.300e+01 -1.300e+01 -1.300e+01 -1.300e+01 -1.300e+01 -1.300e+01 -1.300e+01 -1.300e+01 -1.300e+01 -1.300e+01 -1.300e+01 -1.300e+01 -1.300e+01 -1.300e+01 -1.300e+01 -1.300e+01 -1.300e+01 -1.300e+01 -1.300e+01 -1.300e+01 -1.300e+01 -1.300e+01 -1.300e+01 -1.300e+01 -1.300e+01 -1.300e+01 -1.300e+01 -1.300e+01 -1.300e+01 -1.300e+01 -1.300e+01 -1.300e+01 -1.300e+01 -1.300e+01 -1.300e+01 -1.300e+01 -1.300e+01 -1.300e+01 -1.300e+01 -1.300e+01 -1.300e+01 -1.300e+01 -1.300e+01 -1.300e+01 -1.300e+01 -1.300e+01 -1.300e+01 -1.300e+01 -1.300e+01 -1.300e+01 -1.300e+01 -1.300e+01 -1.300e+01 -1.300e+01 -1.300e+01 -1.300e+01 -1.300e+01 -1.300e+01 -1.300e+01 -1.300e+01 -1.300e+01 -1.300e+01 -1.300e+01 -1.300e+01 -1.300e+01 -1.300e+01 -1.300e+01 -1.300e+01 -1.300e+01 -1.300e+01 -1.300e+01 -1.300e+01 -1.300e+01 -1.300e+01 -1.300e+01 -1.300e+01 -1.300e+01 -1.300e+01 -1.300e+01 -1.300e+01 -1.300e+01 -1.300e+01 -1.300e+01 -1.300e+01 -1.300e+01 -1.300e+01 -1.300e+01 -1.300e+01 -1.300e+01 -1.300e+01 -1.300e+01 -1.300e+01 -1.300e+01 -1.300e+01 -1.300e+01 -1.300e+01 -1.300e+01 -1.300e+01 -1.300e+01 -1.300e+01 -1.300e+01 -1.300e+01 -1.300e+01 -1.300e+01 -1.300e+01 -1.300e+01 -1.300e+01 -1.300e+01 -1.300e+01 -1.300e+01 -1.300e+01 -1.300e+01 -1.300e+01 -1.300e+01 -1.300e+01 -1.300e+01 -1.300e+01 -1.300e+01 -1.300e+01 -1.300e+01 -1.300e+01 -1.300e+01 -1.300e+01 -1.300e+01 -1.300e+01 -1.300e+01 -1.300e+01 -1.300e+01 -1.300e+01 -1.300e+01 -1.300e+01 -1.300e+01 -1.300e+01 -1.300e+01 -1.300e+01 -1.300e+01 -1.300e+01 -1.300e+01 -1.300e+01 -1.300e+01 -1.300e+01 -1.300e+01 -1.300e+01 -1.300e+01 -1.300e+01 -1.300e+01 -1.300e+01 -1.300e+01 -1.300e+01 -1.300e+01 -5.000e+00 -5.000e+00 -5.000e+00 -5.000e+00 -5.000e+00 -5.000e+00 -5.000e+00 -5.000e+00 -5.000e+00 -5.000e+00 -5.000e+00 -5.000e+00 -5.000e+00 -5.000e+00 -5.000e+00 -5.000e+00 -5.000e+00 -5.000e+00 -5.000e+00 -5.000e+00 -5.000e+00 -5.000e+00 -5.000e+00 -5.000e+00 -5.000e+00 -5.000e+00 -5.000e+00 -5.000e+00 -5.000e+00 -5.000e+00 -5.000e+00 -5.000e+00 -5.000e+00 -1.300e+01 -1.300e+01 -1.300e+01 -1.300e+01 -1.300e+01 -1.300e+01 -1.300e+01 -1.300e+01 -1.300e+01 -1.300e+01 -1.300e+01 -1.300e+01 -1.300e+01 -1.300e+01 -1.300e+01 -1.300e+01 -1.300e+01 -1.300e+01 -1.300e+01 -1.300e+01 -1.300e+01 -1.300e+01 -1.300e+01 -1.300e+01 -1.300e+01 -1.300e+01 -1.300e+01 -1.300e+01 -1.300e+01 -1.300e+01 -1.300e+01 -1.300e+01 -1.300e+01 -1.300e+01 -1.300e+01 -1.300e+01 -1.300e+01 -1.300e+01 -1.300e+01 -1.300e+01 -1.300e+01 -1.300e+01 -1.300e+01 -1.300e+01 -1.300e+01 -1.300e+01 -1.300e+01 -1.300e+01 -1.300e+01 -1.300e+01 -1.300e+01 -1.300e+01 -1.300e+01 -1.300e+01 -1.300e+01 -1.300e+01 -1.300e+01 -1.300e+01 -1.300e+01 -1.300e+01 -1.300e+01 -1.300e+01 -1.300e+01 -1.300e+01 -1.300e+01 -1.300e+01 -1.300e+01 -1.300e+01 -1.300e+01 -1.300e+01 -1.300e+01 -1.300e+01 -1.300e+01 -1.300e+01 -1.300e+01 -1.300e+01 -1.300e+01 -1.300e+01 -1.300e+01 -1.300e+01 -1.300e+01 -1.300e+01 -1.300e+01 -1.300e+01 -1.300e+01 -1.300e+01 -1.300e+01 -1.300e+01 -1.300e+01 -1.300e+01 -1.300e+01 -1.300e+01 -1.300e+01 -1.300e+01 -1.300e+01 -1.300e+01 -1.300e+01 -1.300e+01 -1.300e+01 -1.300e+01 -1.300e+01 -1.300e+01 -1.300e+01 -1.300e+01 -1.300e+01 -1.300e+01 -1.300e+01 -1.300e+01 -1.300e+01 -1.300e+01 -1.300e+01 -1.300e+01 -1.300e+01 -1.300e+01 -1.300e+01 -1.300e+01 -1.300e+01 -1.300e+01 -1.300e+01 -1.300e+01 -1.300e+01 -1.300e+01 -1.300e+01 -1.300e+01 -1.300e+01 -1.300e+01 -1.300e+01 -1.300e+01 -1.300e+01 -1.300e+01 -1.300e+01 -1.300e+01 -1.300e+01 -1.300e+01 -1.300e+01 -1.300e+01 -1.300e+01 -1.300e+01 -1.300e+01 -1.300e+01 -1.300e+01 -1.300e+01 -1.300e+01 -1.300e+01 -1.300e+01 -1.300e+01 -1.300e+01 -1.300e+01 -1.300e+01 -1.300e+01 -1.300e+01 -1.300e+01 -1.300e+01 -1.300e+01 -1.300e+01 -1.300e+01 -1.300e+01 -1.300e+01 -1.300e+01 -1.300e+01 -1.300e+01 -1.300e+01 -1.300e+01 -1.300e+01 -1.300e+01 -1.300e+01 -1.300e+01 -1.300e+01 -1.300e+01 -1.300e+01 -1.300e+01 -1.300e+01 -1.300e+01 -1.300e+01 -1.300e+01 -1.300e+01 -1.300e+01 -1.300e+01 -1.300e+01 -1.300e+01 -1.300e+01 -1.300e+01 -1.300e+01 -1.300e+01 -1.300e+01 -1.300e+01 -1.300e+01 -1.300e+01 -1.300e+01 -1.300e+01 -1.300e+01 -1.300e+01 -1.300e+01 -1.300e+01 -1.300e+01 -1.300e+01 -1.300e+01 -1.300e+01 -1.300e+01 -1.300e+01 -1.300e+01 -1.300e+01 -1.300e+01 -1.300e+01 -1.300e+01 -1.300e+01 -1.300e+01 -1.300e+01 -1.300e+01 -1.300e+01 -1.300e+01 -1.300e+01 -1.300e+01 -1.300e+01 -1.300e+01 -1.300e+01 -1.300e+01 -1.300e+01 -1.300e+01 -1.300e+01 -1.300e+01 -1.300e+01 -1.300e+01 -1.300e+01 -1.300e+01 -1.300e+01 -1.300e+01 -1.300e+01 -1.300e+01 -1.300e+01 -1.300e+01 -1.300e+01 -1.300e+01 -1.300e+01 -1.300e+01 -1.300e+01 -1.300e+01 -5.000e+00 -5.000e+00 -5.000e+00 -5.000e+00 -5.000e+00 -5.000e+00 -5.000e+00 -5.000e+00 -5.000e+00 -5.000e+00 -5.000e+00 -5.000e+00 -5.000e+00 -5.000e+00 -5.000e+00 -5.000e+00 -5.000e+00 -5.000e+00 -5.000e+00 -5.000e+00 -5.000e+00 -5.000e+00 -5.000e+00 -5.000e+00 -5.000e+00 -5.000e+00 -5.000e+00 -5.000e+00 -5.000e+00 -5.000e+00 -5.000e+00 -5.000e+00 -5.000e+00 -1.900e+01 -1.900e+01 -1.900e+01 -1.900e+01 -1.900e+01 -1.900e+01 -1.900e+01 -1.900e+01 -1.900e+01 -1.900e+01 -1.900e+01 -1.900e+01 -1.900e+01 -1.900e+01 -1.900e+01 -1.900e+01 -1.900e+01 -1.900e+01 -1.900e+01 -1.900e+01 -1.900e+01 -1.900e+01 -1.900e+01 -1.900e+01 -1.900e+01 -1.900e+01 -1.900e+01 -1.900e+01 -1.900e+01 -1.900e+01 -1.900e+01 -1.900e+01 -1.900e+01 -1.900e+01 -1.900e+01 -1.900e+01 -1.900e+01 -1.900e+01 -1.900e+01 -1.900e+01 -1.900e+01 -1.900e+01 -1.900e+01 -1.900e+01 -1.900e+01 -1.900e+01 -1.900e+01 -1.900e+01 -1.900e+01 -1.900e+01 -1.900e+01 -1.900e+01 -1.900e+01 -1.900e+01 -1.100e+01 -1.100e+01 -1.100e+01 -1.100e+01 -1.100e+01 -1.100e+01 -1.100e+01 -1.100e+01 -1.100e+01 -1.100e+01 -1.100e+01 -1.100e+01 -1.100e+01 -1.100e+01 -1.100e+01 -1.100e+01 -1.100e+01 -1.100e+01 -1.100e+01 -1.100e+01 -1.100e+01 -1.100e+01 -1.100e+01 -1.900e+01 -1.900e+01 -1.900e+01 -1.900e+01 -1.900e+01 -1.900e+01 -1.900e+01 -1.900e+01 -1.900e+01 -1.900e+01 -1.900e+01 -1.900e+01 -1.900e+01 -1.900e+01 -1.900e+01 -1.900e+01 -1.900e+01 -1.900e+01 -1.900e+01 -1.900e+01 -1.900e+01 -1.900e+01 -1.900e+01 -1.900e+01 -1.900e+01 -1.900e+01 -1.900e+01 -1.900e+01 -1.900e+01 -1.900e+01 -1.900e+01 -1.900e+01 -1.900e+01 -1.900e+01 -1.900e+01 -1.900e+01 -1.900e+01 -1.900e+01 -1.900e+01 -1.900e+01 -1.900e+01 -1.900e+01 -1.900e+01 -1.900e+01 -1.900e+01 -1.900e+01 -1.900e+01 -1.900e+01 -1.900e+01 -1.900e+01 -1.900e+01 -1.900e+01 -1.900e+01 -1.900e+01 -1.100e+01 -1.100e+01 -1.100e+01 -1.100e+01 -1.100e+01 -1.100e+01 -1.100e+01 -1.100e+01 -1.100e+01 -1.100e+01 -1.100e+01 -1.100e+01 -1.100e+01 -1.100e+01 -1.100e+01 -1.100e+01 -1.100e+01 -1.100e+01 -1.100e+01 -1.100e+01 -1.100e+01 -1.100e+01 -1.100e+01 -1.900e+01 -1.900e+01 -1.900e+01 -1.900e+01 -1.900e+01 -1.900e+01 -1.900e+01 -1.900e+01 -1.900e+01 -1.900e+01 -1.900e+01 -1.900e+01 -1.900e+01 -1.900e+01 -1.900e+01 -1.900e+01 -1.900e+01 -1.900e+01 -1.900e+01 -1.900e+01 -1.900e+01 -1.900e+01 -1.900e+01 -1.900e+01 -1.900e+01 -1.900e+01 -1.900e+01 -1.900e+01 -1.900e+01 -1.900e+01 -1.900e+01 -1.900e+01 -1.900e+01 -1.900e+01 -1.900e+01 -1.900e+01 -1.900e+01 -1.900e+01 -1.900e+01 -1.900e+01 -1.900e+01 -1.900e+01 -1.900e+01 -1.900e+01 -1.900e+01 -1.900e+01 -1.900e+01 -1.900e+01 -1.900e+01 -1.900e+01 -1.900e+01 -1.900e+01 -1.900e+01 -1.100e+01 -1.100e+01 -1.100e+01 -1.100e+01 -1.100e+01 -1.100e+01 -1.100e+01 -1.100e+01 -1.100e+01 -1.100e+01 -1.100e+01 -1.100e+01 -1.100e+01 -1.100e+01 -1.100e+01 -1.100e+01 -1.100e+01 -1.100e+01 -1.100e+01 -1.100e+01 -1.100e+01 -1.100e+01 -1.100e+01 -1.900e+01 -1.900e+01 -1.900e+01 -1.900e+01 -1.900e+01 -1.900e+01 -1.900e+01 -1.900e+01 -1.900e+01 -1.900e+01 -1.900e+01 -1.900e+01 -1.900e+01 -1.900e+01 -1.900e+01 -1.900e+01 -1.900e+01 -1.900e+01 -1.900e+01 -1.900e+01 -1.900e+01 -1.900e+01 -1.900e+01 -1.900e+01 -1.900e+01 -1.900e+01 -1.900e+01 -1.900e+01 -1.900e+01 -1.900e+01 -1.900e+01 -1.900e+01 -1.900e+01 -1.900e+01 -1.900e+01 -1.900e+01 -1.900e+01 -1.900e+01 -1.900e+01 -1.900e+01 -1.900e+01 -1.900e+01 -1.900e+01 -1.900e+01 -1.900e+01 -1.900e+01 -1.900e+01 -1.900e+01 -1.900e+01 -1.900e+01 -1.900e+01 -1.900e+01 -1.900e+01 -1.100e+01 -1.100e+01 -1.100e+01 -1.100e+01 -1.100e+01 -1.100e+01 -1.100e+01 -1.100e+01 -1.100e+01 -1.100e+01 -1.100e+01 -1.100e+01 -1.100e+01 -1.100e+01 -1.100e+01 -1.100e+01 -1.100e+01 -1.100e+01 -1.100e+01 -1.100e+01 -1.100e+01 -1.100e+01 -1.100e+01 -2.000e+01 -2.000e+01 -2.000e+01 -2.000e+01 -2.000e+01 -2.000e+01 -2.000e+01 -2.000e+01 -2.000e+01 -2.000e+01 -2.000e+01 -2.000e+01 -2.000e+01 -2.000e+01 -2.000e+01 -2.000e+01 -2.000e+01 -2.000e+01 -2.000e+01 -2.000e+01 -2.000e+01 -2.000e+01 -2.000e+01 -2.000e+01 -2.000e+01 -2.000e+01 -2.000e+01 -2.000e+01 -2.000e+00 -2.000e+00 -2.000e+00 -2.000e+00 -2.000e+00 -2.000e+00 -2.000e+00 -2.000e+00 -2.000e+00 -2.000e+00 -1.700e+01 -1.700e+01 -1.700e+01 -1.700e+01 -7.000e+00 -7.000e+00 -7.000e+00 -7.000e+00 -7.000e+00 -7.000e+00 -7.000e+00 -7.000e+00 -1.700e+01 -1.700e+01 -7.000e+00 -7.000e+00 -7.000e+00 -7.000e+00 -7.000e+00 -7.000e+00 -7.000e+00 -7.000e+00 -7.000e+00 -7.000e+00 -7.000e+00 -7.000e+00 -7.000e+00 -7.000e+00 -7.000e+00 -7.000e+00 -7.000e+00 -7.000e+00 -7.000e+00 -7.000e+00 -7.000e+00 -7.000e+00 -7.000e+00 -7.000e+00 -7.000e+00 -7.000e+00 -7.000e+00 -7.000e+00 -7.000e+00 -7.000e+00 -7.000e+00 -7.000e+00 -7.000e+00 -7.000e+00 -7.000e+00 -7.000e+00 -7.000e+00 -7.000e+00 -7.000e+00 -7.000e+00 -7.000e+00 -7.000e+00 -7.000e+00 -1.700e+01 -1.700e+01 -7.000e+00 -7.000e+00 -7.000e+00 -7.000e+00 -7.000e+00 -7.000e+00 -7.000e+00 -7.000e+00 -7.000e+00 -7.000e+00 -7.000e+00 -7.000e+00 -7.000e+00 -7.000e+00 -7.000e+00 -7.000e+00 -7.000e+00 -7.000e+00 -7.000e+00 -7.000e+00 -7.000e+00 -7.000e+00 -7.000e+00 -7.000e+00 -7.000e+00 -7.000e+00 -7.000e+00 -7.000e+00 -7.000e+00 -7.000e+00 -7.000e+00 -7.000e+00 -7.000e+00 -7.000e+00 -1.700e+01 -1.700e+01 -1.700e+01 -7.000e+00 -7.000e+00 -7.000e+00 -7.000e+00 -7.000e+00 -7.000e+00 -7.000e+00 -7.000e+00 -7.000e+00 -7.000e+00 -7.000e+00 -7.000e+00 -7.000e+00 -7.000e+00 -7.000e+00 -7.000e+00 -7.000e+00 -7.000e+00 -7.000e+00 -7.000e+00 -7.000e+00 -7.000e+00 -7.000e+00 -7.000e+00 -7.000e+00 -7.000e+00 -7.000e+00 -7.000e+00 -7.000e+00 -7.000e+00 -7.000e+00 -7.000e+00 -7.000e+00 -7.000e+00 -1.700e+01 -1.700e+01 -7.000e+00 -7.000e+00 -7.000e+00 -7.000e+00 -7.000e+00 -7.000e+00 -7.000e+00 -7.000e+00 -7.000e+00 -7.000e+00 -7.000e+00 -7.000e+00 -7.000e+00 -7.000e+00 -7.000e+00 -7.000e+00 -7.000e+00 -7.000e+00 -7.000e+00 -7.000e+00 -7.000e+00 -7.000e+00 -7.000e+00 -7.000e+00 -7.000e+00 -7.000e+00 -7.000e+00 -7.000e+00 -1.700e+01 -1.700e+01 -1.700e+01 -7.000e+00 -7.000e+00 -7.000e+00 -7.000e+00 -7.000e+00 -7.000e+00 -7.000e+00 -7.000e+00 -7.000e+00 -7.000e+00 -7.000e+00 -7.000e+00 -7.000e+00 -7.000e+00 -7.000e+00 -7.000e+00 -7.000e+00 -7.000e+00 -7.000e+00 -7.000e+00 -7.000e+00 -7.000e+00 -7.000e+00 -7.000e+00 -7.000e+00 -7.000e+00 -7.000e+00 -1.700e+01 -7.000e+00 -7.000e+00 -7.000e+00 -7.000e+00 -7.000e+00 -7.000e+00 -7.000e+00 -7.000e+00 -7.000e+00 -7.000e+00 -7.000e+00 -7.000e+00 -7.000e+00 -7.000e+00 -7.000e+00 -7.000e+00 -7.000e+00 -7.000e+00 -7.000e+00 -1.700e+01 -1.700e+01 -1.700e+01 -7.000e+00 -7.000e+00 -7.000e+00 -7.000e+00 -7.000e+00 -7.000e+00 -7.000e+00 -7.000e+00 -7.000e+00 -7.000e+00 -7.000e+00 -7.000e+00 -7.000e+00 -7.000e+00 -7.000e+00 -7.000e+00 -7.000e+00 -1.700e+01 -1.700e+01 -7.000e+00 -7.000e+00 -7.000e+00 -7.000e+00 -7.000e+00 -7.000e+00 -7.000e+00 -7.000e+00 -7.000e+00 -7.000e+00 -7.000e+00 -7.000e+00 -7.000e+00 -7.000e+00 -7.000e+00 -7.000e+00 -7.000e+00 -1.700e+01 -1.700e+01 -7.000e+00 -7.000e+00 -7.000e+00 -7.000e+00 -7.000e+00 -7.000e+00 -7.000e+00 -7.000e+00 -7.000e+00 -1.700e+01 -7.000e+00 -7.000e+00 -7.000e+00 -7.000e+00 -7.000e+00 -7.000e+00 -1.700e+01 -1.700e+01 -7.000e+00 -7.000e+00 -7.000e+00 -7.000e+00 -7.000e+00 -7.000e+00 -1.700e+01 -1.700e+01 -1.700e+01 -7.000e+00 -7.000e+00 -7.000e+00 -7.000e+00 -7.000e+00 -7.000e+00 -7.000e+00 -1.700e+01 -1.700e+01 -7.000e+00 -7.000e+00 -7.000e+00 -7.000e+00 -7.000e+00 -7.000e+00 -7.000e+00 -1.700e+01 -1.700e+01 -7.000e+00 -7.000e+00 -7.000e+00 -7.000e+00 -7.000e+00 -7.000e+00 -1.700e+01 -1.700e+01 -7.000e+00 -7.000e+00 -7.000e+00 -7.000e+00 -7.000e+00 -7.000e+00 -7.000e+00 -1.700e+01 -1.700e+01 -7.000e+00 -7.000e+00 -7.000e+00 -7.000e+00 -7.000e+00 -7.000e+00 -1.700e+01 -1.700e+01 -1.700e+01 -7.000e+00 -7.000e+00 -7.000e+00 -7.000e+00 -7.000e+00 -7.000e+00 -7.000e+00 -7.000e+00 -1.700e+01 -7.000e+00 -7.000e+00 -7.000e+00 -7.000e+00 -7.000e+00 -7.000e+00 -1.700e+01 -1.700e+01 -7.000e+00 -7.000e+00 -7.000e+00 -7.000e+00 -7.000e+00 -7.000e+00 -7.000e+00 -7.000e+00 -7.000e+00 -7.000e+00 -7.000e+00 -7.000e+00 -1.700e+01 -7.000e+00 -7.000e+00 -7.000e+00 -7.000e+00 -7.000e+00 -7.000e+00 -1.700e+01 -1.700e+01 -1.700e+01 -7.000e+00 -7.000e+00 -7.000e+00 -7.000e+00 -7.000e+00 -7.000e+00 -7.000e+00 -7.000e+00 -7.000e+00 -7.000e+00 -7.000e+00 -7.000e+00 -1.700e+01 -7.000e+00 -7.000e+00 -7.000e+00 -7.000e+00 -7.000e+00 -7.000e+00 -1.700e+01 -7.000e+00 -7.000e+00 -7.000e+00 -7.000e+00 -7.000e+00 -7.000e+00 -1.700e+01 -7.000e+00 -7.000e+00 -7.000e+00 -7.000e+00 -7.000e+00 -7.000e+00 -7.000e+00