<?xml version="1.0"?>
<VTKFile type="UnstructuredGrid" version="0.1" byte_order="LittleEndian">
   <UnstructuredGrid>
      <Piece NumberOfPoints="160" NumberOfCells="14">
         <Points>
            <DataArray type="Float32" Name="Position" NumberOfComponents="3" format="ascii">
-0.144	-4.995	0.139
-0.035	-4.997	0.198
0.088	-5.000	0.181
0.177	-5.003	0.094
0.199	-5.005	-0.028
0.144	-5.005	-0.139
0.035	-5.003	-0.198
-0.088	-5.000	-0.181
-0.177	-4.997	-0.094
-0.199	-4.995	0.028
-0.127	-4.248	0.130
-0.017	-4.248	0.188
0.106	-4.250	0.169
0.194	-4.251	0.083
0.215	-4.253	-0.040
0.159	-4.253	-0.150
0.050	-4.252	-0.208
-0.073	-4.251	-0.189
-0.161	-4.249	-0.103
-0.182	-4.248	0.019
-0.126	-3.560	0.129
-0.016	-3.559	0.185
0.106	-3.559	0.166
0.194	-3.559	0.079
0.213	-3.560	-0.044
0.157	-3.561	-0.154
0.047	-3.561	-0.210
-0.075	-3.562	-0.191
-0.163	-3.561	-0.104
-0.182	-3.561	0.019
-0.130	-2.701	0.123
-0.020	-2.700	0.179
0.102	-2.699	0.159
0.190	-2.699	0.072
0.209	-2.700	-0.050
0.153	-2.700	-0.161
0.043	-2.701	-0.217
-0.079	-2.702	-0.197
-0.167	-2.702	-0.110
-0.186	-2.701	0.012
-0.134	-1.802	0.123
-0.023	-1.801	0.178
0.099	-1.801	0.158
0.186	-1.800	0.071
0.204	-1.799	-0.052
0.148	-1.799	-0.162
0.037	-1.799	-0.217
-0.085	-1.800	-0.197
-0.172	-1.801	-0.109
-0.191	-1.802	0.013
-0.137	-1.202	0.128
-0.027	-1.202	0.183
0.095	-1.201	0.163
0.182	-1.200	0.075
0.201	-1.199	-0.047
0.144	-1.199	-0.157
0.034	-1.199	-0.212
-0.088	-1.200	-0.192
-0.175	-1.201	-0.105
-0.194	-1.201	0.018
-0.140	-0.301	0.129
-0.030	-0.301	0.185
0.092	-0.301	0.166
0.179	-0.301	0.078
0.199	-0.300	-0.044
0.142	-0.300	-0.154
0.032	-0.300	-0.210
-0.090	-0.300	-0.191
-0.177	-0.300	-0.103
-0.196	-0.301	0.019
-0.140	-0.001	0.130
-0.030	-0.001	0.186
0.092	-0.001	0.167
0.180	-0.001	0.079
0.199	-0.001	-0.043
0.143	-0.000	-0.153
0.032	0.000	-0.209
-0.090	0.000	-0.190
-0.177	-0.000	-0.102
-0.196	-0.000	0.020
0.032	-5.000	-0.032
0.045	-4.996	-0.007
0.040	-4.994	0.020
0.020	-4.994	0.040
-0.007	-4.996	0.045
-0.032	-5.000	0.032
-0.045	-5.004	0.007
-0.040	-5.006	-0.020
-0.020	-5.006	-0.040
0.007	-5.004	-0.045
0.106	-5.700	0.039
0.118	-5.696	0.063
0.114	-5.694	0.091
0.094	-5.694	0.111
0.066	-5.695	0.115
0.041	-5.699	0.102
0.029	-5.703	0.077
0.034	-5.705	0.050
0.054	-5.705	0.030
0.081	-5.704	0.026
0.151	-6.402	0.118
0.163	-6.398	0.143
0.157	-6.395	0.170
0.137	-6.394	0.190
0.110	-6.396	0.193
0.085	-6.399	0.180
0.073	-6.403	0.155
0.078	-6.406	0.128
0.098	-6.407	0.109
0.126	-6.405	0.105
0.203	-7.101	0.211
0.215	-7.096	0.236
0.210	-7.093	0.263
0.189	-7.092	0.282
0.162	-7.094	0.286
0.137	-7.097	0.273
0.125	-7.102	0.248
0.131	-7.105	0.221
0.151	-7.106	0.202
0.178	-7.105	0.198
0.262	-7.798	0.312
0.274	-7.794	0.337
0.269	-7.791	0.364
0.249	-7.790	0.383
0.221	-7.791	0.387
0.197	-7.795	0.374
0.185	-7.798	0.349
0.190	-7.802	0.322
0.210	-7.803	0.303
0.238	-7.801	0.299
0.295	-8.501	0.385
0.307	-8.497	0.410
0.302	-8.494	0.437
0.282	-8.493	0.456
0.254	-8.494	0.460
0.230	-8.497	0.447
0.218	-8.500	0.422
0.223	-8.503	0.395
0.243	-8.505	0.375
0.271	-8.504	0.372
0.341	-9.199	0.486
0.352	-9.195	0.511
0.347	-9.191	0.538
0.327	-9.190	0.557
0.299	-9.191	0.560
0.275	-9.195	0.547
0.263	-9.199	0.522
0.269	-9.203	0.495
0.289	-9.204	0.476
0.316	-9.203	0.473
0.374	-9.664	0.560
0.385	-9.659	0.585
0.380	-9.655	0.612
0.360	-9.653	0.631
0.332	-9.655	0.634
0.308	-9.659	0.621
0.296	-9.664	0.596
0.302	-9.667	0.569
0.322	-9.669	0.551
0.350	-9.668	0.547
		    </DataArray>
         </Points>
         <Cells>
            <DataArray type="Int32" Name="connectivity" NumberOfComponents="1" format="ascii">
 0 10 1 11 2 12 3 13 4 14 5 15 6 16 7 17 8 18 9 19 0 10
 10 20 11 21 12 22 13 23 14 24 15 25 16 26 17 27 18 28 19 29 10 20
 20 30 21 31 22 32 23 33 24 34 25 35 26 36 27 37 28 38 29 39 20 30
 30 40 31 41 32 42 33 43 34 44 35 45 36 46 37 47 38 48 39 49 30 40
 40 50 41 51 42 52 43 53 44 54 45 55 46 56 47 57 48 58 49 59 40 50
 50 60 51 61 52 62 53 63 54 64 55 65 56 66 57 67 58 68 59 69 50 60
 60 70 61 71 62 72 63 73 64 74 65 75 66 76 67 77 68 78 69 79 60 70
 80 90 81 91 82 92 83 93 84 94 85 95 86 96 87 97 88 98 89 99 80 90
 90 100 91 101 92 102 93 103 94 104 95 105 96 106 97 107 98 108 99 109 90 100
 100 110 101 111 102 112 103 113 104 114 105 115 106 116 107 117 108 118 109 119 100 110
 110 120 111 121 112 122 113 123 114 124 115 125 116 126 117 127 118 128 119 129 110 120
 120 130 121 131 122 132 123 133 124 134 125 135 126 136 127 137 128 138 129 139 120 130
 130 140 131 141 132 142 133 143 134 144 135 145 136 146 137 147 138 148 139 149 130 140
 140 150 141 151 142 152 143 153 144 154 145 155 146 156 147 157 148 158 149 159 140 150

            </DataArray>
            <DataArray type="Int32" Name="offsets" NumberOfComponents="1" format="ascii">
 22 44 66 88 110 132 154 176 198 220 242 264 286 308
            </DataArray>
            <DataArray type="UInt8"  Name="types" NumberOfComponents="1" format="ascii">
6 6 6 6 6 6 6 6 6 6 6 6 6 6
            </DataArray>
         </Cells>
         <CellData>
           <DataArray type="Float32" Name="combinedRootClassID" NumberOfComponents="1" format="ascii">
 -2.000e+00 -2.000e+00 -2.000e+00 -2.000e+00 -2.000e+00 -2.000e+00 -2.000e+00 -4.000e+00 -4.000e+00 -4.000e+00 -4.000e+00 -4.000e+00 -4.000e+00 -4.000e+00
           </DataArray>
           <DataArray type="Float32" Name="parentRootClassID" NumberOfComponents="1" format="ascii">
 -3.000e+00 -3.000e+00 -3.000e+00 -3.000e+00 -3.000e+00 -3.000e+00 -3.000e+00 -3.000e+00 -3.000e+00 -3.000e+00 -3.000e+00 -3.000e+00 -3.000e+00 -3.000e+00
           </DataArray>
           <DataArray type="Float32" Name="phosphorus/Imax" NumberOfComponents="1" format="ascii">
 5.550e-02 5.550e-02 5.550e-02 5.550e-02 5.550e-02 5.550e-02 5.550e-02 5.550e-02 5.550e-02 5.550e-02 5.550e-02 5.550e-02 5.550e-02 5.550e-02
           </DataArray>
           <DataArray type="Float32" Name="phosphorus/Km" NumberOfComponents="1" format="ascii">
 5.450e-03 5.450e-03 5.450e-03 5.450e-03 5.450e-03 5.450e-03 5.450e-03 5.450e-03 5.450e-03 5.450e-03 5.450e-03 5.450e-03 5.450e-03 5.450e-03
           </DataArray>
           <DataArray type="Float32" Name="phosphorus/minimalNutrientConcentration" NumberOfComponents="1" format="ascii">
 3.000e+01 3.000e+01 3.000e+01 3.000e+01 3.000e+01 3.000e+01 3.000e+01 3.000e+01 3.000e+01 3.000e+01 3.000e+01 3.000e+01 3.000e+01 3.000e+01
           </DataArray>
           <DataArray type="Float32" Name="phosphorus/nutrientConcentrationAtTheRootSurface" NumberOfComponents="1" format="ascii">
 1.000e-03 1.000e-03 1.000e-03 1.000e-03 1.000e-03 1.000e-03 1.000e-03 1.000e-03 1.000e-03 1.000e-03 1.000e-03 1.000e-03 1.000e-03 1.000e-03
           </DataArray>
           <DataArray type="Float32" Name="phosphorus/optimalNutrientConcentration" NumberOfComponents="1" format="ascii">
 6.000e+01 6.000e+01 6.000e+01 6.000e+01 6.000e+01 6.000e+01 6.000e+01 6.000e+01 6.000e+01 6.000e+01 6.000e+01 6.000e+01 6.000e+01 6.000e+01
           </DataArray>
           <DataArray type="Float32" Name="phosphorus/radiusDepletionZone" NumberOfComponents="1" format="ascii">
 2.407e-01 2.304e-01 2.302e-01 2.201e-01 2.200e-01 2.100e-01 2.000e-01 8.540e-02 7.528e-02 7.518e-02 6.510e-02 6.504e-02 5.501e-02 5.500e-02
           </DataArray>
           <DataArray type="Float32" Name="phosphorus/rootSegmentMinimalNutrientContent" NumberOfComponents="1" format="ascii">
 2.681e-01 2.457e-01 3.057e-01 3.195e-01 2.128e-01 3.190e-01 1.063e-01 1.297e-02 1.289e-02 1.282e-02 1.277e-02 1.273e-02 1.270e-02 8.459e-03
           </DataArray>
           <DataArray type="Float32" Name="phosphorus/rootSegmentNutrientUptake" NumberOfComponents="1" format="ascii">
 3.921e-03 3.205e-03 3.346e-03 2.762e-03 1.438e-03 1.260e-03 1.915e-04 1.031e-03 9.050e-04 7.714e-04 6.286e-04 4.734e-04 2.998e-04 9.208e-05
           </DataArray>
           <DataArray type="Float32" Name="phosphorus/rootSegmentOptimalNutrientContent" NumberOfComponents="1" format="ascii">
 5.362e-01 4.914e-01 6.114e-01 6.390e-01 4.256e-01 6.381e-01 2.126e-01 2.594e-02 2.578e-02 2.565e-02 2.554e-02 2.546e-02 2.541e-02 1.692e-02
           </DataArray>
           <DataArray type="Float32" Name="plantID" NumberOfComponents="1" format="ascii">
 3.000e+00 3.000e+00 3.000e+00 3.000e+00 3.000e+00 3.000e+00 3.000e+00 3.000e+00 3.000e+00 3.000e+00 3.000e+00 3.000e+00 3.000e+00 3.000e+00
           </DataArray>
           <DataArray type="Float32" Name="plantTypeID" NumberOfComponents="1" format="ascii">
 0.000e+00 0.000e+00 0.000e+00 0.000e+00 0.000e+00 0.000e+00 0.000e+00 0.000e+00 0.000e+00 0.000e+00 0.000e+00 0.000e+00 0.000e+00 0.000e+00
           </DataArray>
           <DataArray type="Float32" Name="rootCircumference" NumberOfComponents="1" format="ascii">
 1.262e+00 1.260e+00 1.259e+00 1.258e+00 1.257e+00 1.257e+00 1.257e+00 2.859e-01 2.850e-01 2.843e-01 2.837e-01 2.832e-01 2.829e-01 2.828e-01
           </DataArray>
           <DataArray type="Float32" Name="rootClassID" NumberOfComponents="1" format="ascii">
 -2.000e+00 -2.000e+00 -2.000e+00 -2.000e+00 -2.000e+00 -2.000e+00 -2.000e+00 -4.000e+00 -4.000e+00 -4.000e+00 -4.000e+00 -4.000e+00 -4.000e+00 -4.000e+00
           </DataArray>
           <DataArray type="Float32" Name="rootDiameter" NumberOfComponents="1" format="ascii">
 4.018e-01 4.010e-01 4.006e-01 4.004e-01 4.002e-01 4.001e-01 4.000e-01 9.100e-02 9.072e-02 9.049e-02 9.030e-02 9.016e-02 9.006e-02 9.001e-02
           </DataArray>
           <DataArray type="Float32" Name="rootLength2Base" NumberOfComponents="1" format="ascii">
 0.000e+00 7.500e-01 1.440e+00 2.300e+00 3.200e+00 3.800e+00 4.700e+00 0.000e+00 7.071e-01 1.414e+00 2.121e+00 2.828e+00 3.535e+00 4.243e+00
           </DataArray>
           <DataArray type="Float32" Name="rootPotentialSecondaryGrowth" NumberOfComponents="1" format="ascii">
 4.018e-01 4.010e-01 4.006e-01 4.004e-01 4.002e-01 4.001e-01 4.000e-01 9.100e-02 9.072e-02 9.049e-02 9.030e-02 9.016e-02 9.006e-02 9.001e-02
           </DataArray>
           <DataArray type="Float32" Name="rootSegmentAge" NumberOfComponents="1" format="ascii">
 2.000e+00 1.500e+00 1.200e+00 9.000e-01 6.000e-01 4.000e-01 1.000e-01 2.000e+00 1.700e+00 1.400e+00 1.100e+00 8.000e-01 5.000e-01 2.000e-01
           </DataArray>
           <DataArray type="Float32" Name="rootSegmentDryWeight" NumberOfComponents="1" format="ascii">
 8.937e-03 8.191e-03 1.019e-02 1.065e-02 7.093e-03 1.063e-02 3.544e-03 4.323e-04 4.297e-04 4.275e-04 4.257e-04 4.244e-04 4.234e-04 2.820e-04
           </DataArray>
           <DataArray type="Float32" Name="rootSegmentLength" NumberOfComponents="1" format="ascii">
 7.500e-01 6.900e-01 8.600e-01 9.000e-01 6.000e-01 9.000e-01 3.000e-01 7.071e-01 7.071e-01 7.071e-01 7.071e-01 7.071e-01 7.071e-01 4.714e-01
           </DataArray>
           <DataArray type="Float32" Name="rootSegmentLengthDuration" NumberOfComponents="1" format="ascii">
 1.295e+00 9.313e-01 9.047e-01 6.800e-01 3.000e-01 2.300e-01 2.983e-02 1.312e+00 1.100e+00 8.878e-01 6.757e-01 4.635e-01 2.514e-01 4.714e-02
           </DataArray>
           <DataArray type="Float32" Name="rootSegmentSurfaceArea" NumberOfComponents="1" format="ascii">
 9.466e-01 8.692e-01 1.082e+00 1.132e+00 7.543e-01 1.131e+00 3.770e-01 2.021e-01 2.015e-01 2.010e-01 2.006e-01 2.003e-01 2.001e-01 1.333e-01
           </DataArray>
           <DataArray type="Float32" Name="rootSegmentVolume" NumberOfComponents="1" format="ascii">
 9.507e-02 8.714e-02 1.084e-01 1.133e-01 7.546e-02 1.131e-01 3.770e-02 4.599e-03 4.571e-03 4.547e-03 4.529e-03 4.514e-03 4.505e-03 3.000e-03
           </DataArray>
           <DataArray type="Float32" Name="spatialRootDensity" NumberOfComponents="1" format="ascii">
 3.376e-01 1.688e-01 0.000e+00 0.000e+00 0.000e+00 0.000e+00 0.000e+00 3.438e-01 1.790e-01 0.000e+00 0.000e+00 0.000e+00 0.000e+00 0.000e+00
           </DataArray>
         </CellData>
      </Piece>
   </UnstructuredGrid>
</VTKFile>
