<?xml version="1.0"?>
<VTKFile type="UnstructuredGrid" version="0.1" byte_order="LittleEndian">
   <UnstructuredGrid>
      <Piece NumberOfPoints="4690" NumberOfCells="332">
         <Points>
            <DataArray type="Float32" Name="Position" NumberOfComponents="3" format="ascii">
0.140	-5.032	-0.075
0.140	-5.023	-0.073
0.135	-5.017	-0.069
0.128	-5.015	-0.063
0.121	-5.020	-0.058
0.118	-5.028	-0.056
0.118	-5.037	-0.058
0.123	-5.044	-0.063
0.130	-5.045	-0.068
0.137	-5.040	-0.073
0.273	-5.053	0.090
0.273	-5.044	0.092
0.268	-5.038	0.096
0.261	-5.036	0.102
0.254	-5.041	0.107
0.250	-5.049	0.109
0.251	-5.058	0.107
0.256	-5.065	0.102
0.263	-5.066	0.096
0.270	-5.061	0.092
0.242	-5.082	-0.121
0.249	-5.077	-0.123
0.258	-5.078	-0.125
0.265	-5.083	-0.126
0.268	-5.092	-0.126
0.265	-5.101	-0.125
0.257	-5.106	-0.123
0.248	-5.106	-0.121
0.241	-5.100	-0.120
0.238	-5.091	-0.120
0.205	-5.088	-0.286
0.212	-5.083	-0.288
0.221	-5.083	-0.290
0.229	-5.089	-0.291
0.231	-5.098	-0.292
0.228	-5.107	-0.291
0.220	-5.112	-0.289
0.211	-5.111	-0.287
0.204	-5.106	-0.285
0.202	-5.097	-0.285
0.365	-5.150	-0.174
0.373	-5.145	-0.176
0.382	-5.145	-0.178
0.389	-5.151	-0.179
0.391	-5.160	-0.179
0.388	-5.169	-0.177
0.380	-5.174	-0.174
0.371	-5.173	-0.172
0.364	-5.167	-0.171
0.362	-5.158	-0.172
0.335	-5.165	-0.287
0.343	-5.160	-0.290
0.352	-5.161	-0.292
0.359	-5.167	-0.293
0.361	-5.175	-0.293
0.358	-5.184	-0.291
0.351	-5.189	-0.288
0.342	-5.188	-0.286
0.335	-5.182	-0.285
0.332	-5.173	-0.285
0.506	-5.238	-0.238
0.508	-5.239	-0.229
0.505	-5.237	-0.221
0.498	-5.235	-0.216
0.489	-5.232	-0.216
0.482	-5.230	-0.222
0.480	-5.230	-0.231
0.483	-5.231	-0.240
0.490	-5.234	-0.245
0.499	-5.237	-0.244
0.468	-5.362	-0.233
0.471	-5.363	-0.224
0.468	-5.361	-0.215
0.460	-5.359	-0.210
0.451	-5.356	-0.211
0.444	-5.354	-0.217
0.442	-5.354	-0.226
0.445	-5.355	-0.234
0.453	-5.358	-0.239
0.462	-5.360	-0.239
0.622	-5.317	-0.293
0.624	-5.316	-0.284
0.621	-5.314	-0.275
0.614	-5.311	-0.271
0.605	-5.309	-0.271
0.598	-5.308	-0.277
0.595	-5.309	-0.286
0.598	-5.311	-0.295
0.606	-5.314	-0.299
0.615	-5.316	-0.299
0.597	-5.417	-0.276
0.599	-5.416	-0.267
0.596	-5.414	-0.259
0.589	-5.411	-0.254
0.580	-5.409	-0.255
0.572	-5.409	-0.261
0.570	-5.409	-0.270
0.573	-5.412	-0.278
0.581	-5.414	-0.283
0.590	-5.416	-0.282
0.733	-5.403	-0.345
0.734	-5.403	-0.336
0.731	-5.401	-0.328
0.723	-5.397	-0.324
0.715	-5.394	-0.325
0.708	-5.392	-0.332
0.707	-5.393	-0.341
0.710	-5.395	-0.349
0.718	-5.399	-0.353
0.726	-5.402	-0.352
0.690	-5.488	-0.319
0.690	-5.479	-0.315
0.690	-5.470	-0.316
0.690	-5.464	-0.323
0.690	-5.462	-0.332
0.690	-5.466	-0.340
0.690	-5.475	-0.345
0.690	-5.484	-0.343
0.690	-5.490	-0.337
0.690	-5.492	-0.327
0.827	-5.476	-0.399
0.830	-5.473	-0.391
0.833	-5.475	-0.382
0.835	-5.482	-0.377
0.834	-5.492	-0.376
0.832	-5.499	-0.381
0.829	-5.503	-0.389
0.826	-5.500	-0.397
0.824	-5.493	-0.403
0.824	-5.484	-0.403
0.884	-5.480	-0.421
0.887	-5.476	-0.413
0.890	-5.479	-0.405
0.892	-5.486	-0.399
0.891	-5.495	-0.399
0.889	-5.503	-0.403
0.886	-5.506	-0.411
0.883	-5.504	-0.420
0.881	-5.497	-0.425
0.881	-5.487	-0.426
0.949	-5.587	-0.444
0.950	-5.586	-0.435
0.946	-5.583	-0.427
0.939	-5.580	-0.423
0.930	-5.576	-0.425
0.924	-5.575	-0.432
0.923	-5.576	-0.441
0.926	-5.579	-0.449
0.934	-5.582	-0.453
0.942	-5.585	-0.451
0.931	-5.629	-0.438
0.933	-5.628	-0.429
0.929	-5.625	-0.421
0.922	-5.621	-0.417
0.913	-5.618	-0.419
0.907	-5.616	-0.425
0.905	-5.617	-0.434
0.909	-5.620	-0.442
0.917	-5.624	-0.446
0.925	-5.627	-0.444
1.038	-5.666	-0.493
1.041	-5.663	-0.485
1.044	-5.666	-0.476
1.046	-5.673	-0.471
1.046	-5.682	-0.470
1.044	-5.690	-0.475
1.041	-5.693	-0.483
1.037	-5.691	-0.492
1.036	-5.683	-0.497
1.036	-5.674	-0.498
1.057	-5.667	-0.500
1.060	-5.664	-0.492
1.063	-5.666	-0.484
1.065	-5.674	-0.478
1.065	-5.683	-0.478
1.063	-5.691	-0.483
1.060	-5.694	-0.491
1.057	-5.691	-0.499
1.055	-5.684	-0.504
1.055	-5.675	-0.505
0.002	-4.966	-0.025
0.013	-4.959	-0.009
0.020	-4.964	0.011
0.019	-4.979	0.026
0.011	-4.998	0.031
-0.001	-5.014	0.024
-0.012	-5.021	0.008
-0.019	-5.016	-0.011
-0.018	-5.001	-0.027
-0.010	-4.983	-0.032
0.650	-5.315	-0.328
0.662	-5.309	-0.312
0.668	-5.313	-0.292
0.665	-5.326	-0.276
0.655	-5.344	-0.270
0.642	-5.359	-0.276
0.630	-5.365	-0.292
0.624	-5.361	-0.312
0.626	-5.348	-0.328
0.636	-5.330	-0.334
1.270	-5.888	-0.602
1.283	-5.882	-0.586
1.287	-5.886	-0.566
1.282	-5.898	-0.549
1.269	-5.913	-0.542
1.253	-5.925	-0.548
1.241	-5.931	-0.564
1.236	-5.928	-0.584
1.242	-5.916	-0.601
1.255	-5.901	-0.608
1.709	-6.397	-0.759
1.721	-6.392	-0.743
1.724	-6.394	-0.723
1.717	-6.404	-0.705
1.703	-6.418	-0.698
1.686	-6.429	-0.704
1.674	-6.435	-0.720
1.671	-6.432	-0.741
1.678	-6.422	-0.758
1.692	-6.409	-0.765
2.175	-7.039	-0.899
2.188	-7.034	-0.882
2.190	-7.037	-0.862
2.182	-7.045	-0.844
2.166	-7.057	-0.837
2.148	-7.067	-0.843
2.136	-7.072	-0.860
2.134	-7.070	-0.880
2.142	-7.061	-0.897
2.158	-7.049	-0.904
2.477	-7.553	-0.986
2.490	-7.549	-0.970
2.492	-7.552	-0.949
2.482	-7.559	-0.932
2.465	-7.569	-0.925
2.447	-7.578	-0.931
2.434	-7.582	-0.947
2.433	-7.580	-0.968
2.442	-7.572	-0.985
2.459	-7.562	-0.992
2.756	-8.139	-1.067
2.769	-8.136	-1.050
2.771	-8.138	-1.029
2.761	-8.146	-1.012
2.743	-8.155	-1.006
2.724	-8.162	-1.012
2.712	-8.165	-1.028
2.710	-8.162	-1.049
2.720	-8.155	-1.066
2.738	-8.146	-1.073
3.027	-8.779	-1.180
3.040	-8.777	-1.164
3.042	-8.779	-1.143
3.032	-8.786	-1.126
3.014	-8.795	-1.119
2.995	-8.802	-1.125
2.982	-8.805	-1.142
2.981	-8.802	-1.162
2.991	-8.795	-1.179
3.009	-8.786	-1.186
3.315	-9.473	-1.284
3.327	-9.470	-1.267
3.328	-9.472	-1.246
3.318	-9.479	-1.229
3.300	-9.487	-1.222
3.281	-9.494	-1.229
3.268	-9.496	-1.245
3.267	-9.494	-1.266
3.277	-9.488	-1.283
3.296	-9.479	-1.290
3.599	-10.211	-1.378
3.611	-10.208	-1.361
3.612	-10.211	-1.340
3.601	-10.217	-1.323
3.583	-10.224	-1.317
3.564	-10.230	-1.323
3.551	-10.232	-1.340
3.551	-10.230	-1.361
3.562	-10.224	-1.378
3.580	-10.217	-1.384
3.847	-10.968	-1.458
3.859	-10.967	-1.441
3.859	-10.969	-1.420
3.848	-10.974	-1.403
3.829	-10.980	-1.397
3.809	-10.985	-1.404
3.797	-10.987	-1.421
3.797	-10.985	-1.442
3.808	-10.980	-1.458
3.828	-10.973	-1.465
4.051	-11.738	-1.542
4.063	-11.737	-1.525
4.063	-11.740	-1.504
4.051	-11.744	-1.487
4.032	-11.749	-1.481
4.012	-11.753	-1.488
4.000	-11.754	-1.505
4.000	-11.752	-1.526
4.012	-11.747	-1.543
4.031	-11.742	-1.549
4.209	-12.517	-1.630
4.221	-12.517	-1.613
4.221	-12.519	-1.592
4.209	-12.523	-1.576
4.190	-12.528	-1.570
4.170	-12.532	-1.577
4.158	-12.533	-1.594
4.158	-12.530	-1.615
4.170	-12.526	-1.631
4.190	-12.521	-1.637
4.301	-12.904	-1.671
4.313	-12.903	-1.654
4.313	-12.906	-1.633
4.301	-12.910	-1.617
4.282	-12.915	-1.611
4.262	-12.919	-1.618
4.250	-12.920	-1.635
4.250	-12.918	-1.656
4.262	-12.913	-1.672
4.281	-12.908	-1.678
-0.064	-5.024	-0.123
-0.064	-5.016	-0.118
-0.064	-5.006	-0.119
-0.065	-5.000	-0.125
-0.066	-4.998	-0.135
-0.066	-5.002	-0.143
-0.066	-5.010	-0.148
-0.066	-5.019	-0.147
-0.065	-5.026	-0.140
-0.065	-5.028	-0.131
-0.261	-5.030	-0.119
-0.257	-5.022	-0.119
-0.258	-5.013	-0.119
-0.265	-5.006	-0.119
-0.274	-5.005	-0.119
-0.282	-5.009	-0.119
-0.286	-5.018	-0.119
-0.285	-5.027	-0.119
-0.278	-5.033	-0.119
-0.269	-5.035	-0.119
-0.137	-5.042	-0.261
-0.131	-5.036	-0.265
-0.122	-5.036	-0.268
-0.115	-5.041	-0.270
-0.111	-5.050	-0.270
-0.113	-5.059	-0.268
-0.120	-5.064	-0.265
-0.129	-5.065	-0.262
-0.136	-5.060	-0.260
-0.139	-5.051	-0.259
-0.188	-5.059	-0.390
-0.181	-5.054	-0.394
-0.173	-5.053	-0.397
-0.165	-5.058	-0.399
-0.162	-5.067	-0.399
-0.164	-5.076	-0.398
-0.171	-5.082	-0.394
-0.179	-5.082	-0.391
-0.187	-5.077	-0.389
-0.190	-5.068	-0.388
-0.175	-5.099	-0.404
-0.171	-5.098	-0.396
-0.172	-5.097	-0.387
-0.179	-5.097	-0.380
-0.188	-5.098	-0.379
-0.196	-5.099	-0.383
-0.200	-5.100	-0.391
-0.199	-5.101	-0.400
-0.192	-5.101	-0.407
-0.183	-5.101	-0.408
-0.162	-5.226	-0.388
-0.158	-5.225	-0.380
-0.159	-5.224	-0.371
-0.166	-5.223	-0.364
-0.175	-5.224	-0.363
-0.183	-5.226	-0.367
-0.187	-5.227	-0.375
-0.186	-5.228	-0.384
-0.179	-5.228	-0.391
-0.170	-5.227	-0.392
-0.245	-5.148	-0.526
-0.240	-5.145	-0.519
-0.234	-5.148	-0.512
-0.231	-5.155	-0.508
-0.231	-5.164	-0.508
-0.235	-5.172	-0.512
-0.240	-5.175	-0.519
-0.246	-5.172	-0.526
-0.249	-5.164	-0.530
-0.249	-5.155	-0.530
-0.149	-5.149	-0.601
-0.143	-5.147	-0.594
-0.138	-5.150	-0.587
-0.135	-5.157	-0.583
-0.135	-5.166	-0.583
-0.139	-5.174	-0.587
-0.144	-5.177	-0.594
-0.149	-5.174	-0.601
-0.153	-5.166	-0.605
-0.152	-5.157	-0.605
-0.281	-5.232	-0.651
-0.277	-5.229	-0.643
-0.279	-5.227	-0.634
-0.286	-5.227	-0.627
-0.295	-5.229	-0.626
-0.303	-5.231	-0.630
-0.307	-5.233	-0.638
-0.305	-5.235	-0.647
-0.298	-5.235	-0.653
-0.289	-5.234	-0.655
-0.257	-5.362	-0.622
-0.253	-5.360	-0.614
-0.255	-5.358	-0.605
-0.261	-5.358	-0.599
-0.270	-5.360	-0.597
-0.278	-5.362	-0.601
-0.282	-5.364	-0.610
-0.281	-5.366	-0.618
-0.274	-5.366	-0.625
-0.265	-5.365	-0.626
-0.348	-5.302	-0.762
-0.343	-5.299	-0.755
-0.338	-5.302	-0.747
-0.335	-5.310	-0.742
-0.336	-5.319	-0.742
-0.340	-5.326	-0.746
-0.345	-5.329	-0.753
-0.350	-5.326	-0.760
-0.353	-5.319	-0.765
-0.352	-5.310	-0.766
-0.279	-5.313	-0.809
-0.270	-5.309	-0.809
-0.261	-5.310	-0.809
-0.255	-5.317	-0.809
-0.253	-5.326	-0.809
-0.257	-5.334	-0.809
-0.266	-5.339	-0.809
-0.275	-5.337	-0.809
-0.281	-5.331	-0.809
-0.283	-5.321	-0.809
-0.399	-5.389	-0.873
-0.394	-5.386	-0.866
-0.389	-5.388	-0.859
-0.386	-5.396	-0.854
-0.387	-5.405	-0.853
-0.391	-5.413	-0.857
-0.396	-5.416	-0.864
-0.401	-5.413	-0.872
-0.403	-5.405	-0.877
-0.403	-5.396	-0.877
-0.338	-5.396	-0.916
-0.333	-5.393	-0.909
-0.328	-5.395	-0.901
-0.326	-5.403	-0.897
-0.326	-5.412	-0.896
-0.330	-5.420	-0.900
-0.335	-5.423	-0.907
-0.340	-5.420	-0.915
-0.343	-5.412	-0.919
-0.342	-5.403	-0.920
-0.429	-5.496	-0.983
-0.426	-5.492	-0.975
-0.428	-5.488	-0.967
-0.435	-5.487	-0.961
-0.445	-5.488	-0.960
-0.452	-5.491	-0.964
-0.455	-5.495	-0.972
-0.453	-5.499	-0.980
-0.446	-5.501	-0.986
-0.437	-5.499	-0.987
-0.422	-5.536	-0.963
-0.419	-5.532	-0.955
-0.421	-5.528	-0.947
-0.428	-5.527	-0.942
-0.438	-5.528	-0.941
[...]
         <CellData>
           <DataArray type="Float32" Name="combinedRootClassID" NumberOfComponents="1" format="ascii">
 -1.300e+01 -1.300e+01 -1.300e+01 -1.300e+01 -1.300e+01 -1.300e+01 -1.300e+01 -1.300e+01 -1.300e+01 -5.000e+00 -5.000e+00 -5.000e+00 -5.000e+00 -5.000e+00 -5.000e+00 -5.000e+00 -5.000e+00 -5.000e+00 -5.000e+00 -5.000e+00 -5.000e+00 -5.000e+00 -1.300e+01 -1.300e+01 -1.300e+01 -1.300e+01 -1.300e+01 -1.300e+01 -1.300e+01 -1.300e+01 -1.300e+01 -5.000e+00 -5.000e+00 -5.000e+00 -5.000e+00 -5.000e+00 -5.000e+00 -5.000e+00 -5.000e+00 -5.000e+00 -5.000e+00 -5.000e+00 -5.000e+00 -5.000e+00 -1.300e+01 -1.300e+01 -1.300e+01 -1.300e+01 -1.300e+01 -1.300e+01 -1.300e+01 -1.300e+01 -1.300e+01 -5.000e+00 -5.000e+00 -5.000e+00 -5.000e+00 -5.000e+00 -5.000e+00 -5.000e+00 -5.000e+00 -5.000e+00 -5.000e+00 -5.000e+00 -5.000e+00 -5.000e+00 -1.300e+01 -1.300e+01 -1.300e+01 -1.300e+01 -1.300e+01 -1.300e+01 -1.300e+01 -1.300e+01 -1.300e+01 -5.000e+00 -5.000e+00 -5.000e+00 -5.000e+00 -5.000e+00 -5.000e+00 -5.000e+00 -5.000e+00 -5.000e+00 -5.000e+00 -5.000e+00 -5.000e+00 -5.000e+00 -1.100e+01 -1.100e+01 -1.100e+01 -1.100e+01 -1.100e+01 -1.100e+01 -1.100e+01 -1.100e+01 -1.100e+01 -1.100e+01 -1.100e+01 -1.100e+01 -2.000e+00 -2.000e+00 -2.000e+00 -2.000e+00 -2.000e+00 -2.000e+00 -2.000e+00 -2.000e+00 -2.000e+00 -2.000e+00 -7.000e+00 -7.000e+00 -7.000e+00 -7.000e+00 -7.000e+00 -7.000e+00 -7.000e+00 -7.000e+00 -7.000e+00 -7.000e+00 -7.000e+00 -7.000e+00 -7.000e+00 -7.000e+00 -7.000e+00 -7.000e+00 -7.000e+00 -7.000e+00 -7.000e+00 -7.000e+00 -7.000e+00 -7.000e+00 -7.000e+00 -7.000e+00 -7.000e+00 -7.000e+00 -7.000e+00 -7.000e+00 -7.000e+00 -7.000e+00 -7.000e+00 -7.000e+00 -7.000e+00 -7.000e+00 -7.000e+00 -7.000e+00 -7.000e+00 -7.000e+00 -7.000e+00 -7.000e+00 -7.000e+00 -7.000e+00 -7.000e+00 -7.000e+00 -7.000e+00 -7.000e+00 -7.000e+00 -7.000e+00 -7.000e+00 -7.000e+00 -7.000e+00 -7.000e+00 -7.000e+00 -7.000e+00 -7.000e+00 -7.000e+00 -7.000e+00 -7.000e+00 -7.000e+00 -7.000e+00 -7.000e+00 -7.000e+00 -7.000e+00 -7.000e+00 -7.000e+00 -7.000e+00 -7.000e+00 -7.000e+00 -7.000e+00 -7.000e+00 -7.000e+00 -7.000e+00 -7.000e+00 -7.000e+00 -7.000e+00 -7.000e+00 -7.000e+00 -7.000e+00 -7.000e+00 -7.000e+00 -7.000e+00 -7.000e+00 -7.000e+00 -7.000e+00 -7.000e+00 -7.000e+00 -7.000e+00 -7.000e+00 -7.000e+00 -7.000e+00 -7.000e+00 -7.000e+00 -7.000e+00 -7.000e+00 -7.000e+00 -7.000e+00 -7.000e+00 -7.000e+00 -7.000e+00 -7.000e+00 -7.000e+00 -7.000e+00 -7.000e+00 -7.000e+00 -7.000e+00 -7.000e+00 -7.000e+00 -7.000e+00 -7.000e+00 -7.000e+00 -7.000e+00 -7.000e+00 -7.000e+00 -7.000e+00 -7.000e+00 -7.000e+00 -7.000e+00 -7.000e+00 -7.000e+00 -7.000e+00 -7.000e+00 -7.000e+00 -7.000e+00 -7.000e+00 -7.000e+00 -7.000e+00 -7.000e+00 -7.000e+00 -7.000e+00 -7.000e+00 -7.000e+00 -7.000e+00 -7.000e+00 -7.000e+00 -7.000e+00 -7.000e+00 -7.000e+00 -7.000e+00 -7.000e+00 -7.000e+00 -7.000e+00 -7.000e+00 -7.000e+00 -7.000e+00 -7.000e+00 -7.000e+00 -7.000e+00 -7.000e+00 -7.000e+00 -7.000e+00 -7.000e+00 -7.000e+00 -7.000e+00 -7.000e+00 -7.000e+00 -7.000e+00 -7.000e+00 -7.000e+00 -7.000e+00 -7.000e+00 -7.000e+00 -7.000e+00 -7.000e+00 -7.000e+00 -7.000e+00 -7.000e+00 -7.000e+00 -7.000e+00 -7.000e+00 -7.000e+00 -7.000e+00 -7.000e+00 -7.000e+00 -7.000e+00 -7.000e+00 -7.000e+00 -7.000e+00 -7.000e+00 -7.000e+00 -7.000e+00 -7.000e+00 -7.000e+00 -7.000e+00 -7.000e+00 -7.000e+00 -9.000e+00 -9.000e+00 -9.000e+00 -9.000e+00 -9.000e+00 -9.000e+00 -9.000e+00 -9.000e+00 -9.000e+00 -9.000e+00 -4.000e+00 -4.000e+00 -4.000e+00 -4.000e+00 -4.000e+00 -4.000e+00 -4.000e+00 -4.000e+00 -4.000e+00 -4.000e+00 -4.000e+00 -4.000e+00 -4.000e+00 -4.000e+00 -4.000e+00 -4.000e+00 -4.000e+00 -4.000e+00 -4.000e+00 -4.000e+00 -4.000e+00 -4.000e+00 -4.000e+00 -4.000e+00 -4.000e+00 -4.000e+00 -4.000e+00
           </DataArray>
           <DataArray type="Float32" Name="parentRootClassID" NumberOfComponents="1" format="ascii">
 9.900e+01 9.900e+01 9.900e+01 9.900e+01 9.900e+01 9.900e+01 9.900e+01 9.900e+01 9.900e+01 -2.000e+00 -2.000e+00 -2.000e+00 -2.000e+00 -2.000e+00 -2.000e+00 -2.000e+00 -2.000e+00 -2.000e+00 -2.000e+00 -2.000e+00 -2.000e+00 -2.000e+00 9.900e+01 9.900e+01 9.900e+01 9.900e+01 9.900e+01 9.900e+01 9.900e+01 9.900e+01 9.900e+01 -2.000e+00 -2.000e+00 -2.000e+00 -2.000e+00 -2.000e+00 -2.000e+00 -2.000e+00 -2.000e+00 -2.000e+00 -2.000e+00 -2.000e+00 -2.000e+00 -2.000e+00 9.900e+01 9.900e+01 9.900e+01 9.900e+01 9.900e+01 9.900e+01 9.900e+01 9.900e+01 9.900e+01 -2.000e+00 -2.000e+00 -2.000e+00 -2.000e+00 -2.000e+00 -2.000e+00 -2.000e+00 -2.000e+00 -2.000e+00 -2.000e+00 -2.000e+00 -2.000e+00 -2.000e+00 9.900e+01 9.900e+01 9.900e+01 9.900e+01 9.900e+01 9.900e+01 9.900e+01 9.900e+01 9.900e+01 -2.000e+00 -2.000e+00 -2.000e+00 -2.000e+00 -2.000e+00 -2.000e+00 -2.000e+00 -2.000e+00 -2.000e+00 -2.000e+00 -2.000e+00 -2.000e+00 -2.000e+00 -2.000e+00 -2.000e+00 -2.000e+00 -2.000e+00 -2.000e+00 -2.000e+00 -2.000e+00 -2.000e+00 -2.000e+00 -2.000e+00 -2.000e+00 -2.000e+00 -3.000e+00 -3.000e+00 -3.000e+00 -3.000e+00 -3.000e+00 -3.000e+00 -3.000e+00 -3.000e+00 -3.000e+00 -3.000e+00 -4.000e+00 -4.000e+00 -4.000e+00 -4.000e+00 -4.000e+00 -4.000e+00 -4.000e+00 -4.000e+00 -4.000e+00 -4.000e+00 -4.000e+00 -4.000e+00 -4.000e+00 -4.000e+00 -4.000e+00 -4.000e+00 -4.000e+00 -4.000e+00 -4.000e+00 -4.000e+00 -4.000e+00 -4.000e+00 -4.000e+00 -4.000e+00 -4.000e+00 -4.000e+00 -4.000e+00 -4.000e+00 -4.000e+00 -4.000e+00 -4.000e+00 -4.000e+00 -4.000e+00 -4.000e+00 -4.000e+00 -4.000e+00 -4.000e+00 -4.000e+00 -4.000e+00 -4.000e+00 -4.000e+00 -4.000e+00 -4.000e+00 -4.000e+00 -4.000e+00 -4.000e+00 -4.000e+00 -4.000e+00 -4.000e+00 -4.000e+00 -4.000e+00 -4.000e+00 -4.000e+00 -4.000e+00 -4.000e+00 -4.000e+00 -4.000e+00 -4.000e+00 -4.000e+00 -4.000e+00 -4.000e+00 -4.000e+00 -4.000e+00 -4.000e+00 -4.000e+00 -4.000e+00 -4.000e+00 -4.000e+00 -4.000e+00 -4.000e+00 -4.000e+00 -4.000e+00 -4.000e+00 -4.000e+00 -4.000e+00 -4.000e+00 -4.000e+00 -4.000e+00 -4.000e+00 -4.000e+00 -4.000e+00 -4.000e+00 -4.000e+00 -4.000e+00 -4.000e+00 -4.000e+00 -4.000e+00 -4.000e+00 -4.000e+00 -4.000e+00 -4.000e+00 -4.000e+00 -4.000e+00 -4.000e+00 -4.000e+00 -4.000e+00 -4.000e+00 -4.000e+00 -4.000e+00 -4.000e+00 -4.000e+00 -4.000e+00 -4.000e+00 -4.000e+00 -4.000e+00 -4.000e+00 -4.000e+00 -4.000e+00 -4.000e+00 -4.000e+00 -4.000e+00 -4.000e+00 -4.000e+00 -4.000e+00 -4.000e+00 -4.000e+00 -4.000e+00 -4.000e+00 -4.000e+00 -4.000e+00 -4.000e+00 -4.000e+00 -4.000e+00 -4.000e+00 -4.000e+00 -4.000e+00 -4.000e+00 -4.000e+00 -4.000e+00 -4.000e+00 -4.000e+00 -4.000e+00 -4.000e+00 -4.000e+00 -4.000e+00 -4.000e+00 -4.000e+00 -4.000e+00 -4.000e+00 -4.000e+00 -4.000e+00 -4.000e+00 -4.000e+00 -4.000e+00 -4.000e+00 -4.000e+00 -4.000e+00 -4.000e+00 -4.000e+00 -4.000e+00 -4.000e+00 -4.000e+00 -4.000e+00 -4.000e+00 -4.000e+00 -4.000e+00 -4.000e+00 -4.000e+00 -4.000e+00 -4.000e+00 -4.000e+00 -4.000e+00 -4.000e+00 -4.000e+00 -4.000e+00 -4.000e+00 -4.000e+00 -4.000e+00 -4.000e+00 -4.000e+00 -4.000e+00 -4.000e+00 -4.000e+00 -4.000e+00 -4.000e+00 -4.000e+00 -4.000e+00 -4.000e+00 -4.000e+00 -4.000e+00 -4.000e+00 -4.000e+00 -4.000e+00 -4.000e+00 -4.000e+00 -4.000e+00 -4.000e+00 -4.000e+00 -4.000e+00 -4.000e+00 -4.000e+00 -4.000e+00 -4.000e+00 -4.000e+00 -4.000e+00 -3.000e+00 -3.000e+00 -3.000e+00 -3.000e+00 -3.000e+00 -3.000e+00 -3.000e+00 -3.000e+00 -3.000e+00 -3.000e+00 -3.000e+00 -3.000e+00 -3.000e+00 -3.000e+00 -3.000e+00 -3.000e+00 -3.000e+00 -3.000e+00 -3.000e+00 -3.000e+00 -3.000e+00 -3.000e+00 -3.000e+00 -3.000e+00 -3.000e+00 -3.000e+00 -3.000e+00
           </DataArray>
           <DataArray type="Float32" Name="phosphorus/Imax" NumberOfComponents="1" format="ascii">
 5.550e-02 5.550e-02 5.550e-02 5.550e-02 5.550e-02 5.550e-02 5.550e-02 5.550e-02 5.550e-02 5.550e-02 5.550e-02 5.550e-02 5.550e-02 5.550e-02 5.550e-02 5.550e-02 5.550e-02 5.550e-02 5.550e-02 5.550e-02 5.550e-02 5.550e-02 5.550e-02 5.550e-02 5.550e-02 5.550e-02 5.550e-02 5.550e-02 5.550e-02 5.550e-02 5.550e-02 5.550e-02 5.550e-02 5.550e-02 5.550e-02 5.550e-02 5.550e-02 5.550e-02 5.550e-02 5.550e-02 5.550e-02 5.550e-02 5.550e-02 5.550e-02 5.550e-02 5.550e-02 5.550e-02 5.550e-02 5.550e-02 5.550e-02 5.550e-02 5.550e-02 5.550e-02 5.550e-02 5.550e-02 5.550e-02 5.550e-02 5.550e-02 5.550e-02 5.550e-02 5.550e-02 5.550e-02 5.550e-02 5.550e-02 5.550e-02 5.550e-02 5.550e-02 5.550e-02 5.550e-02 5.550e-02 5.550e-02 5.550e-02 5.550e-02 5.550e-02 5.550e-02 5.550e-02 5.550e-02 5.550e-02 5.550e-02 5.550e-02 5.550e-02 5.550e-02 5.550e-02 5.550e-02 5.550e-02 5.550e-02 5.550e-02 5.550e-02 5.550e-02 5.550e-02 5.550e-02 5.550e-02 5.550e-02 5.550e-02 5.550e-02 5.550e-02 5.550e-02 5.550e-02 5.550e-02 5.550e-02 5.550e-02 5.550e-02 5.550e-02 5.550e-02 5.550e-02 5.550e-02 5.550e-02 5.550e-02 5.550e-02 5.550e-02 5.550e-02 5.550e-02 5.550e-02 5.550e-02 5.550e-02 5.550e-02 5.550e-02 5.550e-02 5.550e-02 5.550e-02 5.550e-02 5.550e-02 5.550e-02 5.550e-02 5.550e-02 5.550e-02 5.550e-02 5.550e-02 5.550e-02 5.550e-02 5.550e-02 5.550e-02 5.550e-02 5.550e-02 5.550e-02 5.550e-02 5.550e-02 5.550e-02 5.550e-02 5.550e-02 5.550e-02 5.550e-02 5.550e-02 5.550e-02 5.550e-02 5.550e-02 5.550e-02 5.550e-02 5.550e-02 5.550e-02 5.550e-02 5.550e-02 5.550e-02 5.550e-02 5.550e-02 5.550e-02 5.550e-02 5.550e-02 5.550e-02 5.550e-02 5.550e-02 5.550e-02 5.550e-02 5.550e-02 5.550e-02 5.550e-02 5.550e-02 5.550e-02 5.550e-02 5.550e-02 5.550e-02 5.550e-02 5.550e-02 5.550e-02 5.550e-02 5.550e-02 5.550e-02 5.550e-02 5.550e-02 5.550e-02 5.550e-02 5.550e-02 5.550e-02 5.550e-02 5.550e-02 5.550e-02 5.550e-02 5.550e-02 5.550e-02 5.550e-02 5.550e-02 5.550e-02 5.550e-02 5.550e-02 5.550e-02 5.550e-02 5.550e-02 5.550e-02 5.550e-02 5.550e-02 5.550e-02 5.550e-02 5.550e-02 5.550e-02 5.550e-02 5.550e-02 5.550e-02 5.550e-02 5.550e-02 5.550e-02 5.550e-02 5.550e-02 5.550e-02 5.550e-02 5.550e-02 5.550e-02 5.550e-02 5.550e-02 5.550e-02 5.550e-02 5.550e-02 5.550e-02 5.550e-02 5.550e-02 5.550e-02 5.550e-02 5.550e-02 5.550e-02 5.550e-02 5.550e-02 5.550e-02 5.550e-02 5.550e-02 5.550e-02 5.550e-02 5.550e-02 5.550e-02 5.550e-02 5.550e-02 5.550e-02 5.550e-02 5.550e-02 5.550e-02 5.550e-02 5.550e-02 5.550e-02 5.550e-02 5.550e-02 5.550e-02 5.550e-02 5.550e-02 5.550e-02 5.550e-02 5.550e-02 5.550e-02 5.550e-02 5.550e-02 5.550e-02 5.550e-02 5.550e-02 5.550e-02 5.550e-02 5.550e-02 5.550e-02 5.550e-02 5.550e-02 5.550e-02 5.550e-02 5.550e-02 5.550e-02 5.550e-02 5.550e-02 5.550e-02 5.550e-02 5.550e-02 5.550e-02 5.550e-02 5.550e-02 5.550e-02 5.550e-02 5.550e-02 5.550e-02 5.550e-02 5.550e-02 5.550e-02 5.550e-02 5.550e-02 5.550e-02 5.550e-02 5.550e-02 5.550e-02 5.550e-02 5.550e-02 5.550e-02 5.550e-02 5.550e-02 5.550e-02 5.550e-02 5.550e-02 5.550e-02 5.550e-02 5.550e-02 5.550e-02 5.550e-02 5.550e-02 5.550e-02 5.550e-02 5.550e-02 5.550e-02 5.550e-02 5.550e-02 5.550e-02 5.550e-02 5.550e-02 5.550e-02 5.550e-02 5.550e-02 5.550e-02 5.550e-02 5.550e-02 5.550e-02 5.550e-02 5.550e-02 5.550e-02 5.550e-02 5.550e-02 5.550e-02 5.550e-02 5.550e-02 5.550e-02 5.550e-02 5.550e-02
           </DataArray>
           <DataArray type="Float32" Name="phosphorus/Km" NumberOfComponents="1" format="ascii">
 5.450e-03 5.450e-03 5.450e-03 5.450e-03 5.450e-03 5.450e-03 5.450e-03 5.450e-03 5.450e-03 5.450e-03 5.450e-03 5.450e-03 5.450e-03 5.450e-03 5.450e-03 5.450e-03 5.450e-03 5.450e-03 5.450e-03 5.450e-03 5.450e-03 5.450e-03 5.450e-03 5.450e-03 5.450e-03 5.450e-03 5.450e-03 5.450e-03 5.450e-03 5.450e-03 5.450e-03 5.450e-03 5.450e-03 5.450e-03 5.450e-03 5.450e-03 5.450e-03 5.450e-03 5.450e-03 5.450e-03 5.450e-03 5.450e-03 5.450e-03 5.450e-03 5.450e-03 5.450e-03 5.450e-03 5.450e-03 5.450e-03 5.450e-03 5.450e-03 5.450e-03 5.450e-03 5.450e-03 5.450e-03 5.450e-03 5.450e-03 5.450e-03 5.450e-03 5.450e-03 5.450e-03 5.450e-03 5.450e-03 5.450e-03 5.450e-03 5.450e-03 5.450e-03 5.450e-03 5.450e-03 5.450e-03 5.450e-03 5.450e-03 5.450e-03 5.450e-03 5.450e-03 5.450e-03 5.450e-03 5.450e-03 5.450e-03 5.450e-03 5.450e-03 5.450e-03 5.450e-03 5.450e-03 5.450e-03 5.450e-03 5.450e-03 5.450e-03 5.450e-03 5.450e-03 5.450e-03 5.450e-03 5.450e-03 5.450e-03 5.450e-03 5.450e-03 5.450e-03 5.450e-03 5.450e-03 5.450e-03 5.450e-03 5.450e-03 5.450e-03 5.450e-03 5.450e-03 5.450e-03 5.450e-03 5.450e-03 5.450e-03 5.450e-03 5.450e-03 5.450e-03 5.450e-03 5.450e-03 5.450e-03 5.450e-03 5.450e-03 5.450e-03 5.450e-03 5.450e-03 5.450e-03 5.450e-03 5.450e-03 5.450e-03 5.450e-03 5.450e-03 5.450e-03 5.450e-03 5.450e-03 5.450e-03 5.450e-03 5.450e-03 5.450e-03 5.450e-03 5.450e-03 5.450e-03 5.450e-03 5.450e-03 5.450e-03 5.450e-03 5.450e-03 5.450e-03 5.450e-03 5.450e-03 5.450e-03 5.450e-03 5.450e-03 5.450e-03 5.450e-03 5.450e-03 5.450e-03 5.450e-03 5.450e-03 5.450e-03 5.450e-03 5.450e-03 5.450e-03 5.450e-03 5.450e-03 5.450e-03 5.450e-03 5.450e-03 5.450e-03 5.450e-03 5.450e-03 5.450e-03 5.450e-03 5.450e-03 5.450e-03 5.450e-03 5.450e-03 5.450e-03 5.450e-03 5.450e-03 5.450e-03 5.450e-03 5.450e-03 5.450e-03 5.450e-03 5.450e-03 5.450e-03 5.450e-03 5.450e-03 5.450e-03 5.450e-03 5.450e-03 5.450e-03 5.450e-03 5.450e-03 5.450e-03 5.450e-03 5.450e-03 5.450e-03 5.450e-03 5.450e-03 5.450e-03 5.450e-03 5.450e-03 5.450e-03 5.450e-03 5.450e-03 5.450e-03 5.450e-03 5.450e-03 5.450e-03 5.450e-03 5.450e-03 5.450e-03 5.450e-03 5.450e-03 5.450e-03 5.450e-03 5.450e-03 5.450e-03 5.450e-03 5.450e-03 5.450e-03 5.450e-03 5.450e-03 5.450e-03 5.450e-03 5.450e-03 5.450e-03 5.450e-03 5.450e-03 5.450e-03 5.450e-03 5.450e-03 5.450e-03 5.450e-03 5.450e-03 5.450e-03 5.450e-03 5.450e-03 5.450e-03 5.450e-03 5.450e-03 5.450e-03 5.450e-03 5.450e-03 5.450e-03 5.450e-03 5.450e-03 5.450e-03 5.450e-03 5.450e-03 5.450e-03 5.450e-03 5.450e-03 5.450e-03 5.450e-03 5.450e-03 5.450e-03 5.450e-03 5.450e-03 5.450e-03 5.450e-03 5.450e-03 5.450e-03 5.450e-03 5.450e-03 5.450e-03 5.450e-03 5.450e-03 5.450e-03 5.450e-03 5.450e-03 5.450e-03 5.450e-03 5.450e-03 5.450e-03 5.450e-03 5.450e-03 5.450e-03 5.450e-03 5.450e-03 5.450e-03 5.450e-03 5.450e-03 5.450e-03 5.450e-03 5.450e-03 5.450e-03 5.450e-03 5.450e-03 5.450e-03 5.450e-03 5.450e-03 5.450e-03 5.450e-03 5.450e-03 5.450e-03 5.450e-03 5.450e-03 5.450e-03 5.450e-03 5.450e-03 5.450e-03 5.450e-03 5.450e-03 5.450e-03 5.450e-03 5.450e-03 5.450e-03 5.450e-03 5.450e-03 5.450e-03 5.450e-03 5.450e-03 5.450e-03 5.450e-03 5.450e-03 5.450e-03 5.450e-03 5.450e-03 5.450e-03 5.450e-03 5.450e-03 5.450e-03 5.450e-03 5.450e-03 5.450e-03 5.450e-03 5.450e-03 5.450e-03 5.450e-03 5.450e-03 5.450e-03 5.450e-03 5.450e-03 5.450e-03 5.450e-03
           </DataArray>
           <DataArray type="Float32" Name="phosphorus/minimalNutrientConcentration" NumberOfComponents="1" format="ascii">
 3.000e+01 3.000e+01 3.000e+01 3.000e+01 3.000e+01 3.000e+01 3.000e+01 3.000e+01 3.000e+01 3.000e+01 3.000e+01 3.000e+01 3.000e+01 3.000e+01 3.000e+01 3.000e+01 3.000e+01 3.000e+01 3.000e+01 3.000e+01 3.000e+01 3.000e+01 3.000e+01 3.000e+01 3.000e+01 3.000e+01 3.000e+01 3.000e+01 3.000e+01 3.000e+01 3.000e+01 3.000e+01 3.000e+01 3.000e+01 3.000e+01 3.000e+01 3.000e+01 3.000e+01 3.000e+01 3.000e+01 3.000e+01 3.000e+01 3.000e+01 3.000e+01 3.000e+01 3.000e+01 3.000e+01 3.000e+01 3.000e+01 3.000e+01 3.000e+01 3.000e+01 3.000e+01 3.000e+01 3.000e+01 3.000e+01 3.000e+01 3.000e+01 3.000e+01 3.000e+01 3.000e+01 3.000e+01 3.000e+01 3.000e+01 3.000e+01 3.000e+01 3.000e+01 3.000e+01 3.000e+01 3.000e+01 3.000e+01 3.000e+01 3.000e+01 3.000e+01 3.000e+01 3.000e+01 3.000e+01 3.000e+01 3.000e+01 3.000e+01 3.000e+01 3.000e+01 3.000e+01 3.000e+01 3.000e+01 3.000e+01 3.000e+01 3.000e+01 3.000e+01 3.000e+01 3.000e+01 3.000e+01 3.000e+01 3.000e+01 3.000e+01 3.000e+01 3.000e+01 3.000e+01 3.000e+01 3.000e+01 3.000e+01 3.000e+01 3.000e+01 3.000e+01 3.000e+01 3.000e+01 3.000e+01 3.000e+01 3.000e+01 3.000e+01 3.000e+01 3.000e+01 3.000e+01 3.000e+01 3.000e+01 3.000e+01 3.000e+01 3.000e+01 3.000e+01 3.000e+01 3.000e+01 3.000e+01 3.000e+01 3.000e+01 3.000e+01 3.000e+01 3.000e+01 3.000e+01 3.000e+01 3.000e+01 3.000e+01 3.000e+01 3.000e+01 3.000e+01 3.000e+01 3.000e+01 3.000e+01 3.000e+01 3.000e+01 3.000e+01 3.000e+01 3.000e+01 3.000e+01 3.000e+01 3.000e+01 3.000e+01 3.000e+01 3.000e+01 3.000e+01 3.000e+01 3.000e+01 3.000e+01 3.000e+01 3.000e+01 3.000e+01 3.000e+01 3.000e+01 3.000e+01 3.000e+01 3.000e+01 3.000e+01 3.000e+01 3.000e+01 3.000e+01 3.000e+01 3.000e+01 3.000e+01 3.000e+01 3.000e+01 3.000e+01 3.000e+01 3.000e+01 3.000e+01 3.000e+01 3.000e+01 3.000e+01 3.000e+01 3.000e+01 3.000e+01 3.000e+01 3.000e+01 3.000e+01 3.000e+01 3.000e+01 3.000e+01 3.000e+01 3.000e+01 3.000e+01 3.000e+01 3.000e+01 3.000e+01 3.000e+01 3.000e+01 3.000e+01 3.000e+01 3.000e+01 3.000e+01 3.000e+01 3.000e+01 3.000e+01 3.000e+01 3.000e+01 3.000e+01 3.000e+01 3.000e+01 3.000e+01 3.000e+01 3.000e+01 3.000e+01 3.000e+01 3.000e+01 3.000e+01 3.000e+01 3.000e+01 3.000e+01 3.000e+01 3.000e+01 3.000e+01 3.000e+01 3.000e+01 3.000e+01 3.000e+01 3.000e+01 3.000e+01 3.000e+01 3.000e+01 3.000e+01 3.000e+01 3.000e+01 3.000e+01 3.000e+01 3.000e+01 3.000e+01 3.000e+01 3.000e+01 3.000e+01 3.000e+01 3.000e+01 3.000e+01 3.000e+01 3.000e+01 3.000e+01 3.000e+01 3.000e+01 3.000e+01 3.000e+01 3.000e+01 3.000e+01 3.000e+01 3.000e+01 3.000e+01 3.000e+01 3.000e+01 3.000e+01 3.000e+01 3.000e+01 3.000e+01 3.000e+01 3.000e+01 3.000e+01 3.000e+01 3.000e+01 3.000e+01 3.000e+01 3.000e+01 3.000e+01 3.000e+01 3.000e+01 3.000e+01 3.000e+01 3.000e+01 3.000e+01 3.000e+01 3.000e+01 3.000e+01 3.000e+01 3.000e+01 3.000e+01 3.000e+01 3.000e+01 3.000e+01 3.000e+01 3.000e+01 3.000e+01 3.000e+01 3.000e+01 3.000e+01 3.000e+01 3.000e+01 3.000e+01 3.000e+01 3.000e+01 3.000e+01 3.000e+01 3.000e+01 3.000e+01 3.000e+01 3.000e+01 3.000e+01 3.000e+01 3.000e+01 3.000e+01 3.000e+01 3.000e+01 3.000e+01 3.000e+01 3.000e+01 3.000e+01 3.000e+01 3.000e+01 3.000e+01 3.000e+01 3.000e+01 3.000e+01 3.000e+01 3.000e+01 3.000e+01 3.000e+01 3.000e+01 3.000e+01 3.000e+01 3.000e+01 3.000e+01 3.000e+01 3.000e+01 3.000e+01 3.000e+01 3.000e+01 3.000e+01 3.000e+01 3.000e+01 3.000e+01
           </DataArray>
           <DataArray type="Float32" Name="phosphorus/nutrientConcentrationAtTheRootSurface" NumberOfComponents="1" format="ascii">