<?xml version="1.0"?>
<VTKFile type="UnstructuredGrid" version="0.1" byte_order="LittleEndian">
   <UnstructuredGrid>
      <Piece NumberOfPoints="260" NumberOfCells="24">
         <Points>
            <DataArray type="Float32" Name="Position" NumberOfComponents="3" format="ascii">
-0.146	-4.997	0.142
-0.034	-4.996	0.201
0.090	-4.997	0.182
0.180	-4.999	0.095
0.201	-5.001	-0.029
0.146	-5.003	-0.142
0.034	-5.004	-0.201
-0.090	-5.003	-0.182
-0.180	-5.001	-0.095
-0.201	-4.999	0.029
-0.141	-4.248	0.127
-0.030	-4.248	0.185
0.094	-4.248	0.166
0.183	-4.250	0.078
0.203	-4.251	-0.046
0.147	-4.252	-0.158
0.036	-4.253	-0.215
-0.088	-4.252	-0.197
-0.177	-4.251	-0.109
-0.198	-4.250	0.015
-0.140	-3.560	0.125
-0.029	-3.560	0.182
0.094	-3.560	0.163
0.183	-3.560	0.075
0.203	-3.561	-0.048
0.146	-3.561	-0.160
0.035	-3.561	-0.217
-0.089	-3.561	-0.198
-0.177	-3.560	-0.109
-0.197	-3.560	0.014
-0.138	-2.400	0.120
-0.027	-2.400	0.177
0.096	-2.400	0.158
0.185	-2.401	0.070
0.204	-2.401	-0.053
0.148	-2.401	-0.165
0.037	-2.401	-0.221
-0.086	-2.400	-0.202
-0.175	-2.400	-0.114
-0.194	-2.400	0.009
-0.135	-1.801	0.122
-0.024	-1.801	0.178
0.099	-1.801	0.159
0.187	-1.801	0.070
0.206	-1.800	-0.053
0.149	-1.800	-0.163
0.038	-1.800	-0.220
-0.085	-1.800	-0.200
-0.172	-1.800	-0.112
-0.192	-1.800	0.011
-0.136	-1.201	0.124
-0.026	-1.201	0.180
0.097	-1.200	0.160
0.185	-1.200	0.072
0.204	-1.200	-0.050
0.148	-1.200	-0.161
0.037	-1.200	-0.218
-0.086	-1.200	-0.198
-0.174	-1.200	-0.110
-0.193	-1.201	0.013
-0.137	-0.300	0.122
-0.027	-0.300	0.178
0.096	-0.300	0.159
0.184	-0.300	0.072
0.204	-0.301	-0.051
0.148	-0.301	-0.162
0.037	-0.301	-0.218
-0.086	-0.301	-0.199
-0.174	-0.300	-0.112
-0.193	-0.300	0.011
-0.134	0.560	0.117
-0.024	0.560	0.174
0.099	0.560	0.154
0.187	0.560	0.067
0.206	0.559	-0.056
0.150	0.559	-0.166
0.040	0.559	-0.223
-0.083	0.559	-0.204
-0.170	0.559	-0.116
-0.190	0.560	0.006
-0.136	1.440	0.115
-0.026	1.440	0.171
0.097	1.440	0.152
0.184	1.440	0.064
0.204	1.440	-0.058
0.147	1.440	-0.168
0.037	1.439	-0.224
-0.085	1.439	-0.205
-0.173	1.439	-0.117
-0.192	1.439	0.005
-0.136	2.317	0.115
-0.026	2.316	0.171
0.096	2.316	0.152
0.183	2.316	0.065
0.203	2.315	-0.057
0.147	2.315	-0.168
0.037	2.316	-0.224
-0.085	2.316	-0.205
-0.173	2.316	-0.118
-0.192	2.317	0.004
-0.136	2.471	0.114
-0.026	2.470	0.170
0.096	2.470	0.152
0.184	2.469	0.065
0.204	2.468	-0.057
0.148	2.468	-0.168
0.038	2.469	-0.224
-0.084	2.470	-0.206
-0.171	2.470	-0.119
-0.191	2.471	0.003
0.033	-4.999	-0.034
0.046	-4.997	-0.008
0.042	-4.996	0.021
0.022	-4.996	0.041
-0.007	-4.998	0.046
-0.033	-5.001	0.034
-0.046	-5.003	0.008
-0.042	-5.004	-0.021
-0.022	-5.004	-0.041
0.007	-5.002	-0.046
0.087	-5.703	-0.002
0.100	-5.702	0.024
0.096	-5.702	0.052
0.076	-5.702	0.073
0.047	-5.703	0.078
0.022	-5.705	0.065
0.008	-5.706	0.039
0.013	-5.706	0.011
0.033	-5.706	-0.010
0.061	-5.705	-0.015
0.096	-6.412	0.004
0.109	-6.412	0.029
0.104	-6.412	0.058
0.083	-6.411	0.078
0.055	-6.410	0.081
0.030	-6.410	0.068
0.017	-6.409	0.042
0.022	-6.410	0.014
0.043	-6.410	-0.006
0.071	-6.411	-0.010
0.045	-7.118	0.006
0.057	-7.119	0.032
0.052	-7.119	0.060
0.031	-7.118	0.080
0.003	-7.116	0.083
-0.022	-7.114	0.070
-0.034	-7.113	0.044
-0.029	-7.113	0.016
-0.008	-7.114	-0.004
0.020	-7.116	-0.008
0.002	-7.824	-0.016
0.014	-7.825	0.010
0.008	-7.824	0.038
-0.013	-7.822	0.057
-0.041	-7.820	0.060
-0.066	-7.819	0.046
-0.078	-7.818	0.020
-0.072	-7.819	-0.008
-0.051	-7.820	-0.027
-0.023	-7.822	-0.030
-0.055	-8.530	0.020
-0.044	-8.529	0.046
-0.051	-8.526	0.073
-0.072	-8.523	0.091
-0.100	-8.521	0.094
-0.124	-8.520	0.079
-0.135	-8.521	0.053
-0.129	-8.524	0.025
-0.108	-8.527	0.007
-0.079	-8.529	0.005
-0.103	-9.231	0.099
-0.092	-9.228	0.125
-0.098	-9.225	0.152
-0.120	-9.222	0.170
-0.148	-9.220	0.172
-0.172	-9.221	0.158
-0.183	-9.223	0.132
-0.176	-9.227	0.105
-0.155	-9.230	0.086
-0.127	-9.231	0.084
-0.120	-9.933	0.185
-0.110	-9.930	0.211
-0.116	-9.927	0.238
-0.138	-9.923	0.256
-0.166	-9.921	0.257
-0.189	-9.921	0.243
-0.200	-9.924	0.217
-0.193	-9.927	0.190
-0.172	-9.931	0.172
-0.144	-9.933	0.170
-0.195	-10.633	0.265
-0.185	-10.632	0.291
-0.193	-10.629	0.318
-0.214	-10.624	0.335
-0.242	-10.620	0.336
-0.265	-10.618	0.320
-0.275	-10.619	0.294
-0.268	-10.622	0.267
-0.246	-10.626	0.250
-0.218	-10.631	0.249
-0.323	-11.327	0.298
-0.314	-11.329	0.324
-0.321	-11.327	0.351
-0.343	-11.322	0.368
-0.370	-11.316	0.368
-0.393	-11.312	0.352
-0.402	-11.310	0.326
-0.394	-11.313	0.299
-0.373	-11.317	0.282
-0.345	-11.323	0.282
-0.479	-12.017	0.296
-0.471	-12.019	0.322
-0.479	-12.017	0.349
-0.500	-12.012	0.366
-0.528	-12.006	0.366
-0.550	-12.001	0.350
-0.559	-11.999	0.324
-0.550	-12.001	0.297
-0.529	-12.006	0.280
-0.502	-12.012	0.280
-0.640	-12.706	0.308
-0.631	-12.708	0.334
-0.639	-12.706	0.361
-0.661	-12.701	0.377
-0.688	-12.694	0.377
-0.710	-12.689	0.361
-0.719	-12.687	0.335
-0.711	-12.689	0.308
-0.689	-12.694	0.292
-0.662	-12.701	0.292
-0.809	-13.392	0.303
-0.800	-13.395	0.329
-0.809	-13.394	0.356
-0.830	-13.389	0.372
-0.857	-13.382	0.373
-0.879	-13.376	0.356
-0.887	-13.372	0.330
-0.879	-13.374	0.304
-0.857	-13.379	0.287
-0.830	-13.386	0.287
-1.002	-14.070	0.256
-0.994	-14.075	0.282
-1.003	-14.074	0.309
-1.024	-14.069	0.326
-1.051	-14.061	0.326
-1.073	-14.054	0.310
-1.081	-14.050	0.284
-1.072	-14.051	0.257
-1.051	-14.056	0.241
-1.024	-14.063	0.240
-1.067	-14.297	0.240
-1.059	-14.301	0.267
-1.067	-14.300	0.293
-1.089	-14.295	0.310
-1.115	-14.288	0.310
-1.137	-14.280	0.294
-1.145	-14.276	0.268
-1.137	-14.277	0.242
-1.115	-14.282	0.225
-1.088	-14.289	0.224
		    </DataArray>
         </Points>
         <Cells>
            <DataArray type="Int32" Name="connectivity" NumberOfComponents="1" format="ascii">
 0 10 1 11 2 12 3 13 4 14 5 15 6 16 7 17 8 18 9 19 0 10
 10 20 11 21 12 22 13 23 14 24 15 25 16 26 17 27 18 28 19 29 10 20
 20 30 21 31 22 32 23 33 24 34 25 35 26 36 27 37 28 38 29 39 20 30
 30 40 31 41 32 42 33 43 34 44 35 45 36 46 37 47 38 48 39 49 30 40
 40 50 41 51 42 52 43 53 44 54 45 55 46 56 47 57 48 58 49 59 40 50
 50 60 51 61 52 62 53 63 54 64 55 65 56 66 57 67 58 68 59 69 50 60
 60 70 61 71 62 72 63 73 64 74 65 75 66 76 67 77 68 78 69 79 60 70
 70 80 71 81 72 82 73 83 74 84 75 85 76 86 77 87 78 88 79 89 70 80
 80 90 81 91 82 92 83 93 84 94 85 95 86 96 87 97 88 98 89 99 80 90
 90 100 91 101 92 102 93 103 94 104 95 105 96 106 97 107 98 108 99 109 90 100
 110 120 111 121 112 122 113 123 114 124 115 125 116 126 117 127 118 128 119 129 110 120
 120 130 121 131 122 132 123 133 124 134 125 135 126 136 127 137 128 138 129 139 120 130
 130 140 131 141 132 142 133 143 134 144 135 145 136 146 137 147 138 148 139 149 130 140
 140 150 141 151 142 152 143 153 144 154 145 155 146 156 147 157 148 158 149 159 140 150
 150 160 151 161 152 162 153 163 154 164 155 165 156 166 157 167 158 168 159 169 150 160
 160 170 161 171 162 172 163 173 164 174 165 175 166 176 167 177 168 178 169 179 160 170
 170 180 171 181 172 182 173 183 174 184 175 185 176 186 177 187 178 188 179 189 170 180
 180 190 181 191 182 192 183 193 184 194 185 195 186 196 187 197 188 198 189 199 180 190
 190 200 191 201 192 202 193 203 194 204 195 205 196 206 197 207 198 208 199 209 190 200
 200 210 201 211 202 212 203 213 204 214 205 215 206 216 207 217 208 218 209 219 200 210
 210 220 211 221 212 222 213 223 214 224 215 225 216 226 217 227 218 228 219 229 210 220
 220 230 221 231 222 232 223 233 224 234 225 235 226 236 227 237 228 238 229 239 220 230
 230 240 231 241 232 242 233 243 234 244 235 245 236 246 237 247 238 248 239 249 230 240
 240 250 241 251 242 252 243 253 244 254 245 255 246 256 247 257 248 258 249 259 240 250

            </DataArray>
            <DataArray type="Int32" Name="offsets" NumberOfComponents="1" format="ascii">
 22 44 66 88 110 132 154 176 198 220 242 264 286 308 330 352 374 396 418 440 462 484 506 528
            </DataArray>
            <DataArray type="UInt8"  Name="types" NumberOfComponents="1" format="ascii">
6 6 6 6 6 6 6 6 6 6 6 6 6 6 6 6 6 6 6 6 6 6 6 6
            </DataArray>
         </Cells>
         <CellData>
           <DataArray type="Float32" Name="combinedRootClassID" NumberOfComponents="1" format="ascii">
 -2.000e+00 -2.000e+00 -2.000e+00 -2.000e+00 -2.000e+00 -2.000e+00 -2.000e+00 -2.000e+00 -2.000e+00 -2.000e+00 -4.000e+00 -4.000e+00 -4.000e+00 -4.000e+00 -4.000e+00 -4.000e+00 -4.000e+00 -4.000e+00 -4.000e+00 -4.000e+00 -4.000e+00 -4.000e+00 -4.000e+00 -4.000e+00
           </DataArray>
           <DataArray type="Float32" Name="nitrate/Cmin" NumberOfComponents="1" format="ascii">
 1.000e-03 1.000e-03 1.000e-03 1.000e-03 1.000e-03 1.000e-03 1.000e-03 1.000e-03 1.000e-03 1.000e-03 1.000e-03 1.000e-03 1.000e-03 1.000e-03 1.000e-03 1.000e-03 1.000e-03 1.000e-03 1.000e-03 1.000e-03 1.000e-03 1.000e-03 1.000e-03 1.000e-03
           </DataArray>
           <DataArray type="Float32" Name="nitrate/Imax" NumberOfComponents="1" format="ascii">
 1.900e+00 1.900e+00 1.900e+00 1.900e+00 1.900e+00 1.900e+00 1.900e+00 1.900e+00 1.900e+00 1.900e+00 1.900e+00 1.900e+00 1.900e+00 1.900e+00 1.900e+00 1.900e+00 1.900e+00 1.900e+00 1.900e+00 1.900e+00 1.900e+00 1.900e+00 1.900e+00 1.900e+00
           </DataArray>
           <DataArray type="Float32" Name="nitrate/Km" NumberOfComponents="1" format="ascii">
 1.610e-02 1.610e-02 1.610e-02 1.610e-02 1.610e-02 1.610e-02 1.610e-02 1.610e-02 1.610e-02 1.610e-02 1.610e-02 1.610e-02 1.610e-02 1.610e-02 1.610e-02 1.610e-02 1.610e-02 1.610e-02 1.610e-02 1.610e-02 1.610e-02 1.610e-02 1.610e-02 1.610e-02
           </DataArray>
           <DataArray type="Float32" Name="nitrate/minimalNutrientConcentration" NumberOfComponents="1" format="ascii">
 6.000e+02 6.000e+02 6.000e+02 6.000e+02 6.000e+02 6.000e+02 6.000e+02 6.000e+02 6.000e+02 6.000e+02 6.000e+02 6.000e+02 6.000e+02 6.000e+02 6.000e+02 6.000e+02 6.000e+02 6.000e+02 6.000e+02 6.000e+02 6.000e+02 6.000e+02 6.000e+02 6.000e+02
           </DataArray>
           <DataArray type="Float32" Name="nitrate/nutrientConcentrationAtTheRootSurface" NumberOfComponents="1" format="ascii">
 3.198e-01 2.789e-01 2.448e-01 1.834e-01 1.554e-01 1.237e-01 8.328e-02 0.000e+00 0.000e+00 0.000e+00 3.198e-01 3.483e-01 3.722e-01 3.936e-01 4.245e-01 4.536e-01 4.732e-01 4.854e-01 5.119e-01 5.274e-01 5.257e-01 5.425e-01 5.660e-01 6.152e-01
           </DataArray>
           <DataArray type="Float32" Name="nitrate/optimalNutrientConcentration" NumberOfComponents="1" format="ascii">
 1.200e+03 1.200e+03 1.200e+03 1.200e+03 1.200e+03 1.200e+03 1.200e+03 1.200e+03 1.200e+03 1.200e+03 1.200e+03 1.200e+03 1.200e+03 1.200e+03 1.200e+03 1.200e+03 1.200e+03 1.200e+03 1.200e+03 1.200e+03 1.200e+03 1.200e+03 1.200e+03 1.200e+03
           </DataArray>
           <DataArray type="Float32" Name="nitrate/rootSegmentMinimalNutrientContent" NumberOfComponents="1" format="ascii">
 5.503e+00 5.022e+00 8.407e+00 4.326e+00 4.316e+00 6.459e+00 6.154e+00 6.281e+00 6.238e+00 1.089e+00 2.768e-01 2.734e-01 2.703e-01 2.674e-01 2.649e-01 2.626e-01 2.606e-01 2.588e-01 2.573e-01 2.561e-01 2.551e-01 2.544e-01 2.539e-01 8.457e-02
           </DataArray>
           <DataArray type="Float32" Name="nitrate/rootSegmentNutrientUptake" NumberOfComponents="1" format="ascii">
 0.000e+00 4.487e-01 3.887e-01 2.871e-01 2.327e-01 1.718e-01 8.067e-02 0.000e+00 0.000e+00 0.000e+00 0.000e+00 5.183e-01 5.004e-01 4.789e-01 4.657e-01 4.456e-01 4.104e-01 3.652e-01 3.217e-01 2.672e-01 2.030e-01 1.441e-01 7.867e-02 1.234e-02
           </DataArray>
           <DataArray type="Float32" Name="nitrate/rootSegmentOptimalNutrientContent" NumberOfComponents="1" format="ascii">
 1.101e+01 1.004e+01 1.681e+01 8.651e+00 8.631e+00 1.292e+01 1.231e+01 1.256e+01 1.248e+01 2.178e+00 5.535e-01 5.467e-01 5.405e-01 5.349e-01 5.298e-01 5.252e-01 5.212e-01 5.176e-01 5.147e-01 5.122e-01 5.102e-01 5.088e-01 5.079e-01 1.691e-01
           </DataArray>
           <DataArray type="Float32" Name="parentRootClassID" NumberOfComponents="1" format="ascii">
 -3.000e+00 -3.000e+00 -3.000e+00 -3.000e+00 -3.000e+00 -3.000e+00 -3.000e+00 -3.000e+00 -3.000e+00 -3.000e+00 -3.000e+00 -3.000e+00 -3.000e+00 -3.000e+00 -3.000e+00 -3.000e+00 -3.000e+00 -3.000e+00 -3.000e+00 -3.000e+00 -3.000e+00 -3.000e+00 -3.000e+00 -3.000e+00
           </DataArray>
           <DataArray type="Float32" Name="plantID" NumberOfComponents="1" format="ascii">
 5.000e+00 5.000e+00 5.000e+00 5.000e+00 5.000e+00 5.000e+00 5.000e+00 5.000e+00 5.000e+00 5.000e+00 5.000e+00 5.000e+00 5.000e+00 5.000e+00 5.000e+00 5.000e+00 5.000e+00 5.000e+00 5.000e+00 5.000e+00 5.000e+00 5.000e+00 5.000e+00 5.000e+00
           </DataArray>
           <DataArray type="Float32" Name="plantTypeID" NumberOfComponents="1" format="ascii">
 0.000e+00 0.000e+00 0.000e+00 0.000e+00 0.000e+00 0.000e+00 0.000e+00 0.000e+00 0.000e+00 0.000e+00 0.000e+00 0.000e+00 0.000e+00 0.000e+00 0.000e+00 0.000e+00 0.000e+00 0.000e+00 0.000e+00 0.000e+00 0.000e+00 0.000e+00 0.000e+00 0.000e+00
           </DataArray>
           <DataArray type="Float32" Name="rootCircumference" NumberOfComponents="1" format="ascii">
 1.279e+00 1.273e+00 1.271e+00 1.267e+00 1.266e+00 1.265e+00 1.263e+00 1.261e+00 1.259e+00 1.257e+00 2.953e-01 2.935e-01 2.918e-01 2.903e-01 2.889e-01 2.877e-01 2.865e-01 2.856e-01 2.848e-01 2.841e-01 2.835e-01 2.831e-01 2.829e-01 2.828e-01
           </DataArray>
           <DataArray type="Float32" Name="rootClassID" NumberOfComponents="1" format="ascii">
 -2.000e+00 -2.000e+00 -2.000e+00 -2.000e+00 -2.000e+00 -2.000e+00 -2.000e+00 -2.000e+00 -2.000e+00 -2.000e+00 -4.000e+00 -4.000e+00 -4.000e+00 -4.000e+00 -4.000e+00 -4.000e+00 -4.000e+00 -4.000e+00 -4.000e+00 -4.000e+00 -4.000e+00 -4.000e+00 -4.000e+00 -4.000e+00
           </DataArray>
           <DataArray type="Float32" Name="rootDiameter" NumberOfComponents="1" format="ascii">
 4.070e-01 4.054e-01 4.045e-01 4.034e-01 4.030e-01 4.025e-01 4.019e-01 4.014e-01 4.009e-01 4.001e-01 9.400e-02 9.342e-02 9.289e-02 9.240e-02 9.196e-02 9.156e-02 9.121e-02 9.090e-02 9.064e-02 9.042e-02 9.025e-02 9.012e-02 9.004e-02 9.000e-02
           </DataArray>
           <DataArray type="Float32" Name="rootHairDensity" NumberOfComponents="1" format="ascii">
 0.000e+00 0.000e+00 0.000e+00 0.000e+00 0.000e+00 0.000e+00 0.000e+00 0.000e+00 0.000e+00 0.000e+00 2.000e+03 2.000e+03 2.000e+03 2.000e+03 2.000e+03 2.000e+03 2.000e+03 2.000e+03 2.000e+03 2.000e+03 2.000e+03 2.000e+03 2.000e+03 2.000e+03
           </DataArray>
           <DataArray type="Float32" Name="rootHairDiameter" NumberOfComponents="1" format="ascii">
 5.000e-04 5.000e-04 5.000e-04 5.000e-04 5.000e-04 5.000e-04 5.000e-04 5.000e-04 5.000e-04 5.000e-04 5.000e-04 5.000e-04 5.000e-04 5.000e-04 5.000e-04 5.000e-04 5.000e-04 5.000e-04 5.000e-04 5.000e-04 5.000e-04 5.000e-04 5.000e-04 5.000e-04
           </DataArray>
           <DataArray type="Float32" Name="rootHairLength" NumberOfComponents="1" format="ascii">
 3.000e-02 3.000e-02 3.000e-02 3.000e-02 3.000e-02 3.000e-02 3.000e-02 2.400e-02 1.200e-02 0.000e+00 3.000e-02 3.000e-02 3.000e-02 3.000e-02 3.000e-02 3.000e-02 3.000e-02 2.700e-02 1.800e-02 9.000e-03 0.000e+00 0.000e+00 0.000e+00 0.000e+00
           </DataArray>
           <DataArray type="Float32" Name="rootHairSurfaceArea" NumberOfComponents="1" format="ascii">
 0.000e+00 0.000e+00 0.000e+00 0.000e+00 0.000e+00 0.000e+00 0.000e+00 0.000e+00 0.000e+00 0.000e+00 9.425e-02 9.425e-02 9.425e-02 9.425e-02 9.425e-02 9.425e-02 9.425e-02 8.482e-02 5.655e-02 2.827e-02 0.000e+00 0.000e+00 0.000e+00 0.000e+00
           </DataArray>
           <DataArray type="Float32" Name="rootLength2Base" NumberOfComponents="1" format="ascii">
 0.000e+00 7.500e-01 1.440e+00 2.600e+00 3.200e+00 3.800e+00 4.700e+00 5.560e+00 6.440e+00 7.316e+00 0.000e+00 7.071e-01 1.414e+00 2.121e+00 2.828e+00 3.535e+00 4.243e+00 4.950e+00 5.657e+00 6.364e+00 7.071e+00 7.778e+00 8.485e+00 9.192e+00
           </DataArray>
           <DataArray type="Float32" Name="rootPotentialSecondaryGrowth" NumberOfComponents="1" format="ascii">
 4.070e-01 4.054e-01 4.045e-01 4.034e-01 4.030e-01 4.025e-01 4.019e-01 4.014e-01 4.009e-01 4.001e-01 9.400e-02 9.342e-02 9.289e-02 9.240e-02 9.196e-02 9.156e-02 9.121e-02 9.090e-02 9.064e-02 9.042e-02 9.025e-02 9.012e-02 9.004e-02 9.000e-02
           </DataArray>
           <DataArray type="Float32" Name="rootSegmentAge" NumberOfComponents="1" format="ascii">
 4.000e+00 3.500e+00 3.200e+00 2.800e+00 2.600e+00 2.400e+00 2.100e+00 1.800e+00 1.400e+00 5.000e-01 4.000e+00 3.700e+00 3.400e+00 3.100e+00 2.800e+00 2.500e+00 2.200e+00 1.900e+00 1.600e+00 1.300e+00 1.000e+00 7.000e-01 4.000e-01 1.000e-01
           </DataArray>
           <DataArray type="Float32" Name="rootSegmentCarbonCostOfExudates" NumberOfComponents="1" format="ascii">
 0.000e+00 0.000e+00 0.000e+00 0.000e+00 0.000e+00 0.000e+00 0.000e+00 0.000e+00 0.000e+00 0.000e+00 4.469e-05 4.143e-05 3.814e-05 3.455e-05 3.106e-05 2.752e-05 2.422e-05 2.087e-05 1.770e-05 1.425e-05 1.081e-05 7.083e-06 3.355e-06 2.239e-07
           </DataArray>
           <DataArray type="Float32" Name="rootSegmentDryWeight" NumberOfComponents="1" format="ascii">
 9.172e-03 8.370e-03 1.401e-02 7.210e-03 7.193e-03 1.077e-02 1.026e-02 1.047e-02 1.040e-02 1.815e-03 4.613e-04 4.556e-04 4.504e-04 4.457e-04 4.415e-04 4.377e-04 4.343e-04 4.314e-04 4.289e-04 4.268e-04 4.252e-04 4.240e-04 4.232e-04 1.410e-04
           </DataArray>
           <DataArray type="Float32" Name="rootSegmentLength" NumberOfComponents="1" format="ascii">
 7.500e-01 6.900e-01 1.160e+00 6.000e-01 6.000e-01 9.000e-01 8.600e-01 8.800e-01 8.764e-01 1.536e-01 7.071e-01 7.071e-01 7.071e-01 7.071e-01 7.071e-01 7.071e-01 7.071e-01 7.071e-01 7.071e-01 7.071e-01 7.071e-01 7.071e-01 7.071e-01 2.357e-01
           </DataArray>
           <DataArray type="Float32" Name="rootSegmentLengthDuration" NumberOfComponents="1" format="ascii">
 2.795e+00 2.311e+00 3.475e+00 1.620e+00 1.500e+00 2.030e+00 1.685e+00 1.419e+00 9.335e-01 4.388e-02 2.726e+00 2.514e+00 2.302e+00 2.090e+00 1.878e+00 1.666e+00 1.453e+00 1.241e+00 1.029e+00 8.171e-01 6.050e-01 3.928e-01 1.807e-01 2.357e-02
           </DataArray>
           <DataArray type="Float32" Name="rootSegmentRespiration" NumberOfComponents="1" format="ascii">
 3.669e-04 3.348e-04 5.604e-04 2.884e-04 2.877e-04 4.306e-04 4.103e-04 4.711e-04 5.718e-04 1.407e-04 1.845e-05 1.822e-05 1.802e-05 1.783e-05 1.766e-05 1.751e-05 1.737e-05 1.833e-05 2.144e-05 2.454e-05 2.764e-05 3.074e-05 3.386e-05 1.233e-05
           </DataArray>
           <DataArray type="Float32" Name="rootSegmentSecondaryPotentialCarbonSinkForGrowth" NumberOfComponents="1" format="ascii">
 1.239e-04 9.071e-05 1.223e-04 5.111e-05 4.379e-05 5.323e-05 3.820e-05 2.641e-05 1.039e-05 1.618e-07 1.603e-05 1.359e-05 1.136e-05 9.334e-06 7.515e-06 5.899e-06 4.482e-06 3.262e-06 2.239e-06 1.410e-06 7.729e-07 3.280e-07 7.402e-08 1.175e-09
           </DataArray>
           <DataArray type="Float32" Name="rootSegmentSurfaceArea" NumberOfComponents="1" format="ascii">
 9.590e-01 8.787e-01 1.474e+00 7.604e-01 7.596e-01 1.138e+00 1.086e+00 1.110e+00 1.104e+00 1.930e-01 2.088e-01 2.075e-01 2.063e-01 2.053e-01 2.043e-01 2.034e-01 2.026e-01 2.019e-01 2.013e-01 2.009e-01 2.005e-01 2.002e-01 2.000e-01 6.664e-02
           </DataArray>
           <DataArray type="Float32" Name="rootSegmentVolume" NumberOfComponents="1" format="ascii">
 9.758e-02 8.905e-02 1.491e-01 7.670e-02 7.652e-02 1.145e-01 1.091e-01 1.114e-01 1.106e-01 1.931e-02 4.907e-03 4.847e-03 4.792e-03 4.742e-03 4.696e-03 4.656e-03 4.620e-03 4.589e-03 4.563e-03 4.541e-03 4.523e-03 4.511e-03 4.502e-03 1.500e-03
           </DataArray>
           <DataArray type="Float32" Name="rootSegmentWaterUptake" NumberOfComponents="1" format="ascii">
 2.837e-02 2.610e-02 4.388e-02 2.269e-02 2.269e-02 3.404e-02 3.251e-02 0.000e+00 0.000e+00 0.000e+00 2.675e-02 2.675e-02 2.675e-02 2.675e-02 2.675e-02 2.675e-02 2.675e-02 2.661e-02 2.592e-02 2.400e-02 2.064e-02 1.533e-02 7.959e-03 5.638e-04
           </DataArray>
           <DataArray type="Float32" Name="spatialRootDensity" NumberOfComponents="1" format="ascii">
 3.376e-01 1.688e-01 0.000e+00 0.000e+00 0.000e+00 0.000e+00 0.000e+00 0.000e+00 0.000e+00 0.000e+00 3.438e-01 1.790e-01 0.000e+00 0.000e+00 0.000e+00 0.000e+00 0.000e+00 0.000e+00 0.000e+00 0.000e+00 0.000e+00 0.000e+00 0.000e+00 0.000e+00
           </DataArray>
           <DataArray type="Float32" Name="volumetricWaterContentAtTheRootSurface" NumberOfComponents="1" format="ascii">
 1.939e-01 1.939e-01 1.939e-01 1.939e-01 1.939e-01 1.939e-01 1.939e-01 0.000e+00 0.000e+00 0.000e+00 1.939e-01 1.939e-01 1.939e-01 1.939e-01 1.939e-01 1.939e-01 1.939e-01 1.939e-01 1.939e-01 1.939e-01 1.938e-01 1.938e-01 1.938e-01 1.938e-01
           </DataArray>
         </CellData>
      </Piece>
   </UnstructuredGrid>
</VTKFile>
