<?xml version="1.0"?>
<VTKFile type="UnstructuredGrid" version="0.1" byte_order="LittleEndian">
   <UnstructuredGrid>
      <Piece NumberOfPoints="160" NumberOfCells="14">
         <Points>
            <DataArray type="Float32" Name="Position" NumberOfComponents="3" format="ascii">
-0.144	-4.997	0.140
-0.034	-4.996	0.198
0.089	-4.997	0.180
0.178	-4.999	0.093
0.199	-5.001	-0.029
0.144	-5.003	-0.140
0.034	-5.004	-0.198
-0.089	-5.003	-0.180
-0.178	-5.001	-0.093
-0.199	-4.999	0.029
-0.140	-4.248	0.125
-0.030	-4.248	0.182
0.093	-4.248	0.164
0.181	-4.250	0.077
0.201	-4.251	-0.045
0.146	-4.252	-0.156
0.036	-4.253	-0.213
-0.087	-4.252	-0.195
-0.175	-4.251	-0.108
-0.195	-4.250	0.015
-0.139	-3.560	0.124
-0.029	-3.560	0.181
0.093	-3.560	0.161
0.181	-3.560	0.074
0.201	-3.561	-0.048
0.145	-3.561	-0.159
0.035	-3.561	-0.215
-0.088	-3.561	-0.196
-0.175	-3.560	-0.109
-0.195	-3.560	0.014
-0.137	-2.400	0.119
-0.027	-2.400	0.175
0.096	-2.400	0.156
0.183	-2.401	0.069
0.203	-2.401	-0.053
0.147	-2.401	-0.163
0.037	-2.401	-0.220
-0.086	-2.400	-0.201
-0.173	-2.400	-0.113
-0.193	-2.400	0.009
-0.134	-1.801	0.121
-0.024	-1.801	0.177
0.098	-1.801	0.157
0.186	-1.801	0.070
0.205	-1.800	-0.052
0.148	-1.800	-0.162
0.038	-1.800	-0.218
-0.084	-1.800	-0.199
-0.171	-1.800	-0.111
-0.190	-1.800	0.011
-0.136	-1.201	0.123
-0.025	-1.201	0.179
0.097	-1.200	0.159
0.184	-1.200	0.072
0.203	-1.200	-0.050
0.147	-1.200	-0.160
0.037	-1.200	-0.216
-0.085	-1.200	-0.197
-0.173	-1.200	-0.109
-0.192	-1.201	0.013
-0.137	-0.300	0.121
-0.027	-0.300	0.177
0.096	-0.300	0.158
0.183	-0.300	0.071
0.203	-0.301	-0.051
0.147	-0.301	-0.161
0.037	-0.301	-0.217
-0.085	-0.301	-0.198
-0.173	-0.300	-0.111
-0.192	-0.300	0.011
-0.136	0.001	0.119
-0.026	0.001	0.176
0.096	0.000	0.157
0.184	-0.000	0.070
0.204	-0.001	-0.052
0.148	-0.002	-0.163
0.038	-0.002	-0.219
-0.084	-0.001	-0.200
-0.172	-0.000	-0.113
-0.191	0.001	0.009
0.032	-4.999	-0.033
0.045	-4.997	-0.008
0.041	-4.996	0.020
0.021	-4.997	0.040
-0.007	-4.998	0.045
-0.032	-5.001	0.033
-0.045	-5.003	0.008
-0.041	-5.004	-0.020
-0.021	-5.003	-0.040
0.007	-5.002	-0.045
0.086	-5.703	-0.001
0.099	-5.702	0.024
0.095	-5.702	0.052
0.075	-5.702	0.072
0.048	-5.703	0.076
0.023	-5.705	0.064
0.010	-5.706	0.039
0.014	-5.706	0.011
0.033	-5.706	-0.009
0.061	-5.705	-0.013
0.096	-6.412	0.004
0.108	-6.412	0.029
0.103	-6.412	0.057
0.083	-6.411	0.076
0.055	-6.410	0.080
0.030	-6.410	0.067
0.018	-6.409	0.042
0.023	-6.410	0.014
0.043	-6.410	-0.005
0.071	-6.411	-0.009
0.044	-7.118	0.007
0.056	-7.119	0.032
0.051	-7.119	0.060
0.031	-7.118	0.079
0.003	-7.116	0.082
-0.021	-7.114	0.069
-0.033	-7.113	0.044
-0.028	-7.113	0.016
-0.008	-7.114	-0.003
0.020	-7.116	-0.006
0.001	-7.824	-0.016
0.013	-7.825	0.010
0.007	-7.824	0.037
-0.013	-7.822	0.056
-0.041	-7.820	0.059
-0.065	-7.819	0.045
-0.077	-7.818	0.020
-0.071	-7.819	-0.007
-0.051	-7.820	-0.026
-0.023	-7.822	-0.029
-0.056	-8.530	0.020
-0.045	-8.529	0.046
-0.051	-8.526	0.073
-0.072	-8.523	0.091
-0.100	-8.521	0.093
-0.124	-8.520	0.078
-0.135	-8.521	0.053
-0.128	-8.524	0.026
-0.107	-8.527	0.008
-0.080	-8.529	0.006
-0.103	-9.230	0.099
-0.093	-9.228	0.124
-0.099	-9.224	0.151
-0.120	-9.221	0.169
-0.147	-9.220	0.172
-0.171	-9.221	0.157
-0.182	-9.224	0.132
-0.176	-9.227	0.105
-0.155	-9.230	0.087
-0.127	-9.231	0.085
-0.106	-9.697	0.158
-0.095	-9.694	0.183
-0.101	-9.691	0.210
-0.122	-9.688	0.228
-0.149	-9.688	0.231
-0.173	-9.689	0.217
-0.184	-9.693	0.192
-0.179	-9.696	0.165
-0.158	-9.698	0.146
-0.130	-9.699	0.144
		    </DataArray>
         </Points>
         <Cells>
            <DataArray type="Int32" Name="connectivity" NumberOfComponents="1" format="ascii">
 0 10 1 11 2 12 3 13 4 14 5 15 6 16 7 17 8 18 9 19 0 10
 10 20 11 21 12 22 13 23 14 24 15 25 16 26 17 27 18 28 19 29 10 20
 20 30 21 31 22 32 23 33 24 34 25 35 26 36 27 37 28 38 29 39 20 30
 30 40 31 41 32 42 33 43 34 44 35 45 36 46 37 47 38 48 39 49 30 40
 40 50 41 51 42 52 43 53 44 54 45 55 46 56 47 57 48 58 49 59 40 50
 50 60 51 61 52 62 53 63 54 64 55 65 56 66 57 67 58 68 59 69 50 60
 60 70 61 71 62 72 63 73 64 74 65 75 66 76 67 77 68 78 69 79 60 70
 80 90 81 91 82 92 83 93 84 94 85 95 86 96 87 97 88 98 89 99 80 90
 90 100 91 101 92 102 93 103 94 104 95 105 96 106 97 107 98 108 99 109 90 100
 100 110 101 111 102 112 103 113 104 114 105 115 106 116 107 117 108 118 109 119 100 110
 110 120 111 121 112 122 113 123 114 124 115 125 116 126 117 127 118 128 119 129 110 120
 120 130 121 131 122 132 123 133 124 134 125 135 126 136 127 137 128 138 129 139 120 130
 130 140 131 141 132 142 133 143 134 144 135 145 136 146 137 147 138 148 139 149 130 140
 140 150 141 151 142 152 143 153 144 154 145 155 146 156 147 157 148 158 149 159 140 150

            </DataArray>
            <DataArray type="Int32" Name="offsets" NumberOfComponents="1" format="ascii">
 22 44 66 88 110 132 154 176 198 220 242 264 286 308
            </DataArray>
            <DataArray type="UInt8"  Name="types" NumberOfComponents="1" format="ascii">
6 6 6 6 6 6 6 6 6 6 6 6 6 6
            </DataArray>
         </Cells>
         <CellData>
           <DataArray type="Float32" Name="combinedRootClassID" NumberOfComponents="1" format="ascii">
 -2.000e+00 -2.000e+00 -2.000e+00 -2.000e+00 -2.000e+00 -2.000e+00 -2.000e+00 -4.000e+00 -4.000e+00 -4.000e+00 -4.000e+00 -4.000e+00 -4.000e+00 -4.000e+00
           </DataArray>
           <DataArray type="Float32" Name="nitrate/Cmin" NumberOfComponents="1" format="ascii">
 1.000e-03 1.000e-03 1.000e-03 1.000e-03 1.000e-03 1.000e-03 1.000e-03 1.000e-03 1.000e-03 1.000e-03 1.000e-03 1.000e-03 1.000e-03 1.000e-03
           </DataArray>
           <DataArray type="Float32" Name="nitrate/Imax" NumberOfComponents="1" format="ascii">
 1.900e+00 1.900e+00 1.900e+00 1.900e+00 1.900e+00 1.900e+00 1.900e+00 1.900e+00 1.900e+00 1.900e+00 1.900e+00 1.900e+00 1.900e+00 1.900e+00
           </DataArray>
           <DataArray type="Float32" Name="nitrate/Km" NumberOfComponents="1" format="ascii">
 1.610e-02 1.610e-02 1.610e-02 1.610e-02 1.610e-02 1.610e-02 1.610e-02 1.610e-02 1.610e-02 1.610e-02 1.610e-02 1.610e-02 1.610e-02 1.610e-02
           </DataArray>
           <DataArray type="Float32" Name="nitrate/minimalNutrientConcentration" NumberOfComponents="1" format="ascii">
 6.000e+02 6.000e+02 6.000e+02 6.000e+02 6.000e+02 6.000e+02 6.000e+02 6.000e+02 6.000e+02 6.000e+02 6.000e+02 6.000e+02 6.000e+02 6.000e+02
           </DataArray>
           <DataArray type="Float32" Name="nitrate/nutrientConcentrationAtTheRootSurface" NumberOfComponents="1" format="ascii">
 3.902e-01 3.907e-01 3.985e-01 4.106e-01 4.089e-01 4.162e-01 3.595e-01 3.902e-01 3.769e-01 3.756e-01 3.748e-01 4.016e-01 4.435e-01 4.799e-01
           </DataArray>
           <DataArray type="Float32" Name="nitrate/optimalNutrientConcentration" NumberOfComponents="1" format="ascii">
 1.200e+03 1.200e+03 1.200e+03 1.200e+03 1.200e+03 1.200e+03 1.200e+03 1.200e+03 1.200e+03 1.200e+03 1.200e+03 1.200e+03 1.200e+03 1.200e+03
           </DataArray>
           <DataArray type="Float32" Name="nitrate/rootSegmentMinimalNutrientContent" NumberOfComponents="1" format="ascii">
 5.362e+00 4.914e+00 8.247e+00 4.258e+00 4.256e+00 6.381e+00 2.126e+00 2.594e-01 2.578e-01 2.565e-01 2.554e-01 2.546e-01 2.541e-01 1.692e-01
           </DataArray>
           <DataArray type="Float32" Name="nitrate/rootSegmentNutrientUptake" NumberOfComponents="1" format="ascii">
 0.000e+00 1.948e-01 1.625e-01 1.167e-01 8.927e-02 6.337e-02 1.595e-02 0.000e+00 2.153e-01 1.805e-01 1.459e-01 1.151e-01 7.769e-02 2.975e-02
           </DataArray>
           <DataArray type="Float32" Name="nitrate/rootSegmentOptimalNutrientContent" NumberOfComponents="1" format="ascii">
 1.072e+01 9.829e+00 1.649e+01 8.517e+00 8.512e+00 1.276e+01 4.253e+00 5.188e-01 5.156e-01 5.130e-01 5.108e-01 5.092e-01 5.081e-01 3.384e-01
           </DataArray>
           <DataArray type="Float32" Name="parentRootClassID" NumberOfComponents="1" format="ascii">
 -3.000e+00 -3.000e+00 -3.000e+00 -3.000e+00 -3.000e+00 -3.000e+00 -3.000e+00 -3.000e+00 -3.000e+00 -3.000e+00 -3.000e+00 -3.000e+00 -3.000e+00 -3.000e+00
           </DataArray>
           <DataArray type="Float32" Name="plantID" NumberOfComponents="1" format="ascii">
 3.000e+00 3.000e+00 3.000e+00 3.000e+00 3.000e+00 3.000e+00 3.000e+00 3.000e+00 3.000e+00 3.000e+00 3.000e+00 3.000e+00 3.000e+00 3.000e+00
           </DataArray>
           <DataArray type="Float32" Name="plantTypeID" NumberOfComponents="1" format="ascii">
 0.000e+00 0.000e+00 0.000e+00 0.000e+00 0.000e+00 0.000e+00 0.000e+00 0.000e+00 0.000e+00 0.000e+00 0.000e+00 0.000e+00 0.000e+00 0.000e+00
           </DataArray>
           <DataArray type="Float32" Name="rootCircumference" NumberOfComponents="1" format="ascii">
 1.262e+00 1.260e+00 1.259e+00 1.258e+00 1.257e+00 1.257e+00 1.257e+00 2.859e-01 2.850e-01 2.843e-01 2.837e-01 2.832e-01 2.829e-01 2.828e-01
           </DataArray>
           <DataArray type="Float32" Name="rootClassID" NumberOfComponents="1" format="ascii">
 -2.000e+00 -2.000e+00 -2.000e+00 -2.000e+00 -2.000e+00 -2.000e+00 -2.000e+00 -4.000e+00 -4.000e+00 -4.000e+00 -4.000e+00 -4.000e+00 -4.000e+00 -4.000e+00
           </DataArray>
           <DataArray type="Float32" Name="rootDiameter" NumberOfComponents="1" format="ascii">
 4.018e-01 4.010e-01 4.006e-01 4.003e-01 4.002e-01 4.001e-01 4.000e-01 9.100e-02 9.072e-02 9.049e-02 9.030e-02 9.016e-02 9.006e-02 9.001e-02
           </DataArray>
           <DataArray type="Float32" Name="rootHairDensity" NumberOfComponents="1" format="ascii">
 0.000e+00 0.000e+00 0.000e+00 0.000e+00 0.000e+00 0.000e+00 0.000e+00 2.000e+03 2.000e+03 2.000e+03 2.000e+03 2.000e+03 2.000e+03 2.000e+03
           </DataArray>
           <DataArray type="Float32" Name="rootHairDiameter" NumberOfComponents="1" format="ascii">
 5.000e-04 5.000e-04 5.000e-04 5.000e-04 5.000e-04 5.000e-04 5.000e-04 5.000e-04 5.000e-04 5.000e-04 5.000e-04 5.000e-04 5.000e-04 5.000e-04
           </DataArray>
           <DataArray type="Float32" Name="rootHairLength" NumberOfComponents="1" format="ascii">
 3.000e-02 1.500e-02 6.000e-03 0.000e+00 0.000e+00 0.000e+00 0.000e+00 3.000e-02 2.100e-02 1.200e-02 3.000e-03 0.000e+00 0.000e+00 0.000e+00
           </DataArray>
           <DataArray type="Float32" Name="rootHairSurfaceArea" NumberOfComponents="1" format="ascii">
 0.000e+00 0.000e+00 0.000e+00 0.000e+00 0.000e+00 0.000e+00 0.000e+00 9.425e-02 6.597e-02 3.770e-02 9.425e-03 0.000e+00 0.000e+00 0.000e+00
           </DataArray>
           <DataArray type="Float32" Name="rootLength2Base" NumberOfComponents="1" format="ascii">
 0.000e+00 7.500e-01 1.440e+00 2.600e+00 3.200e+00 3.800e+00 4.700e+00 0.000e+00 7.071e-01 1.414e+00 2.121e+00 2.828e+00 3.535e+00 4.243e+00
           </DataArray>
           <DataArray type="Float32" Name="rootPotentialSecondaryGrowth" NumberOfComponents="1" format="ascii">
 4.018e-01 4.010e-01 4.006e-01 4.003e-01 4.002e-01 4.001e-01 4.000e-01 9.100e-02 9.072e-02 9.049e-02 9.030e-02 9.016e-02 9.006e-02 9.001e-02
           </DataArray>
           <DataArray type="Float32" Name="rootSegmentAge" NumberOfComponents="1" format="ascii">
 2.000e+00 1.500e+00 1.200e+00 8.000e-01 6.000e-01 4.000e-01 1.000e-01 2.000e+00 1.700e+00 1.400e+00 1.100e+00 8.000e-01 5.000e-01 2.000e-01
           </DataArray>
           <DataArray type="Float32" Name="rootSegmentCarbonCostOfExudates" NumberOfComponents="1" format="ascii">
 0.000e+00 0.000e+00 0.000e+00 0.000e+00 0.000e+00 0.000e+00 0.000e+00 2.203e-05 1.872e-05 1.547e-05 1.193e-05 8.390e-06 4.565e-06 8.886e-07
           </DataArray>
           <DataArray type="Float32" Name="rootSegmentDryWeight" NumberOfComponents="1" format="ascii">
 8.937e-03 8.191e-03 1.375e-02 7.097e-03 7.093e-03 1.063e-02 3.544e-03 4.323e-04 4.297e-04 4.275e-04 4.257e-04 4.244e-04 4.234e-04 2.820e-04
           </DataArray>
           <DataArray type="Float32" Name="rootSegmentLength" NumberOfComponents="1" format="ascii">
 7.500e-01 6.900e-01 1.160e+00 6.000e-01 6.000e-01 9.000e-01 3.000e-01 7.071e-01 7.071e-01 7.071e-01 7.071e-01 7.071e-01 7.071e-01 4.714e-01
           </DataArray>
           <DataArray type="Float32" Name="rootSegmentLengthDuration" NumberOfComponents="1" format="ascii">
 1.295e+00 9.313e-01 1.155e+00 4.200e-01 3.000e-01 2.300e-01 2.983e-02 1.312e+00 1.100e+00 8.878e-01 6.757e-01 4.635e-01 2.514e-01 4.714e-02
           </DataArray>
           <DataArray type="Float32" Name="rootSegmentRespiration" NumberOfComponents="1" format="ascii">
 3.575e-04 4.300e-04 8.247e-04 4.968e-04 5.320e-04 8.508e-04 3.101e-04 1.729e-05 2.041e-05 2.351e-05 2.661e-05 2.970e-05 3.282e-05 2.397e-05
           </DataArray>
           <DataArray type="Float32" Name="rootSegmentSecondaryPotentialCarbonSinkForGrowth" NumberOfComponents="1" format="ascii">
 2.690e-05 1.469e-05 1.367e-05 3.443e-06 1.768e-06 7.326e-07 1.163e-08 3.647e-06 2.558e-06 1.665e-06 9.637e-07 4.550e-07 1.375e-07 9.397e-09
           </DataArray>
           <DataArray type="Float32" Name="rootSegmentSurfaceArea" NumberOfComponents="1" format="ascii">
 9.466e-01 8.692e-01 1.460e+00 7.545e-01 7.543e-01 1.131e+00 3.770e-01 2.021e-01 2.015e-01 2.010e-01 2.006e-01 2.003e-01 2.001e-01 1.333e-01
           </DataArray>
           <DataArray type="Float32" Name="rootSegmentVolume" NumberOfComponents="1" format="ascii">
 9.507e-02 8.714e-02 1.462e-01 7.550e-02 7.546e-02 1.131e-01 3.770e-02 4.599e-03 4.571e-03 4.547e-03 4.529e-03 4.514e-03 4.505e-03 3.000e-03
           </DataArray>
           <DataArray type="Float32" Name="rootSegmentWaterUptake" NumberOfComponents="1" format="ascii">
 0.000e+00 0.000e+00 0.000e+00 0.000e+00 0.000e+00 0.000e+00 0.000e+00 0.000e+00 0.000e+00 0.000e+00 0.000e+00 0.000e+00 0.000e+00 0.000e+00
           </DataArray>
           <DataArray type="Float32" Name="spatialRootDensity" NumberOfComponents="1" format="ascii">
 3.376e-01 1.688e-01 0.000e+00 0.000e+00 0.000e+00 0.000e+00 0.000e+00 3.438e-01 1.790e-01 0.000e+00 0.000e+00 0.000e+00 0.000e+00 0.000e+00
           </DataArray>
           <DataArray type="Float32" Name="volumetricWaterContentAtTheRootSurface" NumberOfComponents="1" format="ascii">
 1.820e-01 1.820e-01 1.819e-01 1.818e-01 1.817e-01 1.817e-01 1.816e-01 1.820e-01 1.821e-01 1.822e-01 1.822e-01 1.823e-01 1.823e-01 1.824e-01
           </DataArray>
         </CellData>
      </Piece>
   </UnstructuredGrid>
</VTKFile>
