<?xml version="1.0"?>
<VTKFile type="UnstructuredGrid" version="0.1" byte_order="LittleEndian">
   <UnstructuredGrid>
      <Piece NumberOfPoints="2630" NumberOfCells="187">
         <Points>
            <DataArray type="Float32" Name="Position" NumberOfComponents="3" format="ascii">
-0.011	-4.962	-0.017
0.010	-4.960	-0.014
0.027	-4.970	-0.006
0.034	-4.987	0.004
0.028	-5.005	0.012
0.011	-5.018	0.016
-0.009	-5.020	0.013
-0.027	-5.010	0.005
-0.033	-4.993	-0.005
-0.028	-4.975	-0.013
0.120	-5.323	-0.714
0.141	-5.323	-0.710
0.156	-5.333	-0.699
0.161	-5.350	-0.687
0.152	-5.366	-0.677
0.134	-5.377	-0.674
0.114	-5.377	-0.679
0.098	-5.367	-0.689
0.094	-5.350	-0.701
0.103	-5.334	-0.711
0.308	-5.901	-1.365
0.327	-5.903	-1.357
0.339	-5.913	-1.343
0.338	-5.928	-1.328
0.325	-5.941	-1.317
0.305	-5.947	-1.315
0.286	-5.945	-1.323
0.274	-5.935	-1.337
0.275	-5.920	-1.353
0.288	-5.907	-1.363
0.424	-6.438	-1.783
0.442	-6.441	-1.772
0.450	-6.451	-1.756
0.446	-6.463	-1.739
0.430	-6.473	-1.729
0.410	-6.477	-1.729
0.392	-6.473	-1.740
0.384	-6.463	-1.756
0.388	-6.451	-1.773
0.404	-6.441	-1.783
0.546	-7.126	-2.185
0.563	-7.130	-2.173
0.569	-7.139	-2.155
0.562	-7.149	-2.138
0.545	-7.157	-2.128
0.524	-7.159	-2.130
0.507	-7.155	-2.142
0.501	-7.147	-2.161
0.508	-7.136	-2.178
0.525	-7.128	-2.187
0.628	-7.663	-2.447
0.644	-7.667	-2.434
0.648	-7.675	-2.415
0.640	-7.684	-2.397
0.622	-7.690	-2.389
0.601	-7.691	-2.391
0.586	-7.687	-2.405
0.581	-7.679	-2.424
0.589	-7.670	-2.441
0.607	-7.664	-2.450
0.690	-8.264	-2.696
0.705	-8.268	-2.681
0.709	-8.276	-2.662
0.699	-8.283	-2.645
0.681	-8.289	-2.637
0.660	-8.290	-2.640
0.645	-8.286	-2.655
0.642	-8.279	-2.674
0.651	-8.271	-2.691
0.669	-8.265	-2.699
0.778	-8.919	-2.942
0.793	-8.922	-2.927
0.796	-8.929	-2.907
0.787	-8.937	-2.890
0.768	-8.942	-2.882
0.748	-8.944	-2.886
0.733	-8.941	-2.901
0.730	-8.934	-2.920
0.739	-8.926	-2.937
0.758	-8.921	-2.946
0.831	-9.265	-3.068
0.846	-9.268	-3.053
0.849	-9.275	-3.033
0.840	-9.282	-3.016
0.821	-9.288	-3.008
0.801	-9.290	-3.012
0.786	-9.287	-3.027
0.783	-9.280	-3.047
0.792	-9.272	-3.064
0.811	-9.266	-3.072
0.013	-5.018	0.014
0.003	-5.007	0.029
-0.008	-4.989	0.033
-0.016	-4.972	0.024
-0.018	-4.962	0.005
-0.013	-4.962	-0.015
-0.003	-4.973	-0.030
0.008	-4.991	-0.034
0.016	-5.008	-0.025
0.018	-5.018	-0.006
-0.641	-5.413	-0.149
-0.650	-5.407	-0.131
-0.663	-5.394	-0.122
-0.676	-5.377	-0.125
-0.683	-5.364	-0.140
-0.682	-5.360	-0.161
-0.673	-5.365	-0.179
-0.660	-5.379	-0.188
-0.647	-5.395	-0.185
-0.640	-5.408	-0.170
-1.218	-6.060	-0.276
-1.230	-6.052	-0.261
-1.247	-6.039	-0.257
-1.261	-6.027	-0.266
-1.267	-6.018	-0.284
-1.263	-6.018	-0.305
-1.251	-6.026	-0.320
-1.234	-6.038	-0.324
-1.220	-6.051	-0.315
-1.214	-6.059	-0.296
-1.620	-6.607	-0.352
-1.631	-6.601	-0.335
-1.648	-6.590	-0.329
-1.664	-6.578	-0.336
-1.673	-6.570	-0.353
-1.672	-6.569	-0.374
-1.660	-6.575	-0.391
-1.643	-6.586	-0.397
-1.627	-6.598	-0.390
-1.618	-6.606	-0.372
-2.048	-7.281	-0.393
-2.058	-7.276	-0.375
-2.075	-7.266	-0.368
-2.093	-7.255	-0.374
-2.104	-7.248	-0.390
-2.104	-7.247	-0.411
-2.094	-7.253	-0.429
-2.077	-7.263	-0.436
-2.059	-7.273	-0.430
-2.048	-7.280	-0.414
-2.331	-7.808	-0.398
-2.341	-7.803	-0.380
-2.358	-7.794	-0.371
-2.376	-7.785	-0.376
-2.388	-7.778	-0.392
-2.390	-7.778	-0.413
-2.381	-7.783	-0.431
-2.363	-7.792	-0.439
-2.345	-7.801	-0.434
-2.333	-7.807	-0.419
-2.623	-8.390	-0.389
-2.632	-8.386	-0.371
-2.650	-8.378	-0.362
-2.668	-8.369	-0.366
-2.681	-8.363	-0.382
-2.683	-8.362	-0.402
-2.674	-8.366	-0.421
-2.657	-8.375	-0.430
-2.639	-8.384	-0.426
-2.626	-8.390	-0.410
-2.918	-9.029	-0.388
-2.926	-9.025	-0.369
-2.943	-9.017	-0.359
-2.963	-9.009	-0.362
-2.976	-9.004	-0.377
-2.980	-9.003	-0.398
-2.971	-9.007	-0.417
-2.954	-9.014	-0.426
-2.935	-9.022	-0.423
-2.921	-9.028	-0.409
-3.053	-9.374	-0.398
-3.049	-9.375	-0.377
-3.057	-9.371	-0.358
-3.074	-9.364	-0.348
-3.094	-9.357	-0.350
-3.108	-9.352	-0.365
-3.112	-9.351	-0.385
-3.104	-9.355	-0.404
-3.087	-9.362	-0.415
-3.068	-9.369	-0.412
0.027	-5.010	-0.007
0.034	-4.993	0.003
0.028	-4.975	0.012
0.011	-4.963	0.016
-0.009	-4.961	0.014
-0.027	-4.970	0.006
-0.034	-4.987	-0.004
-0.028	-5.005	-0.013
-0.011	-5.017	-0.017
0.010	-5.019	-0.015
-0.075	-5.387	0.676
-0.068	-5.371	0.689
-0.075	-5.355	0.701
-0.092	-5.344	0.707
-0.112	-5.343	0.705
-0.129	-5.351	0.696
-0.136	-5.367	0.683
-0.129	-5.383	0.671
-0.112	-5.394	0.666
-0.091	-5.395	0.667
-0.155	-6.011	1.289
-0.149	-5.998	1.305
-0.156	-5.985	1.320
-0.173	-5.976	1.327
-0.194	-5.974	1.326
-0.211	-5.981	1.315
-0.217	-5.994	1.299
-0.210	-6.007	1.285
-0.193	-6.017	1.277
-0.172	-6.018	1.279
-0.236	-6.552	1.702
-0.230	-6.541	1.719
-0.237	-6.529	1.735
-0.254	-6.520	1.743
-0.275	-6.518	1.741
-0.291	-6.523	1.729
-0.297	-6.534	1.712
-0.290	-6.546	1.697
-0.273	-6.555	1.688
-0.252	-6.557	1.691
-0.375	-7.218	2.129
-0.369	-7.208	2.146
-0.376	-7.197	2.163
-0.393	-7.188	2.171
-0.414	-7.185	2.169
-0.430	-7.190	2.156
-0.436	-7.199	2.138
-0.429	-7.211	2.122
-0.412	-7.219	2.114
-0.391	-7.222	2.116
-0.477	-7.731	2.421
-0.471	-7.723	2.439
-0.478	-7.712	2.456
-0.496	-7.704	2.465
-0.516	-7.701	2.462
-0.532	-7.704	2.449
-0.538	-7.713	2.431
-0.531	-7.724	2.414
-0.514	-7.732	2.406
-0.493	-7.735	2.408
-0.597	-8.301	2.714
-0.592	-8.293	2.732
-0.599	-8.283	2.749
-0.616	-8.275	2.758
-0.637	-8.272	2.756
-0.653	-8.275	2.743
-0.659	-8.283	2.725
-0.651	-8.293	2.708
-0.634	-8.301	2.698
-0.614	-8.304	2.701
-0.717	-8.928	3.009
-0.711	-8.921	3.028
-0.718	-8.911	3.046
-0.735	-8.904	3.055
-0.756	-8.901	3.053
-0.772	-8.904	3.040
-0.778	-8.911	3.022
-0.771	-8.921	3.004
-0.754	-8.928	2.995
-0.733	-8.931	2.997
-0.777	-9.262	3.160
-0.771	-9.255	3.179
-0.778	-9.246	3.196
-0.795	-9.238	3.206
-0.816	-9.236	3.204
-0.833	-9.238	3.191
-0.838	-9.246	3.173
-0.831	-9.255	3.155
-0.814	-9.262	3.145
-0.794	-9.265	3.147
0.014	-4.977	-0.028
0.018	-4.963	-0.012
0.014	-4.960	0.008
0.006	-4.969	0.025
-0.005	-4.985	0.033
-0.014	-5.003	0.027
-0.018	-5.017	0.011
-0.014	-5.020	-0.009
-0.005	-5.011	-0.027
0.006	-4.995	-0.034
0.691	-5.353	0.138
0.696	-5.340	0.154
0.693	-5.337	0.175
0.683	-5.344	0.192
0.669	-5.358	0.199
0.658	-5.375	0.193
0.652	-5.387	0.177
0.656	-5.391	0.157
0.666	-5.384	0.140
0.679	-5.370	0.133
1.270	-5.993	0.339
1.278	-5.983	0.355
1.275	-5.979	0.376
1.263	-5.984	0.392
1.246	-5.995	0.399
1.231	-6.008	0.392
1.224	-6.019	0.376
1.227	-6.022	0.355
1.239	-6.018	0.339
1.255	-6.006	0.332
1.637	-6.558	0.480
1.645	-6.549	0.497
1.643	-6.546	0.517
1.630	-6.550	0.534
1.612	-6.559	0.540
1.596	-6.570	0.533
1.587	-6.579	0.516
1.590	-6.582	0.495
1.602	-6.578	0.479
1.620	-6.569	0.473
2.002	-7.262	0.616
2.011	-7.254	0.633
2.009	-7.251	0.654
1.995	-7.254	0.670
1.977	-7.262	0.675
1.959	-7.271	0.668
1.950	-7.279	0.651
1.953	-7.282	0.630
1.966	-7.279	0.614
1.985	-7.271	0.609
2.233	-7.806	0.729
2.242	-7.799	0.746
2.240	-7.796	0.767
2.226	-7.798	0.783
2.207	-7.805	0.788
2.189	-7.813	0.780
2.180	-7.820	0.763
2.182	-7.823	0.742
2.196	-7.820	0.726
2.215	-7.814	0.721
2.443	-8.415	0.835
2.452	-8.409	0.853
2.449	-8.407	0.874
2.436	-8.409	0.890
2.416	-8.414	0.894
2.398	-8.421	0.886
2.388	-8.427	0.869
2.391	-8.430	0.848
2.405	-8.428	0.832
2.425	-8.422	0.827
2.643	-9.083	0.940
2.653	-9.077	0.957
2.650	-9.075	0.978
2.636	-9.077	0.994
2.616	-9.082	0.999
2.598	-9.089	0.990
2.588	-9.094	0.973
2.591	-9.096	0.952
2.605	-9.095	0.936
2.625	-9.089	0.931
2.750	-9.463	1.015
2.760	-9.444	1.015
2.756	-9.423	1.015
2.741	-9.408	1.015
2.721	-9.405	1.015
2.702	-9.415	1.015
2.692	-9.433	1.015
2.696	-9.454	1.015
2.711	-9.469	1.015
2.731	-9.472	1.015
-0.017	-4.673	-0.019
0.003	-4.668	-0.022
0.023	-4.675	-0.021
0.035	-4.692	-0.016
0.034	-4.712	-0.009
0.021	-4.727	-0.003
0.001	-4.732	-0.000
-0.019	-4.725	-0.002
-0.031	-4.709	-0.007
-0.030	-4.689	-0.013
-0.038	-4.813	-0.435
-0.018	-4.808	-0.438
0.002	-4.815	-0.436
0.013	-4.832	-0.431
0.012	-4.852	-0.425
-0.001	-4.867	-0.419
-0.021	-4.872	-0.416
-0.040	-4.865	-0.417
-0.052	-4.848	-0.422
-0.051	-4.828	-0.429
0.007	-4.726	0.010
0.005	-4.709	0.022
0.001	-4.688	0.021
-0.002	-4.672	0.007
-0.003	-4.667	-0.013
-0.003	-4.674	-0.032
-0.001	-4.692	-0.044
0.002	-4.712	-0.043
0.005	-4.728	-0.030
0.007	-4.734	-0.010
-0.428	-4.793	0.029
-0.430	-4.775	0.040
-0.433	-4.755	0.039
-0.436	-4.738	0.026
-0.438	-4.733	0.006
-0.438	-4.740	-0.014
-0.436	-4.758	-0.025
-0.432	-4.779	-0.024
-0.429	-4.795	-0.011
-0.428	-4.800	0.009
0.027	-4.723	-0.013
0.036	-4.704	-0.010
0.031	-4.684	-0.007
0.016	-4.670	-0.005
-0.005	-4.667	-0.006
-0.023	-4.677	-0.009
-0.032	-4.696	-0.013
-0.028	-4.716	-0.016
-0.012	-4.731	-0.017
0.009	-4.733	-0.016
-0.027	-4.797	0.446
-0.027	-4.778	0.455
-0.027	-4.757	0.452
-0.027	-4.742	0.437
-0.027	-4.739	0.417
-0.027	-4.749	0.398
-0.027	-4.767	0.388
-0.027	-4.788	0.392
-0.027	-4.803	0.406
-0.027	-4.806	0.427
0.008	-4.680	-0.038
0.011	-4.669	-0.020
0.010	-4.670	0.001
0.006	-4.682	0.017
0.001	-4.701	0.023
-0.004	-4.720	0.015
-0.007	-4.732	-0.002
-0.006	-4.731	-0.023
-0.003	-4.718	-0.040
0.003	-4.699	-0.045
0.431	-4.799	-0.027
0.434	-4.787	-0.010
0.433	-4.788	0.011
0.429	-4.801	0.028
0.424	-4.820	0.033
0.418	-4.839	0.026
0.416	-4.850	0.008
0.416	-4.850	-0.013
0.420	-4.837	-0.029
0.426	-4.818	-0.035
-0.154	-4.996	0.150
-0.036	-4.996	0.212
0.095	-4.996	0.193
0.190	-4.999	0.100
0.213	-5.001	-0.031
0.154	-5.004	-0.150
0.036	-5.004	-0.212
-0.095	-5.004	-0.193
-0.190	-5.001	-0.100
-0.213	-4.999	0.031
-0.148	-4.248	0.134
-0.032	-4.248	0.194
0.098	-4.248	0.175
0.191	-4.250	0.082
0.213	-4.251	-0.047
0.154	-4.252	-0.164
0.037	-4.253	-0.225
-0.092	-4.252	-0.205
-0.186	-4.251	-0.113
-0.207	-4.249	0.016
-0.147	-3.560	0.132
-0.031	-3.560	0.191
0.098	-3.560	0.171
0.191	-3.560	0.079
0.211	-3.561	-0.050
0.152	-3.561	-0.166
0.036	-3.561	-0.225
-0.092	-3.561	-0.205
-0.185	-3.560	-0.113
-0.206	-3.560	0.015
-0.143	-2.400	0.126
-0.028	-2.400	0.184
0.100	-2.400	0.164
0.191	-2.401	0.073
0.212	-2.401	-0.054
0.153	-2.401	-0.170
0.038	-2.401	-0.229
-0.090	-2.400	-0.209
-0.181	-2.400	-0.117
-0.202	-2.400	0.010
-0.140	-1.801	0.127
-0.025	-1.801	0.185
0.102	-1.801	0.165
0.193	-1.801	0.074
0.213	-1.800	-0.054
[...]
         <CellData>
           <DataArray type="Float32" Name="combinedRootClassID" NumberOfComponents="1" format="ascii">
 -5.000e+00 -5.000e+00 -5.000e+00 -5.000e+00 -5.000e+00 -5.000e+00 -5.000e+00 -5.000e+00 -5.000e+00 -5.000e+00 -5.000e+00 -5.000e+00 -5.000e+00 -5.000e+00 -5.000e+00 -5.000e+00 -5.000e+00 -5.000e+00 -5.000e+00 -5.000e+00 -5.000e+00 -5.000e+00 -5.000e+00 -5.000e+00 -5.000e+00 -5.000e+00 -5.000e+00 -5.000e+00 -5.000e+00 -5.000e+00 -5.000e+00 -5.000e+00 -1.100e+01 -1.100e+01 -1.100e+01 -1.100e+01 -2.000e+00 -2.000e+00 -2.000e+00 -2.000e+00 -2.000e+00 -2.000e+00 -2.000e+00 -2.000e+00 -2.000e+00 -2.000e+00 -7.000e+00 -7.000e+00 -7.000e+00 -7.000e+00 -7.000e+00 -7.000e+00 -7.000e+00 -7.000e+00 -7.000e+00 -7.000e+00 -7.000e+00 -7.000e+00 -7.000e+00 -7.000e+00 -7.000e+00 -7.000e+00 -7.000e+00 -7.000e+00 -7.000e+00 -7.000e+00 -7.000e+00 -7.000e+00 -7.000e+00 -7.000e+00 -7.000e+00 -7.000e+00 -7.000e+00 -7.000e+00 -7.000e+00 -7.000e+00 -7.000e+00 -7.000e+00 -7.000e+00 -7.000e+00 -7.000e+00 -7.000e+00 -7.000e+00 -7.000e+00 -7.000e+00 -7.000e+00 -7.000e+00 -7.000e+00 -7.000e+00 -7.000e+00 -7.000e+00 -7.000e+00 -7.000e+00 -7.000e+00 -7.000e+00 -7.000e+00 -7.000e+00 -7.000e+00 -7.000e+00 -7.000e+00 -7.000e+00 -7.000e+00 -7.000e+00 -7.000e+00 -7.000e+00 -7.000e+00 -7.000e+00 -7.000e+00 -7.000e+00 -7.000e+00 -7.000e+00 -7.000e+00 -7.000e+00 -7.000e+00 -7.000e+00 -7.000e+00 -7.000e+00 -7.000e+00 -7.000e+00 -7.000e+00 -7.000e+00 -7.000e+00 -7.000e+00 -7.000e+00 -7.000e+00 -7.000e+00 -7.000e+00 -7.000e+00 -7.000e+00 -7.000e+00 -7.000e+00 -7.000e+00 -7.000e+00 -7.000e+00 -7.000e+00 -7.000e+00 -7.000e+00 -7.000e+00 -7.000e+00 -7.000e+00 -7.000e+00 -7.000e+00 -7.000e+00 -7.000e+00 -7.000e+00 -7.000e+00 -7.000e+00 -7.000e+00 -7.000e+00 -7.000e+00 -7.000e+00 -7.000e+00 -7.000e+00 -7.000e+00 -7.000e+00 -7.000e+00 -7.000e+00 -9.000e+00 -9.000e+00 -9.000e+00 -9.000e+00 -9.000e+00 -9.000e+00 -4.000e+00 -4.000e+00 -4.000e+00 -4.000e+00 -4.000e+00 -4.000e+00 -4.000e+00 -4.000e+00 -4.000e+00 -4.000e+00 -4.000e+00 -4.000e+00 -4.000e+00 -4.000e+00 -4.000e+00 -4.000e+00 -4.000e+00 -4.000e+00 -4.000e+00 -4.000e+00 -4.000e+00 -4.000e+00 -4.000e+00 -4.000e+00
           </DataArray>
           <DataArray type="Float32" Name="nitrate/Cmin" NumberOfComponents="1" format="ascii">
 1.000e-03 1.000e-03 1.000e-03 1.000e-03 1.000e-03 1.000e-03 1.000e-03 1.000e-03 1.000e-03 1.000e-03 1.000e-03 1.000e-03 1.000e-03 1.000e-03 1.000e-03 1.000e-03 1.000e-03 1.000e-03 1.000e-03 1.000e-03 1.000e-03 1.000e-03 1.000e-03 1.000e-03 1.000e-03 1.000e-03 1.000e-03 1.000e-03 1.000e-03 1.000e-03 1.000e-03 1.000e-03 1.000e-03 1.000e-03 1.000e-03 1.000e-03 1.000e-03 1.000e-03 1.000e-03 1.000e-03 1.000e-03 1.000e-03 1.000e-03 1.000e-03 1.000e-03 1.000e-03 1.000e-03 1.000e-03 1.000e-03 1.000e-03 1.000e-03 1.000e-03 1.000e-03 1.000e-03 1.000e-03 1.000e-03 1.000e-03 1.000e-03 1.000e-03 1.000e-03 1.000e-03 1.000e-03 1.000e-03 1.000e-03 1.000e-03 1.000e-03 1.000e-03 1.000e-03 1.000e-03 1.000e-03 1.000e-03 1.000e-03 1.000e-03 1.000e-03 1.000e-03 1.000e-03 1.000e-03 1.000e-03 1.000e-03 1.000e-03 1.000e-03 1.000e-03 1.000e-03 1.000e-03 1.000e-03 1.000e-03 1.000e-03 1.000e-03 1.000e-03 1.000e-03 1.000e-03 1.000e-03 1.000e-03 1.000e-03 1.000e-03 1.000e-03 1.000e-03 1.000e-03 1.000e-03 1.000e-03 1.000e-03 1.000e-03 1.000e-03 1.000e-03 1.000e-03 1.000e-03 1.000e-03 1.000e-03 1.000e-03 1.000e-03 1.000e-03 1.000e-03 1.000e-03 1.000e-03 1.000e-03 1.000e-03 1.000e-03 1.000e-03 1.000e-03 1.000e-03 1.000e-03 1.000e-03 1.000e-03 1.000e-03 1.000e-03 1.000e-03 1.000e-03 1.000e-03 1.000e-03 1.000e-03 1.000e-03 1.000e-03 1.000e-03 1.000e-03 1.000e-03 1.000e-03 1.000e-03 1.000e-03 1.000e-03 1.000e-03 1.000e-03 1.000e-03 1.000e-03 1.000e-03 1.000e-03 1.000e-03 1.000e-03 1.000e-03 1.000e-03 1.000e-03 1.000e-03 1.000e-03 1.000e-03 1.000e-03 1.000e-03 1.000e-03 1.000e-03 1.000e-03 1.000e-03 1.000e-03 1.000e-03 1.000e-03 1.000e-03 1.000e-03 1.000e-03 1.000e-03 1.000e-03 1.000e-03 1.000e-03 1.000e-03 1.000e-03 1.000e-03 1.000e-03 1.000e-03 1.000e-03 1.000e-03 1.000e-03 1.000e-03 1.000e-03 1.000e-03 1.000e-03 1.000e-03 1.000e-03 1.000e-03 1.000e-03 1.000e-03 1.000e-03
           </DataArray>
           <DataArray type="Float32" Name="nitrate/Imax" NumberOfComponents="1" format="ascii">
 1.900e+00 1.900e+00 1.900e+00 1.900e+00 1.900e+00 1.900e+00 1.900e+00 1.900e+00 1.900e+00 1.900e+00 1.900e+00 1.900e+00 1.900e+00 1.900e+00 1.900e+00 1.900e+00 1.900e+00 1.900e+00 1.900e+00 1.900e+00 1.900e+00 1.900e+00 1.900e+00 1.900e+00 1.900e+00 1.900e+00 1.900e+00 1.900e+00 1.900e+00 1.900e+00 1.900e+00 1.900e+00 1.900e+00 1.900e+00 1.900e+00 1.900e+00 1.900e+00 1.900e+00 1.900e+00 1.900e+00 1.900e+00 1.900e+00 1.900e+00 1.900e+00 1.900e+00 1.900e+00 1.900e+00 1.900e+00 1.900e+00 1.900e+00 1.900e+00 1.900e+00 1.900e+00 1.900e+00 1.900e+00 1.900e+00 1.900e+00 1.900e+00 1.900e+00 1.900e+00 1.900e+00 1.900e+00 1.900e+00 1.900e+00 1.900e+00 1.900e+00 1.900e+00 1.900e+00 1.900e+00 1.900e+00 1.900e+00 1.900e+00 1.900e+00 1.900e+00 1.900e+00 1.900e+00 1.900e+00 1.900e+00 1.900e+00 1.900e+00 1.900e+00 1.900e+00 1.900e+00 1.900e+00 1.900e+00 1.900e+00 1.900e+00 1.900e+00 1.900e+00 1.900e+00 1.900e+00 1.900e+00 1.900e+00 1.900e+00 1.900e+00 1.900e+00 1.900e+00 1.900e+00 1.900e+00 1.900e+00 1.900e+00 1.900e+00 1.900e+00 1.900e+00 1.900e+00 1.900e+00 1.900e+00 1.900e+00 1.900e+00 1.900e+00 1.900e+00 1.900e+00 1.900e+00 1.900e+00 1.900e+00 1.900e+00 1.900e+00 1.900e+00 1.900e+00 1.900e+00 1.900e+00 1.900e+00 1.900e+00 1.900e+00 1.900e+00 1.900e+00 1.900e+00 1.900e+00 1.900e+00 1.900e+00 1.900e+00 1.900e+00 1.900e+00 1.900e+00 1.900e+00 1.900e+00 1.900e+00 1.900e+00 1.900e+00 1.900e+00 1.900e+00 1.900e+00 1.900e+00 1.900e+00 1.900e+00 1.900e+00 1.900e+00 1.900e+00 1.900e+00 1.900e+00 1.900e+00 1.900e+00 1.900e+00 1.900e+00 1.900e+00 1.900e+00 1.900e+00 1.900e+00 1.900e+00 1.900e+00 1.900e+00 1.900e+00 1.900e+00 1.900e+00 1.900e+00 1.900e+00 1.900e+00 1.900e+00 1.900e+00 1.900e+00 1.900e+00 1.900e+00 1.900e+00 1.900e+00 1.900e+00 1.900e+00 1.900e+00 1.900e+00 1.900e+00 1.900e+00 1.900e+00 1.900e+00 1.900e+00 1.900e+00 1.900e+00 1.900e+00 1.900e+00
           </DataArray>
           <DataArray type="Float32" Name="nitrate/Km" NumberOfComponents="1" format="ascii">
 1.610e-02 1.610e-02 1.610e-02 1.610e-02 1.610e-02 1.610e-02 1.610e-02 1.610e-02 1.610e-02 1.610e-02 1.610e-02 1.610e-02 1.610e-02 1.610e-02 1.610e-02 1.610e-02 1.610e-02 1.610e-02 1.610e-02 1.610e-02 1.610e-02 1.610e-02 1.610e-02 1.610e-02 1.610e-02 1.610e-02 1.610e-02 1.610e-02 1.610e-02 1.610e-02 1.610e-02 1.610e-02 1.610e-02 1.610e-02 1.610e-02 1.610e-02 1.610e-02 1.610e-02 1.610e-02 1.610e-02 1.610e-02 1.610e-02 1.610e-02 1.610e-02 1.610e-02 1.610e-02 1.610e-02 1.610e-02 1.610e-02 1.610e-02 1.610e-02 1.610e-02 1.610e-02 1.610e-02 1.610e-02 1.610e-02 1.610e-02 1.610e-02 1.610e-02 1.610e-02 1.610e-02 1.610e-02 1.610e-02 1.610e-02 1.610e-02 1.610e-02 1.610e-02 1.610e-02 1.610e-02 1.610e-02 1.610e-02 1.610e-02 1.610e-02 1.610e-02 1.610e-02 1.610e-02 1.610e-02 1.610e-02 1.610e-02 1.610e-02 1.610e-02 1.610e-02 1.610e-02 1.610e-02 1.610e-02 1.610e-02 1.610e-02 1.610e-02 1.610e-02 1.610e-02 1.610e-02 1.610e-02 1.610e-02 1.610e-02 1.610e-02 1.610e-02 1.610e-02 1.610e-02 1.610e-02 1.610e-02 1.610e-02 1.610e-02 1.610e-02 1.610e-02 1.610e-02 1.610e-02 1.610e-02 1.610e-02 1.610e-02 1.610e-02 1.610e-02 1.610e-02 1.610e-02 1.610e-02 1.610e-02 1.610e-02 1.610e-02 1.610e-02 1.610e-02 1.610e-02 1.610e-02 1.610e-02 1.610e-02 1.610e-02 1.610e-02 1.610e-02 1.610e-02 1.610e-02 1.610e-02 1.610e-02 1.610e-02 1.610e-02 1.610e-02 1.610e-02 1.610e-02 1.610e-02 1.610e-02 1.610e-02 1.610e-02 1.610e-02 1.610e-02 1.610e-02 1.610e-02 1.610e-02 1.610e-02 1.610e-02 1.610e-02 1.610e-02 1.610e-02 1.610e-02 1.610e-02 1.610e-02 1.610e-02 1.610e-02 1.610e-02 1.610e-02 1.610e-02 1.610e-02 1.610e-02 1.610e-02 1.610e-02 1.610e-02 1.610e-02 1.610e-02 1.610e-02 1.610e-02 1.610e-02 1.610e-02 1.610e-02 1.610e-02 1.610e-02 1.610e-02 1.610e-02 1.610e-02 1.610e-02 1.610e-02 1.610e-02 1.610e-02 1.610e-02 1.610e-02 1.610e-02 1.610e-02 1.610e-02 1.610e-02 1.610e-02 1.610e-02 1.610e-02
           </DataArray>
           <DataArray type="Float32" Name="nitrate/minimalNutrientConcentration" NumberOfComponents="1" format="ascii">
 6.000e+02 6.000e+02 6.000e+02 6.000e+02 6.000e+02 6.000e+02 6.000e+02 6.000e+02 6.000e+02 6.000e+02 6.000e+02 6.000e+02 6.000e+02 6.000e+02 6.000e+02 6.000e+02 6.000e+02 6.000e+02 6.000e+02 6.000e+02 6.000e+02 6.000e+02 6.000e+02 6.000e+02 6.000e+02 6.000e+02 6.000e+02 6.000e+02 6.000e+02 6.000e+02 6.000e+02 6.000e+02 6.000e+02 6.000e+02 6.000e+02 6.000e+02 6.000e+02 6.000e+02 6.000e+02 6.000e+02 6.000e+02 6.000e+02 6.000e+02 6.000e+02 6.000e+02 6.000e+02 6.000e+02 6.000e+02 6.000e+02 6.000e+02 6.000e+02 6.000e+02 6.000e+02 6.000e+02 6.000e+02 6.000e+02 6.000e+02 6.000e+02 6.000e+02 6.000e+02 6.000e+02 6.000e+02 6.000e+02 6.000e+02 6.000e+02 6.000e+02 6.000e+02 6.000e+02 6.000e+02 6.000e+02 6.000e+02 6.000e+02 6.000e+02 6.000e+02 6.000e+02 6.000e+02 6.000e+02 6.000e+02 6.000e+02 6.000e+02 6.000e+02 6.000e+02 6.000e+02 6.000e+02 6.000e+02 6.000e+02 6.000e+02 6.000e+02 6.000e+02 6.000e+02 6.000e+02 6.000e+02 6.000e+02 6.000e+02 6.000e+02 6.000e+02 6.000e+02 6.000e+02 6.000e+02 6.000e+02 6.000e+02 6.000e+02 6.000e+02 6.000e+02 6.000e+02 6.000e+02 6.000e+02 6.000e+02 6.000e+02 6.000e+02 6.000e+02 6.000e+02 6.000e+02 6.000e+02 6.000e+02 6.000e+02 6.000e+02 6.000e+02 6.000e+02 6.000e+02 6.000e+02 6.000e+02 6.000e+02 6.000e+02 6.000e+02 6.000e+02 6.000e+02 6.000e+02 6.000e+02 6.000e+02 6.000e+02 6.000e+02 6.000e+02 6.000e+02 6.000e+02 6.000e+02 6.000e+02 6.000e+02 6.000e+02 6.000e+02 6.000e+02 6.000e+02 6.000e+02 6.000e+02 6.000e+02 6.000e+02 6.000e+02 6.000e+02 6.000e+02 6.000e+02 6.000e+02 6.000e+02 6.000e+02 6.000e+02 6.000e+02 6.000e+02 6.000e+02 6.000e+02 6.000e+02 6.000e+02 6.000e+02 6.000e+02 6.000e+02 6.000e+02 6.000e+02 6.000e+02 6.000e+02 6.000e+02 6.000e+02 6.000e+02 6.000e+02 6.000e+02 6.000e+02 6.000e+02 6.000e+02 6.000e+02 6.000e+02 6.000e+02 6.000e+02 6.000e+02 6.000e+02 6.000e+02 6.000e+02 6.000e+02 6.000e+02 6.000e+02 6.000e+02
           </DataArray>
           <DataArray type="Float32" Name="nitrate/nutrientConcentrationAtTheRootSurface" NumberOfComponents="1" format="ascii">
 2.734e-01 2.888e-01 3.662e-01 4.306e-01 5.142e-01 5.660e-01 6.287e-01 6.993e-01 2.734e-01 2.860e-01 3.152e-01 4.086e-01 4.537e-01 5.508e-01 6.050e-01 6.728e-01 2.734e-01 2.766e-01 3.490e-01 4.190e-01 4.986e-01 5.455e-01 5.879e-01 6.979e-01 2.734e-01 2.938e-01 3.047e-01 3.960e-01 4.618e-01 5.262e-01 6.134e-01 7.056e-01 2.808e-01 2.808e-01 2.808e-01 2.808e-01 2.733e-01 2.878e-01 2.757e-01 2.110e-01 1.739e-01 1.276e-01 7.768e-02 0.000e+00 0.000e+00 0.000e+00 2.723e-01 3.064e-01 3.837e-01 2.703e-01 2.875e-01 3.788e-01 2.548e-01 3.059e-01 2.528e-01 2.715e-01 3.845e-01 2.553e-01 3.215e-01 2.575e-01 2.767e-01 2.610e-01 2.805e-01 2.644e-01 3.278e-01 4.383e-01 2.674e-01 2.697e-01 2.699e-01 2.831e-01 2.764e-01 2.678e-01 2.790e-01 2.818e-01 2.681e-01 2.892e-01 3.594e-01 2.815e-01 2.729e-01 2.877e-01 3.131e-01 3.002e-01 3.629e-01 3.103e-01 3.785e-01 3.221e-01 3.681e-01 3.340e-01 4.292e-01 3.441e-01 3.728e-01 3.543e-01 3.796e-01 3.657e-01 4.082e-01 3.737e-01 4.250e-01 2.657e-01 2.900e-01 3.497e-01 3.778e-01 4.032e-01 3.977e-01 4.865e-01 4.067e-01 4.843e-01 4.185e-01 4.880e-01 4.320e-01 4.913e-01 4.454e-01 4.569e-01 5.161e-01 4.657e-01 5.293e-01 4.775e-01 4.885e-01 2.627e-01 3.058e-01 3.307e-01 4.983e-01 5.068e-01 5.173e-01 5.263e-01 5.366e-01 5.468e-01 5.553e-01 5.628e-01 5.679e-01 5.719e-01 2.593e-01 2.585e-01 2.698e-01 5.793e-01 5.854e-01 5.930e-01 5.996e-01 6.068e-01 6.132e-01 6.181e-01 6.214e-01 6.256e-01 6.269e-01 2.540e-01 2.655e-01 6.282e-01 6.329e-01 6.396e-01 6.426e-01 2.525e-01 2.656e-01 2.548e-01 2.672e-01 4.010e-01 2.544e-01 2.665e-01 2.964e-01 2.544e-01 3.075e-01 3.961e-01 4.851e-01 4.785e-01 5.141e-01 2.733e-01 2.539e-01 2.580e-01 2.829e-01 3.590e-01 4.369e-01 5.131e-01 5.691e-01 6.162e-01 6.415e-01 6.384e-01 6.362e-01 6.424e-01 6.400e-01 6.859e-01 6.941e-01 6.838e-01 6.739e-01 6.635e-01 6.421e-01 6.167e-01 6.378e-01 6.456e-01 6.846e-01
           </DataArray>
           <DataArray type="Float32" Name="nitrate/optimalNutrientConcentration" NumberOfComponents="1" format="ascii">
 1.200e+03 1.200e+03 1.200e+03 1.200e+03 1.200e+03 1.200e+03 1.200e+03 1.200e+03 1.200e+03 1.200e+03 1.200e+03 1.200e+03 1.200e+03 1.200e+03 1.200e+03 1.200e+03 1.200e+03 1.200e+03 1.200e+03 1.200e+03 1.200e+03 1.200e+03 1.200e+03 1.200e+03 1.200e+03 1.200e+03 1.200e+03 1.200e+03 1.200e+03 1.200e+03 1.200e+03 1.200e+03 1.200e+03 1.200e+03 1.200e+03 1.200e+03 1.200e+03 1.200e+03 1.200e+03 1.200e+03 1.200e+03 1.200e+03 1.200e+03 1.200e+03 1.200e+03 1.200e+03 1.200e+03 1.200e+03 1.200e+03 1.200e+03 1.200e+03 1.200e+03 1.200e+03 1.200e+03 1.200e+03 1.200e+03 1.200e+03 1.200e+03 1.200e+03 1.200e+03 1.200e+03 1.200e+03 1.200e+03 1.200e+03 1.200e+03 1.200e+03 1.200e+03 1.200e+03 1.200e+03 1.200e+03 1.200e+03 1.200e+03 1.200e+03 1.200e+03 1.200e+03 1.200e+03 1.200e+03 1.200e+03 1.200e+03 1.200e+03 1.200e+03 1.200e+03 1.200e+03 1.200e+03 1.200e+03 1.200e+03 1.200e+03 1.200e+03 1.200e+03 1.200e+03 1.200e+03 1.200e+03 1.200e+03 1.200e+03 1.200e+03 1.200e+03 1.200e+03 1.200e+03 1.200e+03 1.200e+03 1.200e+03 1.200e+03 1.200e+03 1.200e+03 1.200e+03 1.200e+03 1.200e+03 1.200e+03 1.200e+03 1.200e+03 1.200e+03 1.200e+03 1.200e+03 1.200e+03 1.200e+03 1.200e+03 1.200e+03 1.200e+03 1.200e+03 1.200e+03 1.200e+03 1.200e+03 1.200e+03 1.200e+03 1.200e+03 1.200e+03 1.200e+03 1.200e+03 1.200e+03 1.200e+03 1.200e+03 1.200e+03 1.200e+03 1.200e+03 1.200e+03 1.200e+03 1.200e+03 1.200e+03 1.200e+03 1.200e+03 1.200e+03 1.200e+03 1.200e+03 1.200e+03 1.200e+03 1.200e+03 1.200e+03 1.200e+03 1.200e+03 1.200e+03 1.200e+03 1.200e+03 1.200e+03 1.200e+03 1.200e+03 1.200e+03 1.200e+03 1.200e+03 1.200e+03 1.200e+03 1.200e+03 1.200e+03 1.200e+03 1.200e+03 1.200e+03 1.200e+03 1.200e+03 1.200e+03 1.200e+03 1.200e+03 1.200e+03 1.200e+03 1.200e+03 1.200e+03 1.200e+03 1.200e+03 1.200e+03 1.200e+03 1.200e+03 1.200e+03 1.200e+03 1.200e+03 1.200e+03 1.200e+03 1.200e+03 1.200e+03 1.200e+03
           </DataArray>
           <DataArray type="Float32" Name="nitrate/rootSegmentMinimalNutrientContent" NumberOfComponents="1" format="ascii">
 1.635e-01 1.811e-01 1.406e-01 1.646e-01 1.230e-01 1.337e-01 1.443e-01 7.615e-02 1.635e-01 1.811e-01 1.406e-01 1.646e-01 1.230e-01 1.337e-01 1.443e-01 7.615e-02 1.635e-01 1.811e-01 1.406e-01 1.646e-01 1.230e-01 1.337e-01 1.443e-01 7.615e-02 1.635e-01 1.811e-01 1.406e-01 1.646e-01 1.230e-01 1.337e-01 1.443e-01 7.615e-02 9.025e-02 9.025e-02 9.025e-02 9.025e-02 6.064e+00 5.477e+00 9.071e+00 4.653e+00 4.616e+00 6.835e+00 6.464e+00 6.546e+00 6.432e+00 1.821e+00 3.437e-02 3.692e-02 1.229e-02 3.369e-02 3.449e-02 1.566e-02 3.597e-02 2.782e-02 3.429e-02 3.266e-02 6.528e-03 3.510e-02 2.197e-02 3.603e-02 3.092e-02 3.488e-02 3.107e-02 3.233e-02 3.676e-02 7.348e-03 3.737e-02 3.602e-02 3.576e-02 2.154e-02 3.589e-02 2.766e-02 3.544e-02 2.049e-02 3.383e-02 3.278e-02 1.965e-02 3.473e-02 1.643e-02 3.743e-02 1.833e-02 3.548e-02 1.800e-02 3.484e-02 1.404e-02 3.431e-02 2.407e-02 3.598e-02 2.046e-02 3.648e-02 2.162e-02 3.478e-02 2.151e-02 3.534e-02 1.719e-02 3.624e-02 5.637e-03 3.664e-02 3.695e-02 6.154e-03 3.648e-02 1.399e-02 3.439e-02 1.375e-02 3.337e-02 5.762e-03 3.559e-02 6.380e-03 3.423e-02 1.055e-02 3.626e-02 3.459e-02 3.179e-03 3.578e-02 3.421e-03 3.572e-02 3.396e-02 3.443e-02 3.601e-02 5.997e-03 3.159e-02 2.866e-02 2.800e-02 3.170e-02 2.670e-02 2.661e-02 2.171e-02 1.823e-02 2.161e-02 2.039e-02 3.330e-02 3.617e-02 6.023e-03 1.805e-02 1.714e-02 1.610e-02 1.500e-02 1.247e-02 1.142e-02 9.422e-03 8.197e-03 7.497e-03 7.113e-03 3.533e-02 2.851e-02 5.118e-03 4.253e-03 2.092e-03 1.302e-03 3.637e-02 3.577e-02 3.567e-02 3.642e-02 6.617e-03 3.703e-02 3.589e-02 3.261e-03 3.410e-02 3.317e-02 3.311e-02 2.205e-02 3.588e-02 2.069e-02 3.586e-01 3.469e-01 3.360e-01 3.259e-01 3.165e-01 3.078e-01 2.997e-01 2.923e-01 2.860e-01 2.808e-01 2.768e-01 2.734e-01 2.703e-01 2.674e-01 2.649e-01 2.626e-01 2.606e-01 2.588e-01 2.573e-01 2.561e-01 2.551e-01 2.544e-01 2.539e-01 8.457e-02
           </DataArray>
           <DataArray type="Float32" Name="nitrate/rootSegmentNutrientUptake" NumberOfComponents="1" format="ascii">
 0.000e+00 2.395e-01 2.087e-01 1.764e-01 1.386e-01 1.031e-01 6.208e-02 1.473e-02 0.000e+00 2.486e-01 1.961e-01 1.764e-01 1.268e-01 1.016e-01 6.063e-02 1.472e-02 0.000e+00 2.396e-01 2.051e-01 1.764e-01 1.358e-01 1.009e-01 5.918e-02 1.470e-02 0.000e+00 2.507e-01 1.868e-01 1.712e-01 1.293e-01 9.814e-02 6.095e-02 1.472e-02 0.000e+00 0.000e+00 0.000e+00 0.000e+00 0.000e+00 8.239e-01 7.352e-01 5.642e-01 4.720e-01 3.745e-01 2.413e-01 0.000e+00 0.000e+00 0.000e+00 0.000e+00 1.528e-01 1.326e-02 0.000e+00 1.503e-01 2.028e-02 0.000e+00 6.582e-02 0.000e+00 9.714e-02 4.211e-03 0.000e+00 4.477e-02 0.000e+00 7.067e-02 0.000e+00 7.131e-02 0.000e+00 1.120e-01 4.767e-03 0.000e+00 7.834e-02 0.000e+00 3.913e-02 0.000e+00 5.503e-02 0.000e+00 3.518e-02 0.000e+00 1.541e-01 2.967e-02 0.000e+00 2.461e-02 0.000e+00 2.759e-02 0.000e+00 2.724e-02 0.000e+00 1.822e-02 0.000e+00 4.169e-02 0.000e+00 3.109e-02 0.000e+00 3.275e-02 0.000e+00 3.259e-02 0.000e+00 2.236e-02 0.000e+00 3.661e-03 0.000e+00 1.212e-01 3.958e-03 0.000e+00 1.515e-02 0.000e+00 1.497e-02 0.000e+00 3.756e-03 0.000e+00 4.160e-03 0.000e+00 9.186e-03 0.000e+00 0.000e+00 1.382e-03 0.000e+00 1.488e-03 0.000e+00 0.000e+00 0.000e+00 1.218e-01 3.853e-03 0.000e+00 0.000e+00 0.000e+00 0.000e+00 0.000e+00 0.000e+00 0.000e+00 0.000e+00 0.000e+00 0.000e+00 0.000e+00 1.166e-01 3.844e-03 0.000e+00 0.000e+00 0.000e+00 0.000e+00 0.000e+00 0.000e+00 0.000e+00 0.000e+00 0.000e+00 0.000e+00 0.000e+00 7.159e-02 0.000e+00 0.000e+00 0.000e+00 0.000e+00 0.000e+00 9.142e-02 0.000e+00 1.106e-01 4.272e-03 0.000e+00 9.753e-02 1.390e-03 0.000e+00 1.897e-01 1.077e-01 2.398e-02 0.000e+00 2.255e-02 0.000e+00 9.302e-01 9.310e-01 9.281e-01 9.550e-01 9.749e-01 9.635e-01 9.275e-01 9.162e-01 8.746e-01 7.872e-01 7.191e-01 6.644e-01 6.045e-01 6.130e-01 5.631e-01 4.928e-01 4.291e-01 3.636e-01 2.910e-01 2.211e-01 1.578e-01 8.525e-02 1.237e-02
           </DataArray>
           <DataArray type="Float32" Name="nitrate/rootSegmentOptimalNutrientContent" NumberOfComponents="1" format="ascii">