<?xml version="1.0"?>
<VTKFile type="UnstructuredGrid" version="0.1" byte_order="LittleEndian">
   <UnstructuredGrid>
      <Piece NumberOfPoints="13840" NumberOfCells="970">
         <Points>
            <DataArray type="Float32" Name="Position" NumberOfComponents="3" format="ascii">
0.036	-5.031	-0.153
0.041	-5.032	-0.144
0.039	-5.032	-0.135
0.033	-5.033	-0.129
0.024	-5.033	-0.127
0.015	-5.033	-0.131
0.011	-5.032	-0.139
0.012	-5.032	-0.148
0.019	-5.031	-0.155
0.028	-5.031	-0.157
0.030	-5.900	-0.201
0.035	-5.900	-0.193
0.034	-5.900	-0.184
0.027	-5.900	-0.177
0.018	-5.901	-0.175
0.010	-5.901	-0.179
0.005	-5.901	-0.187
0.007	-5.901	-0.196
0.013	-5.901	-0.203
0.022	-5.900	-0.205
0.097	-6.441	-0.193
0.101	-6.440	-0.185
0.100	-6.440	-0.176
0.094	-6.441	-0.169
0.085	-6.442	-0.167
0.077	-6.443	-0.171
0.072	-6.444	-0.179
0.073	-6.444	-0.188
0.079	-6.443	-0.195
0.088	-6.442	-0.197
0.051	-5.102	-0.266
0.048	-5.094	-0.262
0.046	-5.085	-0.264
0.047	-5.078	-0.271
0.049	-5.077	-0.280
0.052	-5.081	-0.288
0.055	-5.089	-0.291
0.056	-5.098	-0.289
0.056	-5.105	-0.282
0.054	-5.106	-0.273
-0.755	-5.283	-0.495
-0.758	-5.275	-0.491
-0.760	-5.266	-0.492
-0.760	-5.260	-0.498
-0.759	-5.258	-0.507
-0.756	-5.262	-0.515
-0.753	-5.269	-0.519
-0.751	-5.278	-0.518
-0.750	-5.285	-0.512
-0.752	-5.287	-0.503
-1.380	-5.478	-0.617
-1.383	-5.471	-0.612
-1.385	-5.462	-0.613
-1.386	-5.455	-0.619
-1.386	-5.453	-0.628
-1.383	-5.456	-0.636
-1.380	-5.463	-0.641
-1.377	-5.472	-0.640
-1.376	-5.479	-0.634
-1.377	-5.481	-0.625
0.304	-5.894	-1.331
0.304	-5.888	-1.324
0.302	-5.888	-1.315
0.300	-5.893	-1.307
0.297	-5.901	-1.304
0.296	-5.910	-1.307
0.296	-5.916	-1.314
0.298	-5.916	-1.324
0.300	-5.911	-1.331
0.302	-5.903	-1.334
1.138	-6.071	-1.172
1.139	-6.066	-1.165
1.137	-6.066	-1.156
1.135	-6.071	-1.148
1.133	-6.080	-1.146
1.132	-6.088	-1.149
1.132	-6.094	-1.156
1.133	-6.094	-1.165
1.135	-6.088	-1.173
1.137	-6.080	-1.175
1.513	-6.144	-1.141
1.514	-6.139	-1.133
1.513	-6.139	-1.124
1.511	-6.145	-1.117
1.509	-6.154	-1.114
1.508	-6.162	-1.118
1.508	-6.167	-1.125
1.508	-6.167	-1.135
1.510	-6.162	-1.142
1.512	-6.153	-1.144
0.332	-6.004	-1.430
0.331	-5.998	-1.423
0.329	-5.997	-1.414
0.327	-6.002	-1.406
0.325	-6.011	-1.403
0.324	-6.020	-1.406
0.325	-6.025	-1.413
0.327	-6.026	-1.422
0.329	-6.021	-1.429
0.331	-6.012	-1.432
1.171	-6.137	-1.238
1.170	-6.131	-1.232
1.167	-6.130	-1.223
1.164	-6.134	-1.215
1.162	-6.142	-1.212
1.162	-6.151	-1.214
1.163	-6.158	-1.221
1.166	-6.159	-1.230
1.169	-6.154	-1.237
1.171	-6.146	-1.240
1.461	-6.174	-1.109
1.464	-6.165	-1.107
1.462	-6.156	-1.105
1.455	-6.151	-1.103
1.446	-6.150	-1.103
1.438	-6.155	-1.104
1.435	-6.163	-1.106
1.437	-6.172	-1.109
1.444	-6.178	-1.110
1.453	-6.178	-1.110
0.349	-6.132	-1.502
0.347	-6.124	-1.500
0.347	-6.115	-1.504
0.349	-6.110	-1.511
0.353	-6.110	-1.520
0.357	-6.116	-1.526
0.359	-6.124	-1.528
0.359	-6.133	-1.524
0.357	-6.138	-1.517
0.353	-6.138	-1.508
-0.442	-6.297	-1.858
-0.446	-6.289	-1.856
-0.447	-6.280	-1.859
-0.445	-6.274	-1.866
-0.442	-6.274	-1.874
-0.438	-6.278	-1.881
-0.435	-6.287	-1.883
-0.433	-6.296	-1.880
-0.435	-6.301	-1.873
-0.438	-6.302	-1.865
-0.655	-6.371	-1.940
-0.659	-6.363	-1.937
-0.661	-6.354	-1.939
-0.660	-6.348	-1.946
-0.657	-6.346	-1.955
-0.653	-6.350	-1.962
-0.649	-6.358	-1.965
-0.647	-6.367	-1.963
-0.648	-6.373	-1.956
-0.651	-6.375	-1.948
0.365	-6.228	-1.609
0.374	-6.225	-1.609
0.383	-6.227	-1.607
0.389	-6.234	-1.605
0.389	-6.244	-1.604
0.384	-6.251	-1.604
0.375	-6.255	-1.605
0.366	-6.252	-1.607
0.361	-6.245	-1.609
0.360	-6.236	-1.609
0.495	-6.313	-2.451
0.504	-6.310	-2.449
0.512	-6.313	-2.446
0.517	-6.321	-2.444
0.517	-6.330	-2.443
0.512	-6.337	-2.444
0.503	-6.340	-2.446
0.495	-6.338	-2.448
0.490	-6.330	-2.451
0.490	-6.321	-2.452
0.560	-6.333	-2.605
0.568	-6.330	-2.602
0.576	-6.333	-2.598
0.581	-6.341	-2.595
0.580	-6.350	-2.594
0.575	-6.358	-2.595
0.567	-6.360	-2.599
0.559	-6.357	-2.602
0.554	-6.350	-2.605
0.555	-6.341	-2.606
0.410	-6.371	-1.694
0.412	-6.364	-1.687
0.409	-6.357	-1.682
0.402	-6.351	-1.681
0.394	-6.349	-1.684
0.387	-6.352	-1.689
0.384	-6.358	-1.696
0.387	-6.366	-1.700
0.394	-6.371	-1.702
0.403	-6.373	-1.699
0.116	-6.874	-1.076
0.119	-6.868	-1.071
0.116	-6.860	-1.066
0.109	-6.854	-1.066
0.101	-6.852	-1.068
0.094	-6.855	-1.073
0.091	-6.862	-1.079
0.094	-6.869	-1.083
0.100	-6.876	-1.084
0.109	-6.877	-1.081
0.055	-6.948	-0.935
0.058	-6.941	-0.930
0.056	-6.932	-0.927
0.049	-6.926	-0.927
0.041	-6.924	-0.929
0.033	-6.927	-0.934
0.030	-6.934	-0.939
0.032	-6.943	-0.943
0.039	-6.949	-0.943
0.048	-6.951	-0.940
0.424	-6.476	-1.785
0.425	-6.471	-1.777
0.424	-6.471	-1.768
0.422	-6.476	-1.761
0.420	-6.485	-1.758
0.419	-6.494	-1.761
0.419	-6.499	-1.769
0.420	-6.499	-1.778
0.422	-6.493	-1.786
0.423	-6.484	-1.788
1.288	-6.616	-1.699
1.288	-6.611	-1.692
1.287	-6.611	-1.682
1.286	-6.617	-1.675
1.284	-6.626	-1.673
1.283	-6.634	-1.676
1.283	-6.639	-1.684
1.284	-6.639	-1.693
1.285	-6.634	-1.700
1.287	-6.625	-1.703
1.464	-6.647	-1.684
1.465	-6.642	-1.676
1.464	-6.642	-1.667
1.462	-6.648	-1.660
1.460	-6.657	-1.658
1.459	-6.665	-1.661
1.459	-6.670	-1.669
1.460	-6.670	-1.678
1.461	-6.664	-1.685
1.463	-6.656	-1.687
0.445	-6.601	-1.863
0.446	-6.596	-1.855
0.446	-6.597	-1.846
0.445	-6.603	-1.839
0.444	-6.612	-1.837
0.442	-6.621	-1.840
0.442	-6.625	-1.848
0.442	-6.624	-1.857
0.442	-6.618	-1.864
0.444	-6.609	-1.866
1.285	-6.734	-1.875
1.286	-6.730	-1.867
1.286	-6.731	-1.858
1.286	-6.737	-1.851
1.285	-6.746	-1.850
1.283	-6.755	-1.854
1.282	-6.759	-1.862
1.282	-6.758	-1.871
1.282	-6.751	-1.878
1.283	-6.742	-1.879
1.461	-6.751	-1.898
1.462	-6.747	-1.889
1.463	-6.749	-1.880
1.463	-6.756	-1.874
1.463	-6.765	-1.872
1.461	-6.773	-1.877
1.460	-6.777	-1.885
1.459	-6.775	-1.894
1.459	-6.769	-1.900
1.459	-6.760	-1.902
0.469	-6.749	-1.920
0.463	-6.744	-1.915
0.459	-6.736	-1.915
0.457	-6.728	-1.921
0.458	-6.724	-1.929
0.462	-6.726	-1.937
0.468	-6.731	-1.942
0.472	-6.739	-1.942
0.474	-6.747	-1.937
0.473	-6.750	-1.928
-0.245	-7.165	-2.224
-0.251	-7.159	-2.221
-0.256	-7.152	-2.223
-0.258	-7.146	-2.230
-0.256	-7.144	-2.239
-0.251	-7.146	-2.246
-0.245	-7.153	-2.250
-0.240	-7.160	-2.247
-0.238	-7.166	-2.240
-0.240	-7.168	-2.232
-0.486	-7.432	-2.312
-0.489	-7.432	-2.303
-0.495	-7.428	-2.297
-0.501	-7.422	-2.297
-0.506	-7.415	-2.301
-0.508	-7.412	-2.310
-0.505	-7.412	-2.319
-0.499	-7.416	-2.325
-0.492	-7.422	-2.325
-0.487	-7.428	-2.320
0.477	-6.854	-2.006
0.486	-6.850	-2.006
0.495	-6.852	-2.005
0.501	-6.859	-2.004
0.502	-6.868	-2.004
0.497	-6.876	-2.003
0.489	-6.880	-2.004
0.480	-6.878	-2.004
0.473	-6.871	-2.005
0.473	-6.862	-2.006
0.532	-6.914	-2.880
0.540	-6.911	-2.880
0.549	-6.913	-2.879
0.555	-6.920	-2.878
0.556	-6.929	-2.878
0.551	-6.937	-2.877
0.543	-6.940	-2.878
0.534	-6.938	-2.878
0.528	-6.931	-2.879
0.527	-6.922	-2.880
0.521	-7.002	-2.081
0.524	-6.998	-2.074
0.520	-6.992	-2.067
0.513	-6.987	-2.065
0.504	-6.985	-2.067
0.497	-6.987	-2.073
0.495	-6.991	-2.081
0.498	-6.997	-2.087
0.506	-7.002	-2.089
0.515	-7.004	-2.087
0.270	-7.637	-1.605
0.271	-7.633	-1.597
0.268	-7.626	-1.591
0.261	-7.621	-1.590
0.253	-7.618	-1.593
0.247	-7.619	-1.600
0.245	-7.623	-1.608
0.249	-7.629	-1.614
0.256	-7.635	-1.615
0.264	-7.638	-1.612
0.193	-7.716	-1.555
0.193	-7.711	-1.547
0.190	-7.704	-1.542
0.183	-7.698	-1.542
0.176	-7.694	-1.547
0.172	-7.695	-1.555
0.171	-7.699	-1.563
0.175	-7.706	-1.568
0.181	-7.712	-1.568
0.188	-7.716	-1.563
0.087	-5.166	-0.415
0.091	-5.165	-0.407
0.089	-5.165	-0.398
0.082	-5.164	-0.392
0.073	-5.164	-0.390
0.065	-5.165	-0.395
0.061	-5.166	-0.403
0.063	-5.166	-0.412
0.069	-5.167	-0.418
0.079	-5.166	-0.420
0.105	-6.001	-0.354
0.109	-6.001	-0.345
0.107	-6.000	-0.336
0.101	-6.000	-0.330
0.092	-6.000	-0.328
0.083	-6.000	-0.333
0.079	-6.000	-0.341
0.081	-6.001	-0.350
0.087	-6.001	-0.357
0.097	-6.001	-0.358
0.085	-6.664	-0.375
0.090	-6.664	-0.367
0.088	-6.665	-0.358
0.082	-6.665	-0.351
0.072	-6.664	-0.350
0.064	-6.664	-0.354
0.060	-6.664	-0.362
0.061	-6.663	-0.371
0.068	-6.663	-0.378
0.077	-6.664	-0.379
0.537	-7.118	-2.160
0.538	-7.112	-2.153
0.536	-7.111	-2.144
0.533	-7.115	-2.137
0.529	-7.123	-2.133
0.526	-7.131	-2.136
0.526	-7.137	-2.143
0.528	-7.139	-2.152
0.531	-7.134	-2.159
0.535	-7.127	-2.163
1.316	-7.415	-1.967
1.316	-7.409	-1.960
1.315	-7.408	-1.951
1.311	-7.412	-1.943
1.307	-7.420	-1.940
1.304	-7.429	-1.942
1.303	-7.434	-1.949
1.305	-7.436	-1.958
1.308	-7.432	-1.966
1.313	-7.424	-1.969
1.493	-7.499	-1.929
1.495	-7.493	-1.921
1.493	-7.492	-1.912
1.490	-7.496	-1.905
1.485	-7.504	-1.902
1.482	-7.512	-1.904
1.481	-7.518	-1.911
1.482	-7.519	-1.920
1.486	-7.515	-1.928
1.490	-7.507	-1.931
0.565	-7.264	-2.221
0.568	-7.258	-2.215
0.565	-7.251	-2.210
0.557	-7.246	-2.207
0.548	-7.245	-2.209
0.541	-7.248	-2.214
0.538	-7.254	-2.220
0.541	-7.261	-2.225
0.549	-7.266	-2.228
0.558	-7.267	-2.226
0.384	-7.834	-1.593
0.387	-7.828	-1.586
0.384	-7.821	-1.581
0.377	-7.816	-1.578
0.367	-7.815	-1.580
0.360	-7.818	-1.584
0.357	-7.825	-1.591
0.360	-7.831	-1.596
0.368	-7.836	-1.599
0.377	-7.837	-1.598
0.375	-7.876	-1.551
0.378	-7.870	-1.545
0.375	-7.863	-1.539
0.367	-7.858	-1.536
0.358	-7.857	-1.537
0.351	-7.861	-1.542
0.348	-7.867	-1.548
0.351	-7.873	-1.554
0.359	-7.878	-1.557
0.368	-7.879	-1.556
0.579	-7.380	-2.299
0.579	-7.374	-2.292
0.576	-7.373	-2.283
0.573	-7.377	-2.276
0.570	-7.385	-2.272
0.569	-7.394	-2.274
0.569	-7.400	-2.281
0.572	-7.402	-2.290
0.575	-7.398	-2.298
0.578	-7.389	-2.301
1.362	-7.561	-2.059
1.362	-7.555	-2.052
1.359	-7.554	-2.043
1.356	-7.558	-2.035
1.354	-7.567	-2.032
1.353	-7.576	-2.034
1.354	-7.582	-2.041
1.356	-7.583	-2.050
1.359	-7.578	-2.058
1.361	-7.570	-2.061
1.419	-7.568	-2.043
1.418	-7.562	-2.036
1.416	-7.561	-2.027
1.413	-7.566	-2.020
1.411	-7.575	-2.017
1.411	-7.584	-2.019
1.412	-7.590	-2.026
1.414	-7.590	-2.035
1.417	-7.585	-2.043
1.419	-7.577	-2.046
0.598	-7.515	-2.361
0.599	-7.509	-2.354
0.598	-7.509	-2.344
0.595	-7.514	-2.337
0.592	-7.522	-2.334
0.589	-7.530	-2.337
0.587	-7.535	-2.344
0.588	-7.536	-2.353
0.591	-7.531	-2.361
0.595	-7.523	-2.364
1.360	-7.826	-2.276
1.362	-7.821	-2.268
[...]
         <CellData>
           <DataArray type="Float32" Name="combinedRootClassID" NumberOfComponents="1" format="ascii">
 -1.300e+01 -1.300e+01 -1.300e+01 -1.300e+01 -1.300e+01 -1.300e+01 -1.300e+01 -1.300e+01 -1.300e+01 -1.300e+01 -1.300e+01 -1.300e+01 -1.300e+01 -1.300e+01 -1.300e+01 -1.300e+01 -1.300e+01 -1.300e+01 -1.300e+01 -1.300e+01 -1.300e+01 -1.300e+01 -1.300e+01 -1.300e+01 -1.300e+01 -1.300e+01 -1.300e+01 -1.300e+01 -1.300e+01 -1.300e+01 -1.300e+01 -1.300e+01 -1.300e+01 -1.300e+01 -1.300e+01 -1.300e+01 -1.300e+01 -1.300e+01 -1.300e+01 -1.300e+01 -1.300e+01 -1.300e+01 -1.300e+01 -1.300e+01 -1.300e+01 -1.300e+01 -1.300e+01 -1.300e+01 -1.300e+01 -1.300e+01 -1.300e+01 -1.300e+01 -1.300e+01 -1.300e+01 -1.300e+01 -1.300e+01 -1.300e+01 -1.300e+01 -1.300e+01 -1.300e+01 -1.300e+01 -1.300e+01 -1.300e+01 -1.300e+01 -1.300e+01 -1.300e+01 -1.300e+01 -1.300e+01 -1.300e+01 -1.300e+01 -1.300e+01 -1.300e+01 -1.300e+01 -1.300e+01 -1.300e+01 -1.300e+01 -1.300e+01 -1.300e+01 -1.300e+01 -1.300e+01 -1.300e+01 -1.300e+01 -1.300e+01 -1.300e+01 -1.300e+01 -1.300e+01 -5.000e+00 -5.000e+00 -5.000e+00 -5.000e+00 -5.000e+00 -5.000e+00 -5.000e+00 -5.000e+00 -5.000e+00 -5.000e+00 -5.000e+00 -5.000e+00 -5.000e+00 -5.000e+00 -5.000e+00 -5.000e+00 -5.000e+00 -5.000e+00 -5.000e+00 -5.000e+00 -5.000e+00 -5.000e+00 -5.000e+00 -1.300e+01 -1.300e+01 -1.300e+01 -1.300e+01 -1.300e+01 -1.300e+01 -1.300e+01 -1.300e+01 -1.300e+01 -1.300e+01 -1.300e+01 -1.300e+01 -1.300e+01 -1.300e+01 -1.300e+01 -1.300e+01 -1.300e+01 -1.300e+01 -1.300e+01 -1.300e+01 -1.300e+01 -1.300e+01 -1.300e+01 -1.300e+01 -1.300e+01 -1.300e+01 -1.300e+01 -1.300e+01 -1.300e+01 -1.300e+01 -1.300e+01 -1.300e+01 -1.300e+01 -1.300e+01 -1.300e+01 -1.300e+01 -1.300e+01 -1.300e+01 -1.300e+01 -1.300e+01 -1.300e+01 -1.300e+01 -1.300e+01 -1.300e+01 -1.300e+01 -1.300e+01 -1.300e+01 -1.300e+01 -1.300e+01 -1.300e+01 -1.300e+01 -1.300e+01 -1.300e+01 -1.300e+01 -1.300e+01 -1.300e+01 -1.300e+01 -1.300e+01 -1.300e+01 -1.300e+01 -1.300e+01 -1.300e+01 -1.300e+01 -1.300e+01 -1.300e+01 -1.300e+01 -1.300e+01 -1.300e+01 -1.300e+01 -1.300e+01 -1.300e+01 -1.300e+01 -1.300e+01 -1.300e+01 -1.300e+01 -1.300e+01 -1.300e+01 -1.300e+01 -1.300e+01 -1.300e+01 -1.300e+01 -1.300e+01 -1.300e+01 -1.300e+01 -1.300e+01 -1.300e+01 -1.300e+01 -5.000e+00 -5.000e+00 -5.000e+00 -5.000e+00 -5.000e+00 -5.000e+00 -5.000e+00 -5.000e+00 -5.000e+00 -5.000e+00 -5.000e+00 -5.000e+00 -5.000e+00 -5.000e+00 -5.000e+00 -5.000e+00 -5.000e+00 -5.000e+00 -5.000e+00 -5.000e+00 -5.000e+00 -5.000e+00 -5.000e+00 -1.300e+01 -1.300e+01 -1.300e+01 -1.300e+01 -1.300e+01 -1.300e+01 -1.300e+01 -1.300e+01 -1.300e+01 -1.300e+01 -1.300e+01 -1.300e+01 -1.300e+01 -1.300e+01 -1.300e+01 -1.300e+01 -1.300e+01 -1.300e+01 -1.300e+01 -1.300e+01 -1.300e+01 -1.300e+01 -1.300e+01 -1.300e+01 -1.300e+01 -1.300e+01 -1.300e+01 -1.300e+01 -1.300e+01 -1.300e+01 -1.300e+01 -1.300e+01 -1.300e+01 -1.300e+01 -1.300e+01 -1.300e+01 -1.300e+01 -1.300e+01 -1.300e+01 -1.300e+01 -1.300e+01 -1.300e+01 -1.300e+01 -1.300e+01 -1.300e+01 -1.300e+01 -1.300e+01 -1.300e+01 -1.300e+01 -1.300e+01 -1.300e+01 -1.300e+01 -1.300e+01 -1.300e+01 -1.300e+01 -1.300e+01 -1.300e+01 -1.300e+01 -1.300e+01 -1.300e+01 -1.300e+01 -1.300e+01 -1.300e+01 -1.300e+01 -1.300e+01 -1.300e+01 -1.300e+01 -1.300e+01 -1.300e+01 -1.300e+01 -1.300e+01 -1.300e+01 -1.300e+01 -1.300e+01 -1.300e+01 -1.300e+01 -1.300e+01 -1.300e+01 -1.300e+01 -1.300e+01 -1.300e+01 -1.300e+01 -1.300e+01 -1.300e+01 -1.300e+01 -5.000e+00 -5.000e+00 -5.000e+00 -5.000e+00 -5.000e+00 -5.000e+00 -5.000e+00 -5.000e+00 -5.000e+00 -5.000e+00 -5.000e+00 -5.000e+00 -5.000e+00 -5.000e+00 -5.000e+00 -5.000e+00 -5.000e+00 -5.000e+00 -5.000e+00 -5.000e+00 -5.000e+00 -5.000e+00 -5.000e+00 -1.300e+01 -1.300e+01 -1.300e+01 -1.300e+01 -1.300e+01 -1.300e+01 -1.300e+01 -1.300e+01 -1.300e+01 -1.300e+01 -1.300e+01 -1.300e+01 -1.300e+01 -1.300e+01 -1.300e+01 -1.300e+01 -1.300e+01 -1.300e+01 -1.300e+01 -1.300e+01 -1.300e+01 -1.300e+01 -1.300e+01 -1.300e+01 -1.300e+01 -1.300e+01 -1.300e+01 -1.300e+01 -1.300e+01 -1.300e+01 -1.300e+01 -1.300e+01 -1.300e+01 -1.300e+01 -1.300e+01 -1.300e+01 -1.300e+01 -1.300e+01 -1.300e+01 -1.300e+01 -1.300e+01 -1.300e+01 -1.300e+01 -1.300e+01 -1.300e+01 -1.300e+01 -1.300e+01 -1.300e+01 -1.300e+01 -1.300e+01 -1.300e+01 -1.300e+01 -1.300e+01 -1.300e+01 -1.300e+01 -1.300e+01 -1.300e+01 -1.300e+01 -1.300e+01 -1.300e+01 -1.300e+01 -1.300e+01 -1.300e+01 -1.300e+01 -1.300e+01 -1.300e+01 -1.300e+01 -1.300e+01 -1.300e+01 -1.300e+01 -1.300e+01 -1.300e+01 -1.300e+01 -1.300e+01 -1.300e+01 -1.300e+01 -1.300e+01 -1.300e+01 -1.300e+01 -1.300e+01 -1.300e+01 -1.300e+01 -1.300e+01 -5.000e+00 -5.000e+00 -5.000e+00 -5.000e+00 -5.000e+00 -5.000e+00 -5.000e+00 -5.000e+00 -5.000e+00 -5.000e+00 -5.000e+00 -5.000e+00 -5.000e+00 -5.000e+00 -5.000e+00 -5.000e+00 -5.000e+00 -5.000e+00 -5.000e+00 -5.000e+00 -5.000e+00 -5.000e+00 -5.000e+00 -1.100e+01 -1.100e+01 -1.100e+01 -1.100e+01 -1.100e+01 -1.100e+01 -1.100e+01 -1.100e+01 -1.100e+01 -1.100e+01 -1.100e+01 -1.100e+01 -1.100e+01 -1.100e+01 -1.100e+01 -1.100e+01 -1.100e+01 -1.100e+01 -1.100e+01 -1.100e+01 -1.100e+01 -1.100e+01 -1.100e+01 -1.100e+01 -1.100e+01 -1.100e+01 -1.100e+01 -1.100e+01 -1.100e+01 -1.100e+01 -1.100e+01 -1.100e+01 -1.100e+01 -1.100e+01 -1.100e+01 -1.100e+01 -1.100e+01 -1.100e+01 -1.100e+01 -1.100e+01 -1.100e+01 -1.100e+01 -1.100e+01 -1.100e+01 -1.100e+01 -1.100e+01 -1.100e+01 -1.100e+01 -2.000e+00 -2.000e+00 -2.000e+00 -2.000e+00 -2.000e+00 -2.000e+00 -2.000e+00 -2.000e+00 -2.000e+00 -2.000e+00 -7.000e+00 -7.000e+00 -7.000e+00 -7.000e+00 -7.000e+00 -7.000e+00 -7.000e+00 -7.000e+00 -7.000e+00 -7.000e+00 -7.000e+00 -7.000e+00 -7.000e+00 -7.000e+00 -7.000e+00 -7.000e+00 -7.000e+00 -7.000e+00 -7.000e+00 -7.000e+00 -7.000e+00 -7.000e+00 -7.000e+00 -7.000e+00 -7.000e+00 -7.000e+00 -7.000e+00 -7.000e+00 -7.000e+00 -7.000e+00 -7.000e+00 -7.000e+00 -7.000e+00 -7.000e+00 -7.000e+00 -7.000e+00 -7.000e+00 -7.000e+00 -7.000e+00 -7.000e+00 -7.000e+00 -7.000e+00 -7.000e+00 -7.000e+00 -7.000e+00 -7.000e+00 -7.000e+00 -7.000e+00 -7.000e+00 -7.000e+00 -7.000e+00 -7.000e+00 -7.000e+00 -7.000e+00 -7.000e+00 -7.000e+00 -7.000e+00 -7.000e+00 -7.000e+00 -7.000e+00 -7.000e+00 -7.000e+00 -7.000e+00 -7.000e+00 -7.000e+00 -7.000e+00 -7.000e+00 -7.000e+00 -7.000e+00 -7.000e+00 -7.000e+00 -7.000e+00 -7.000e+00 -7.000e+00 -7.000e+00 -7.000e+00 -7.000e+00 -7.000e+00 -1.700e+01 -7.000e+00 -7.000e+00 -7.000e+00 -7.000e+00 -7.000e+00 -7.000e+00 -1.700e+01 -7.000e+00 -7.000e+00 -7.000e+00 -7.000e+00 -7.000e+00 -7.000e+00 -7.000e+00 -7.000e+00 -7.000e+00 -7.000e+00 -7.000e+00 -7.000e+00 -7.000e+00 -7.000e+00 -7.000e+00 -7.000e+00 -7.000e+00 -7.000e+00 -7.000e+00 -7.000e+00 -1.700e+01 -7.000e+00 -7.000e+00 -7.000e+00 -7.000e+00 -7.000e+00 -7.000e+00 -7.000e+00 -7.000e+00 -7.000e+00 -7.000e+00 -7.000e+00 -7.000e+00 -7.000e+00 -7.000e+00 -7.000e+00 -7.000e+00 -7.000e+00 -7.000e+00 -7.000e+00 -7.000e+00 -7.000e+00 -7.000e+00 -7.000e+00 -7.000e+00 -7.000e+00 -7.000e+00 -7.000e+00 -7.000e+00 -7.000e+00 -7.000e+00 -7.000e+00 -7.000e+00 -7.000e+00 -7.000e+00 -7.000e+00 -7.000e+00 -7.000e+00 -7.000e+00 -7.000e+00 -7.000e+00 -7.000e+00 -7.000e+00 -7.000e+00 -7.000e+00 -7.000e+00 -7.000e+00 -7.000e+00 -7.000e+00 -7.000e+00 -7.000e+00 -7.000e+00 -7.000e+00 -7.000e+00 -7.000e+00 -7.000e+00 -7.000e+00 -7.000e+00 -7.000e+00 -7.000e+00 -7.000e+00 -7.000e+00 -7.000e+00 -7.000e+00 -7.000e+00 -7.000e+00 -7.000e+00 -7.000e+00 -7.000e+00 -7.000e+00 -7.000e+00 -7.000e+00 -7.000e+00 -7.000e+00 -7.000e+00 -7.000e+00 -7.000e+00 -7.000e+00 -7.000e+00 -7.000e+00 -7.000e+00 -7.000e+00 -7.000e+00 -7.000e+00 -7.000e+00 -7.000e+00 -7.000e+00 -7.000e+00 -7.000e+00 -7.000e+00 -7.000e+00 -7.000e+00 -7.000e+00 -7.000e+00 -7.000e+00 -7.000e+00 -7.000e+00 -7.000e+00 -7.000e+00 -7.000e+00 -7.000e+00 -7.000e+00 -7.000e+00 -7.000e+00 -7.000e+00 -7.000e+00 -7.000e+00 -7.000e+00 -7.000e+00 -7.000e+00 -7.000e+00 -7.000e+00 -7.000e+00 -7.000e+00 -7.000e+00 -7.000e+00 -7.000e+00 -7.000e+00 -7.000e+00 -7.000e+00 -7.000e+00 -7.000e+00 -7.000e+00 -7.000e+00 -7.000e+00 -7.000e+00 -7.000e+00 -7.000e+00 -7.000e+00 -7.000e+00 -7.000e+00 -7.000e+00 -7.000e+00 -7.000e+00 -7.000e+00 -7.000e+00 -7.000e+00 -7.000e+00 -7.000e+00 -7.000e+00 -7.000e+00 -7.000e+00 -7.000e+00 -7.000e+00 -7.000e+00 -7.000e+00 -7.000e+00 -7.000e+00 -7.000e+00 -7.000e+00 -7.000e+00 -7.000e+00 -7.000e+00 -7.000e+00 -7.000e+00 -7.000e+00 -7.000e+00 -7.000e+00 -7.000e+00 -7.000e+00 -7.000e+00 -7.000e+00 -7.000e+00 -7.000e+00 -7.000e+00 -7.000e+00 -7.000e+00 -7.000e+00 -7.000e+00 -7.000e+00 -7.000e+00 -7.000e+00 -7.000e+00 -7.000e+00 -7.000e+00 -7.000e+00 -7.000e+00 -7.000e+00 -7.000e+00 -7.000e+00 -7.000e+00 -7.000e+00 -7.000e+00 -7.000e+00 -7.000e+00 -7.000e+00 -7.000e+00 -7.000e+00 -7.000e+00 -7.000e+00 -7.000e+00 -7.000e+00 -7.000e+00 -7.000e+00 -7.000e+00 -7.000e+00 -7.000e+00 -7.000e+00 -7.000e+00 -7.000e+00 -7.000e+00 -7.000e+00 -7.000e+00 -7.000e+00 -7.000e+00 -7.000e+00 -7.000e+00 -7.000e+00 -7.000e+00 -7.000e+00 -7.000e+00 -7.000e+00 -7.000e+00 -7.000e+00 -7.000e+00 -7.000e+00 -7.000e+00 -7.000e+00 -7.000e+00 -7.000e+00 -7.000e+00 -7.000e+00 -7.000e+00 -7.000e+00 -7.000e+00 -7.000e+00 -7.000e+00 -7.000e+00 -7.000e+00 -7.000e+00 -7.000e+00 -7.000e+00 -7.000e+00 -7.000e+00 -7.000e+00 -7.000e+00 -7.000e+00 -7.000e+00 -7.000e+00 -7.000e+00 -7.000e+00 -7.000e+00 -7.000e+00 -7.000e+00 -7.000e+00 -7.000e+00 -7.000e+00 -7.000e+00 -7.000e+00 -7.000e+00 -7.000e+00 -7.000e+00 -7.000e+00 -7.000e+00 -7.000e+00 -7.000e+00 -7.000e+00 -7.000e+00 -7.000e+00 -7.000e+00 -7.000e+00 -7.000e+00 -7.000e+00 -7.000e+00 -7.000e+00 -7.000e+00 -7.000e+00 -7.000e+00 -7.000e+00 -7.000e+00 -7.000e+00 -7.000e+00 -7.000e+00 -7.000e+00 -7.000e+00 -7.000e+00 -7.000e+00 -7.000e+00 -7.000e+00 -7.000e+00 -7.000e+00 -7.000e+00 -7.000e+00 -7.000e+00 -7.000e+00 -7.000e+00 -7.000e+00 -7.000e+00 -7.000e+00 -7.000e+00 -7.000e+00 -7.000e+00 -7.000e+00 -7.000e+00 -7.000e+00 -7.000e+00 -7.000e+00 -7.000e+00 -7.000e+00 -7.000e+00 -7.000e+00 -7.000e+00 -7.000e+00 -7.000e+00 -1.500e+01 -1.500e+01 -1.500e+01 -1.500e+01 -1.500e+01 -9.000e+00 -9.000e+00 -9.000e+00 -9.000e+00 -9.000e+00 -9.000e+00 -9.000e+00 -9.000e+00 -9.000e+00 -1.500e+01 -1.500e+01 -9.000e+00 -9.000e+00 -9.000e+00 -9.000e+00 -9.000e+00 -9.000e+00 -9.000e+00 -9.000e+00 -9.000e+00 -9.000e+00 -9.000e+00 -9.000e+00 -9.000e+00 -9.000e+00 -9.000e+00 -9.000e+00 -9.000e+00 -9.000e+00 -9.000e+00 -9.000e+00 -4.000e+00 -4.000e+00 -4.000e+00 -4.000e+00 -4.000e+00 -4.000e+00 -4.000e+00 -4.000e+00 -4.000e+00 -4.000e+00 -4.000e+00 -4.000e+00 -4.000e+00 -4.000e+00 -4.000e+00 -4.000e+00 -4.000e+00 -4.000e+00 -4.000e+00 -4.000e+00 -4.000e+00 -4.000e+00 -4.000e+00 -4.000e+00 -4.000e+00 -4.000e+00 -4.000e+00 -4.000e+00 -4.000e+00 -4.000e+00 -4.000e+00 -4.000e+00 -4.000e+00
           </DataArray>
           <DataArray type="Float32" Name="nitrate/Cmin" NumberOfComponents="1" format="ascii">