<?xml version="1.0"?>
<VTKFile type="UnstructuredGrid" version="0.1" byte_order="LittleEndian">
   <UnstructuredGrid>
      <Piece NumberOfPoints="4730" NumberOfCells="335">
         <Points>
            <DataArray type="Float32" Name="Position" NumberOfComponents="3" format="ascii">
0.036	-5.032	-0.152
0.041	-5.032	-0.144
0.039	-5.032	-0.135
0.032	-5.032	-0.128
0.023	-5.032	-0.127
0.015	-5.032	-0.131
0.011	-5.032	-0.139
0.012	-5.032	-0.149
0.019	-5.032	-0.155
0.028	-5.032	-0.157
0.036	-5.235	-0.150
0.040	-5.235	-0.141
0.039	-5.234	-0.132
0.032	-5.234	-0.126
0.023	-5.234	-0.124
0.015	-5.234	-0.128
0.011	-5.234	-0.137
0.012	-5.235	-0.146
0.019	-5.235	-0.152
0.028	-5.235	-0.154
0.047	-5.099	-0.265
0.045	-5.090	-0.263
0.046	-5.082	-0.267
0.048	-5.077	-0.274
0.052	-5.078	-0.283
0.056	-5.084	-0.289
0.058	-5.093	-0.290
0.057	-5.101	-0.287
0.054	-5.106	-0.279
0.051	-5.105	-0.271
-0.131	-5.125	-0.345
-0.133	-5.116	-0.344
-0.132	-5.107	-0.348
-0.130	-5.102	-0.355
-0.126	-5.103	-0.364
-0.122	-5.109	-0.370
-0.120	-5.118	-0.371
-0.121	-5.127	-0.367
-0.123	-5.131	-0.360
-0.127	-5.131	-0.352
0.088	-5.168	-0.414
0.091	-5.166	-0.406
0.089	-5.165	-0.397
0.081	-5.163	-0.391
0.072	-5.163	-0.391
0.064	-5.163	-0.396
0.061	-5.164	-0.404
0.063	-5.166	-0.413
0.071	-5.168	-0.419
0.080	-5.168	-0.419
0.076	-5.337	-0.384
0.080	-5.336	-0.375
0.077	-5.334	-0.366
0.070	-5.333	-0.361
0.061	-5.332	-0.360
0.053	-5.333	-0.365
0.050	-5.334	-0.374
0.052	-5.336	-0.383
0.059	-5.337	-0.388
0.069	-5.338	-0.389
0.093	-5.251	-0.519
0.090	-5.242	-0.518
0.090	-5.234	-0.522
0.093	-5.230	-0.530
0.098	-5.231	-0.538
0.102	-5.237	-0.543
0.105	-5.245	-0.544
0.104	-5.254	-0.540
0.102	-5.258	-0.532
0.097	-5.257	-0.524
-0.016	-5.278	-0.577
-0.018	-5.269	-0.577
-0.018	-5.261	-0.581
-0.015	-5.256	-0.588
-0.011	-5.257	-0.596
-0.006	-5.263	-0.602
-0.004	-5.272	-0.603
-0.004	-5.280	-0.598
-0.007	-5.285	-0.591
-0.011	-5.284	-0.583
0.120	-5.314	-0.666
0.121	-5.310	-0.658
0.122	-5.311	-0.649
0.121	-5.318	-0.642
0.121	-5.327	-0.641
0.120	-5.335	-0.645
0.118	-5.339	-0.653
0.118	-5.338	-0.662
0.118	-5.332	-0.669
0.119	-5.322	-0.670
0.231	-5.325	-0.675
0.232	-5.321	-0.667
0.233	-5.322	-0.657
0.232	-5.329	-0.651
0.232	-5.338	-0.649
0.231	-5.346	-0.653
0.229	-5.350	-0.662
0.229	-5.349	-0.671
0.229	-5.342	-0.677
0.230	-5.333	-0.679
0.145	-5.400	-0.786
0.146	-5.396	-0.778
0.146	-5.398	-0.769
0.146	-5.404	-0.762
0.145	-5.413	-0.760
0.145	-5.422	-0.765
0.144	-5.426	-0.773
0.144	-5.424	-0.782
0.144	-5.418	-0.789
0.145	-5.409	-0.790
0.226	-5.405	-0.789
0.227	-5.401	-0.781
0.227	-5.403	-0.772
0.227	-5.409	-0.765
0.226	-5.418	-0.764
0.226	-5.426	-0.768
0.225	-5.431	-0.776
0.225	-5.429	-0.785
0.225	-5.423	-0.792
0.225	-5.414	-0.794
0.170	-5.512	-0.879
0.167	-5.503	-0.877
0.166	-5.495	-0.880
0.168	-5.489	-0.887
0.171	-5.489	-0.895
0.175	-5.493	-0.902
0.178	-5.502	-0.905
0.179	-5.511	-0.902
0.178	-5.516	-0.895
0.174	-5.517	-0.886
0.100	-5.529	-0.907
0.097	-5.521	-0.905
0.096	-5.512	-0.907
0.098	-5.506	-0.915
0.101	-5.506	-0.923
0.105	-5.511	-0.930
0.108	-5.519	-0.932
0.109	-5.528	-0.930
0.107	-5.533	-0.922
0.104	-5.534	-0.914
0.205	-5.588	-1.014
0.204	-5.583	-1.007
0.203	-5.583	-0.997
0.202	-5.589	-0.990
0.201	-5.598	-0.988
0.201	-5.607	-0.992
0.202	-5.612	-0.999
0.203	-5.611	-1.009
0.204	-5.605	-1.016
0.205	-5.596	-1.018
0.241	-5.590	-1.010
0.241	-5.585	-1.003
0.240	-5.585	-0.993
0.239	-5.591	-0.986
0.238	-5.600	-0.984
0.238	-5.609	-0.988
0.238	-5.614	-0.995
0.239	-5.613	-1.005
0.240	-5.607	-1.012
0.241	-5.598	-1.014
0.247	-5.700	-1.120
0.250	-5.696	-1.112
0.247	-5.692	-1.104
0.239	-5.689	-1.099
0.230	-5.689	-1.099
0.223	-5.691	-1.105
0.220	-5.694	-1.113
0.223	-5.698	-1.121
0.230	-5.701	-1.125
0.239	-5.701	-1.125
0.246	-5.714	-1.113
0.249	-5.711	-1.105
0.246	-5.707	-1.097
0.238	-5.704	-1.092
0.229	-5.703	-1.093
0.221	-5.705	-1.098
0.219	-5.709	-1.106
0.222	-5.713	-1.114
0.229	-5.715	-1.119
0.238	-5.716	-1.118
-0.011	-4.962	-0.017
0.010	-4.960	-0.014
0.027	-4.970	-0.006
0.034	-4.987	0.004
0.028	-5.005	0.012
0.011	-5.018	0.016
-0.009	-5.020	0.013
-0.027	-5.010	0.005
-0.034	-4.993	-0.005
-0.028	-4.975	-0.013
0.120	-5.323	-0.714
0.141	-5.323	-0.710
0.156	-5.333	-0.699
0.161	-5.350	-0.687
0.152	-5.366	-0.677
0.134	-5.377	-0.674
0.114	-5.377	-0.679
0.098	-5.367	-0.689
0.094	-5.350	-0.701
0.103	-5.334	-0.711
0.308	-5.901	-1.365
0.327	-5.903	-1.357
0.339	-5.913	-1.343
0.338	-5.928	-1.328
0.325	-5.941	-1.317
0.305	-5.947	-1.315
0.286	-5.945	-1.323
0.274	-5.935	-1.337
0.275	-5.920	-1.353
0.288	-5.907	-1.363
0.424	-6.438	-1.783
0.442	-6.441	-1.772
0.450	-6.451	-1.756
0.446	-6.463	-1.739
0.430	-6.473	-1.729
0.410	-6.477	-1.729
0.392	-6.473	-1.740
0.384	-6.463	-1.756
0.388	-6.451	-1.773
0.404	-6.441	-1.783
0.546	-7.126	-2.185
0.563	-7.130	-2.173
0.569	-7.139	-2.155
0.562	-7.149	-2.138
0.545	-7.157	-2.128
0.524	-7.159	-2.130
0.507	-7.155	-2.142
0.501	-7.147	-2.161
0.508	-7.136	-2.178
0.525	-7.128	-2.187
0.628	-7.663	-2.447
0.644	-7.667	-2.434
0.648	-7.675	-2.415
0.640	-7.684	-2.397
0.622	-7.690	-2.389
0.601	-7.691	-2.391
0.586	-7.687	-2.405
0.581	-7.679	-2.424
0.589	-7.670	-2.441
0.607	-7.664	-2.450
0.690	-8.264	-2.696
0.705	-8.268	-2.681
0.709	-8.276	-2.662
0.699	-8.283	-2.645
0.681	-8.289	-2.637
0.660	-8.290	-2.640
0.645	-8.286	-2.655
0.642	-8.279	-2.674
0.651	-8.271	-2.691
0.669	-8.265	-2.699
0.779	-8.919	-2.942
0.793	-8.922	-2.927
0.796	-8.929	-2.907
0.787	-8.937	-2.890
0.768	-8.942	-2.882
0.748	-8.944	-2.886
0.733	-8.941	-2.901
0.730	-8.934	-2.921
0.739	-8.926	-2.938
0.758	-8.921	-2.946
0.895	-9.628	-3.183
0.909	-9.631	-3.167
0.911	-9.637	-3.147
0.901	-9.643	-3.130
0.882	-9.648	-3.123
0.861	-9.650	-3.128
0.847	-9.647	-3.143
0.845	-9.642	-3.163
0.855	-9.635	-3.180
0.874	-9.630	-3.188
1.002	-10.392	-3.386
1.015	-10.394	-3.370
1.016	-10.399	-3.350
1.005	-10.404	-3.333
0.986	-10.409	-3.326
0.966	-10.410	-3.332
0.952	-10.408	-3.348
0.951	-10.403	-3.368
0.962	-10.397	-3.385
0.982	-10.393	-3.392
1.104	-11.167	-3.558
1.117	-11.169	-3.541
1.118	-11.173	-3.521
1.106	-11.178	-3.504
1.086	-11.182	-3.498
1.066	-11.183	-3.504
1.053	-11.181	-3.521
1.053	-11.177	-3.541
1.065	-11.172	-3.558
1.084	-11.168	-3.564
1.194	-11.949	-3.708
1.206	-11.951	-3.691
1.206	-11.954	-3.671
1.194	-11.958	-3.654
1.174	-11.961	-3.648
1.154	-11.962	-3.655
1.142	-11.960	-3.672
1.142	-11.957	-3.693
1.154	-11.953	-3.709
1.174	-11.950	-3.715
1.260	-12.740	-3.817
1.272	-12.742	-3.800
1.270	-12.744	-3.779
1.257	-12.747	-3.763
1.237	-12.750	-3.758
1.218	-12.750	-3.765
1.206	-12.749	-3.783
1.207	-12.746	-3.804
1.220	-12.743	-3.820
1.240	-12.741	-3.825
1.287	-13.138	-3.861
1.298	-13.139	-3.844
1.297	-13.141	-3.823
1.284	-13.144	-3.807
1.263	-13.146	-3.802
1.244	-13.146	-3.810
1.233	-13.145	-3.827
1.234	-13.143	-3.848
1.247	-13.140	-3.864
1.268	-13.138	-3.869
-0.144	-5.037	-0.024
-0.145	-5.028	-0.022
-0.144	-5.020	-0.026
-0.142	-5.015	-0.033
-0.138	-5.016	-0.042
-0.135	-5.022	-0.048
-0.134	-5.031	-0.050
-0.134	-5.040	-0.046
-0.137	-5.044	-0.039
-0.141	-5.043	-0.030
-0.326	-5.050	-0.101
-0.328	-5.041	-0.099
-0.327	-5.033	-0.103
-0.324	-5.028	-0.111
-0.320	-5.029	-0.119
-0.317	-5.035	-0.125
-0.316	-5.044	-0.127
-0.317	-5.053	-0.123
-0.320	-5.057	-0.116
-0.323	-5.056	-0.107
-0.281	-5.082	-0.070
-0.272	-5.079	-0.071
-0.263	-5.081	-0.072
-0.257	-5.088	-0.071
-0.257	-5.097	-0.069
-0.261	-5.105	-0.067
-0.270	-5.108	-0.065
-0.279	-5.106	-0.065
-0.285	-5.099	-0.066
-0.286	-5.090	-0.068
-0.286	-5.119	-0.247
-0.286	-5.115	-0.239
-0.286	-5.116	-0.230
-0.286	-5.123	-0.223
-0.286	-5.132	-0.222
-0.286	-5.140	-0.226
-0.286	-5.144	-0.234
-0.286	-5.143	-0.243
-0.286	-5.136	-0.250
-0.286	-5.127	-0.251
-0.388	-5.168	-0.106
-0.383	-5.166	-0.098
-0.384	-5.165	-0.089
-0.389	-5.167	-0.081
-0.397	-5.171	-0.079
-0.405	-5.175	-0.082
-0.410	-5.177	-0.090
-0.409	-5.178	-0.099
-0.404	-5.176	-0.106
-0.396	-5.172	-0.109
-0.323	-5.309	-0.095
-0.319	-5.307	-0.087
-0.319	-5.306	-0.078
-0.325	-5.308	-0.071
-0.333	-5.312	-0.068
-0.341	-5.316	-0.071
-0.345	-5.318	-0.079
-0.345	-5.319	-0.088
-0.339	-5.317	-0.095
-0.331	-5.313	-0.098
-0.506	-5.257	-0.131
-0.501	-5.255	-0.124
-0.502	-5.254	-0.114
-0.508	-5.255	-0.107
-0.517	-5.258	-0.105
-0.525	-5.261	-0.109
-0.530	-5.263	-0.117
-0.529	-5.264	-0.126
-0.523	-5.263	-0.133
-0.514	-5.260	-0.135
-0.459	-5.408	-0.115
-0.455	-5.406	-0.107
-0.456	-5.405	-0.098
-0.462	-5.406	-0.091
-0.470	-5.409	-0.089
-0.478	-5.411	-0.092
-0.483	-5.414	-0.100
-0.482	-5.414	-0.109
-0.476	-5.413	-0.116
-0.467	-5.411	-0.118
-0.629	-5.365	-0.135
-0.630	-5.356	-0.132
-0.630	-5.347	-0.135
-0.629	-5.341	-0.142
-0.627	-5.341	-0.151
-0.625	-5.346	-0.158
-0.625	-5.354	-0.162
-0.625	-5.363	-0.159
-0.626	-5.369	-0.152
-0.628	-5.370	-0.143
-0.745	-5.367	-0.157
-0.746	-5.359	-0.154
-0.746	-5.350	-0.156
-0.744	-5.344	-0.163
-0.743	-5.343	-0.172
-0.741	-5.348	-0.180
-0.740	-5.357	-0.183
-0.741	-5.366	-0.181
-0.742	-5.372	-0.174
-0.743	-5.372	-0.165
-0.746	-5.445	-0.172
-0.737	-5.442	-0.173
-0.728	-5.443	-0.173
-0.722	-5.450	-0.173
-0.721	-5.459	-0.172
-0.725	-5.467	-0.170
-0.734	-5.471	-0.169
-0.743	-5.469	-0.169
-0.749	-5.462	-0.170
-0.750	-5.453	-0.171
-0.751	-5.458	-0.266
-0.743	-5.454	-0.267
-0.733	-5.456	-0.267
-0.727	-5.463	-0.266
-0.726	-5.472	-0.265
-0.731	-5.480	-0.264
-0.739	-5.484	-0.263
-0.748	-5.482	-0.263
-0.754	-5.475	-0.263
-0.756	-5.466	-0.264
-0.828	-5.574	-0.195
-0.824	-5.566	-0.191
-0.826	-5.557	-0.189
-0.832	-5.551	-0.190
-0.840	-5.548	-0.193
-0.848	-5.552	-0.198
-0.851	-5.559	-0.202
-0.850	-5.568	-0.204
-0.844	-5.575	-0.203
-0.835	-5.577	-0.200
-0.856	-5.592	-0.137
-0.852	-5.585	-0.133
-0.854	-5.576	-0.131
-0.860	-5.569	-0.132
-0.869	-5.567	-0.135
-0.876	-5.570	-0.139
-0.879	-5.578	-0.144
-0.878	-5.586	-0.146
-0.872	-5.593	-0.145
-0.863	-5.596	-0.142
-0.927	-5.671	-0.233
-0.924	-5.667	-0.226
-0.925	-5.665	-0.217
-0.930	-5.666	-0.210
-0.938	-5.670	-0.207
-0.946	-5.675	-0.210
-0.949	-5.679	-0.218
-0.948	-5.681	-0.227
-0.943	-5.679	-0.234
-0.935	-5.675	-0.236
-0.907	-5.706	-0.224
-0.903	-5.702	-0.217
-0.904	-5.701	-0.208
-0.910	-5.702	-0.201
[...]
         <CellData>
           <DataArray type="Float32" Name="combinedRootClassID" NumberOfComponents="1" format="ascii">
 -1.300e+01 -1.300e+01 -1.300e+01 -1.300e+01 -1.300e+01 -1.300e+01 -1.300e+01 -1.300e+01 -1.300e+01 -5.000e+00 -5.000e+00 -5.000e+00 -5.000e+00 -5.000e+00 -5.000e+00 -5.000e+00 -5.000e+00 -5.000e+00 -5.000e+00 -5.000e+00 -5.000e+00 -5.000e+00 -1.300e+01 -1.300e+01 -1.300e+01 -1.300e+01 -1.300e+01 -1.300e+01 -1.300e+01 -1.300e+01 -1.300e+01 -5.000e+00 -5.000e+00 -5.000e+00 -5.000e+00 -5.000e+00 -5.000e+00 -5.000e+00 -5.000e+00 -5.000e+00 -5.000e+00 -5.000e+00 -5.000e+00 -5.000e+00 -1.300e+01 -1.300e+01 -1.300e+01 -1.300e+01 -1.300e+01 -1.300e+01 -1.300e+01 -1.300e+01 -1.300e+01 -5.000e+00 -5.000e+00 -5.000e+00 -5.000e+00 -5.000e+00 -5.000e+00 -5.000e+00 -5.000e+00 -5.000e+00 -5.000e+00 -5.000e+00 -5.000e+00 -5.000e+00 -1.300e+01 -1.300e+01 -1.300e+01 -1.300e+01 -1.300e+01 -1.300e+01 -1.300e+01 -1.300e+01 -1.300e+01 -5.000e+00 -5.000e+00 -5.000e+00 -5.000e+00 -5.000e+00 -5.000e+00 -5.000e+00 -5.000e+00 -5.000e+00 -5.000e+00 -5.000e+00 -5.000e+00 -5.000e+00 -1.100e+01 -1.100e+01 -1.100e+01 -1.100e+01 -1.100e+01 -1.100e+01 -1.100e+01 -1.100e+01 -1.100e+01 -1.100e+01 -1.100e+01 -1.100e+01 -2.000e+00 -2.000e+00 -2.000e+00 -2.000e+00 -2.000e+00 -2.000e+00 -2.000e+00 -2.000e+00 -2.000e+00 -2.000e+00 -7.000e+00 -7.000e+00 -7.000e+00 -7.000e+00 -7.000e+00 -7.000e+00 -7.000e+00 -7.000e+00 -7.000e+00 -7.000e+00 -7.000e+00 -7.000e+00 -7.000e+00 -7.000e+00 -7.000e+00 -7.000e+00 -7.000e+00 -7.000e+00 -7.000e+00 -7.000e+00 -7.000e+00 -7.000e+00 -7.000e+00 -7.000e+00 -7.000e+00 -7.000e+00 -7.000e+00 -7.000e+00 -7.000e+00 -7.000e+00 -7.000e+00 -7.000e+00 -7.000e+00 -7.000e+00 -7.000e+00 -7.000e+00 -7.000e+00 -7.000e+00 -7.000e+00 -7.000e+00 -7.000e+00 -7.000e+00 -7.000e+00 -7.000e+00 -7.000e+00 -7.000e+00 -7.000e+00 -7.000e+00 -7.000e+00 -7.000e+00 -7.000e+00 -7.000e+00 -7.000e+00 -7.000e+00 -7.000e+00 -7.000e+00 -7.000e+00 -7.000e+00 -7.000e+00 -7.000e+00 -7.000e+00 -7.000e+00 -7.000e+00 -7.000e+00 -7.000e+00 -7.000e+00 -7.000e+00 -7.000e+00 -7.000e+00 -7.000e+00 -7.000e+00 -7.000e+00 -7.000e+00 -7.000e+00 -7.000e+00 -7.000e+00 -7.000e+00 -7.000e+00 -7.000e+00 -7.000e+00 -7.000e+00 -7.000e+00 -7.000e+00 -7.000e+00 -7.000e+00 -7.000e+00 -7.000e+00 -7.000e+00 -7.000e+00 -7.000e+00 -7.000e+00 -7.000e+00 -7.000e+00 -7.000e+00 -7.000e+00 -7.000e+00 -7.000e+00 -7.000e+00 -7.000e+00 -7.000e+00 -7.000e+00 -7.000e+00 -7.000e+00 -7.000e+00 -7.000e+00 -7.000e+00 -7.000e+00 -7.000e+00 -7.000e+00 -7.000e+00 -7.000e+00 -7.000e+00 -7.000e+00 -7.000e+00 -7.000e+00 -7.000e+00 -7.000e+00 -7.000e+00 -7.000e+00 -7.000e+00 -7.000e+00 -7.000e+00 -7.000e+00 -7.000e+00 -7.000e+00 -7.000e+00 -7.000e+00 -7.000e+00 -7.000e+00 -7.000e+00 -7.000e+00 -7.000e+00 -7.000e+00 -7.000e+00 -7.000e+00 -7.000e+00 -7.000e+00 -7.000e+00 -7.000e+00 -7.000e+00 -7.000e+00 -7.000e+00 -7.000e+00 -7.000e+00 -7.000e+00 -7.000e+00 -7.000e+00 -7.000e+00 -7.000e+00 -7.000e+00 -7.000e+00 -7.000e+00 -7.000e+00 -7.000e+00 -7.000e+00 -7.000e+00 -7.000e+00 -7.000e+00 -7.000e+00 -7.000e+00 -7.000e+00 -7.000e+00 -7.000e+00 -7.000e+00 -7.000e+00 -7.000e+00 -7.000e+00 -7.000e+00 -7.000e+00 -7.000e+00 -7.000e+00 -7.000e+00 -7.000e+00 -7.000e+00 -7.000e+00 -7.000e+00 -7.000e+00 -7.000e+00 -7.000e+00 -7.000e+00 -7.000e+00 -7.000e+00 -7.000e+00 -7.000e+00 -7.000e+00 -7.000e+00 -9.000e+00 -9.000e+00 -9.000e+00 -9.000e+00 -9.000e+00 -9.000e+00 -9.000e+00 -9.000e+00 -9.000e+00 -9.000e+00 -9.000e+00 -9.000e+00 -4.000e+00 -4.000e+00 -4.000e+00 -4.000e+00 -4.000e+00 -4.000e+00 -4.000e+00 -4.000e+00 -4.000e+00 -4.000e+00 -4.000e+00 -4.000e+00 -4.000e+00 -4.000e+00 -4.000e+00 -4.000e+00 -4.000e+00 -4.000e+00 -4.000e+00 -4.000e+00 -4.000e+00 -4.000e+00 -4.000e+00 -4.000e+00 -4.000e+00 -4.000e+00 -4.000e+00
           </DataArray>
           <DataArray type="Float32" Name="nitrate/Cmin" NumberOfComponents="1" format="ascii">
 1.000e-03 1.000e-03 1.000e-03 1.000e-03 1.000e-03 1.000e-03 1.000e-03 1.000e-03 1.000e-03 1.000e-03 1.000e-03 1.000e-03 1.000e-03 1.000e-03 1.000e-03 1.000e-03 1.000e-03 1.000e-03 1.000e-03 1.000e-03 1.000e-03 1.000e-03 1.000e-03 1.000e-03 1.000e-03 1.000e-03 1.000e-03 1.000e-03 1.000e-03 1.000e-03 1.000e-03 1.000e-03 1.000e-03 1.000e-03 1.000e-03 1.000e-03 1.000e-03 1.000e-03 1.000e-03 1.000e-03 1.000e-03 1.000e-03 1.000e-03 1.000e-03 1.000e-03 1.000e-03 1.000e-03 1.000e-03 1.000e-03 1.000e-03 1.000e-03 1.000e-03 1.000e-03 1.000e-03 1.000e-03 1.000e-03 1.000e-03 1.000e-03 1.000e-03 1.000e-03 1.000e-03 1.000e-03 1.000e-03 1.000e-03 1.000e-03 1.000e-03 1.000e-03 1.000e-03 1.000e-03 1.000e-03 1.000e-03 1.000e-03 1.000e-03 1.000e-03 1.000e-03 1.000e-03 1.000e-03 1.000e-03 1.000e-03 1.000e-03 1.000e-03 1.000e-03 1.000e-03 1.000e-03 1.000e-03 1.000e-03 1.000e-03 1.000e-03 1.000e-03 1.000e-03 1.000e-03 1.000e-03 1.000e-03 1.000e-03 1.000e-03 1.000e-03 1.000e-03 1.000e-03 1.000e-03 1.000e-03 1.000e-03 1.000e-03 1.000e-03 1.000e-03 1.000e-03 1.000e-03 1.000e-03 1.000e-03 1.000e-03 1.000e-03 1.000e-03 1.000e-03 1.000e-03 1.000e-03 1.000e-03 1.000e-03 1.000e-03 1.000e-03 1.000e-03 1.000e-03 1.000e-03 1.000e-03 1.000e-03 1.000e-03 1.000e-03 1.000e-03 1.000e-03 1.000e-03 1.000e-03 1.000e-03 1.000e-03 1.000e-03 1.000e-03 1.000e-03 1.000e-03 1.000e-03 1.000e-03 1.000e-03 1.000e-03 1.000e-03 1.000e-03 1.000e-03 1.000e-03 1.000e-03 1.000e-03 1.000e-03 1.000e-03 1.000e-03 1.000e-03 1.000e-03 1.000e-03 1.000e-03 1.000e-03 1.000e-03 1.000e-03 1.000e-03 1.000e-03 1.000e-03 1.000e-03 1.000e-03 1.000e-03 1.000e-03 1.000e-03 1.000e-03 1.000e-03 1.000e-03 1.000e-03 1.000e-03 1.000e-03 1.000e-03 1.000e-03 1.000e-03 1.000e-03 1.000e-03 1.000e-03 1.000e-03 1.000e-03 1.000e-03 1.000e-03 1.000e-03 1.000e-03 1.000e-03 1.000e-03 1.000e-03 1.000e-03 1.000e-03 1.000e-03 1.000e-03 1.000e-03 1.000e-03 1.000e-03 1.000e-03 1.000e-03 1.000e-03 1.000e-03 1.000e-03 1.000e-03 1.000e-03 1.000e-03 1.000e-03 1.000e-03 1.000e-03 1.000e-03 1.000e-03 1.000e-03 1.000e-03 1.000e-03 1.000e-03 1.000e-03 1.000e-03 1.000e-03 1.000e-03 1.000e-03 1.000e-03 1.000e-03 1.000e-03 1.000e-03 1.000e-03 1.000e-03 1.000e-03 1.000e-03 1.000e-03 1.000e-03 1.000e-03 1.000e-03 1.000e-03 1.000e-03 1.000e-03 1.000e-03 1.000e-03 1.000e-03 1.000e-03 1.000e-03 1.000e-03 1.000e-03 1.000e-03 1.000e-03 1.000e-03 1.000e-03 1.000e-03 1.000e-03 1.000e-03 1.000e-03 1.000e-03 1.000e-03 1.000e-03 1.000e-03 1.000e-03 1.000e-03 1.000e-03 1.000e-03 1.000e-03 1.000e-03 1.000e-03 1.000e-03 1.000e-03 1.000e-03 1.000e-03 1.000e-03 1.000e-03 1.000e-03 1.000e-03 1.000e-03 1.000e-03 1.000e-03 1.000e-03 1.000e-03 1.000e-03 1.000e-03 1.000e-03 1.000e-03 1.000e-03 1.000e-03 1.000e-03 1.000e-03 1.000e-03 1.000e-03 1.000e-03 1.000e-03 1.000e-03 1.000e-03 1.000e-03 1.000e-03 1.000e-03 1.000e-03 1.000e-03 1.000e-03 1.000e-03 1.000e-03 1.000e-03 1.000e-03 1.000e-03 1.000e-03 1.000e-03 1.000e-03 1.000e-03 1.000e-03 1.000e-03 1.000e-03 1.000e-03 1.000e-03 1.000e-03 1.000e-03 1.000e-03 1.000e-03 1.000e-03 1.000e-03 1.000e-03 1.000e-03 1.000e-03 1.000e-03 1.000e-03 1.000e-03 1.000e-03 1.000e-03 1.000e-03 1.000e-03 1.000e-03 1.000e-03 1.000e-03 1.000e-03 1.000e-03 1.000e-03 1.000e-03 1.000e-03 1.000e-03 1.000e-03 1.000e-03 1.000e-03 1.000e-03 1.000e-03 1.000e-03 1.000e-03 1.000e-03 1.000e-03
           </DataArray>
           <DataArray type="Float32" Name="nitrate/Imax" NumberOfComponents="1" format="ascii">
 1.900e+00 1.900e+00 1.900e+00 1.900e+00 1.900e+00 1.900e+00 1.900e+00 1.900e+00 1.900e+00 1.900e+00 1.900e+00 1.900e+00 1.900e+00 1.900e+00 1.900e+00 1.900e+00 1.900e+00 1.900e+00 1.900e+00 1.900e+00 1.900e+00 1.900e+00 1.900e+00 1.900e+00 1.900e+00 1.900e+00 1.900e+00 1.900e+00 1.900e+00 1.900e+00 1.900e+00 1.900e+00 1.900e+00 1.900e+00 1.900e+00 1.900e+00 1.900e+00 1.900e+00 1.900e+00 1.900e+00 1.900e+00 1.900e+00 1.900e+00 1.900e+00 1.900e+00 1.900e+00 1.900e+00 1.900e+00 1.900e+00 1.900e+00 1.900e+00 1.900e+00 1.900e+00 1.900e+00 1.900e+00 1.900e+00 1.900e+00 1.900e+00 1.900e+00 1.900e+00 1.900e+00 1.900e+00 1.900e+00 1.900e+00 1.900e+00 1.900e+00 1.900e+00 1.900e+00 1.900e+00 1.900e+00 1.900e+00 1.900e+00 1.900e+00 1.900e+00 1.900e+00 1.900e+00 1.900e+00 1.900e+00 1.900e+00 1.900e+00 1.900e+00 1.900e+00 1.900e+00 1.900e+00 1.900e+00 1.900e+00 1.900e+00 1.900e+00 1.900e+00 1.900e+00 1.900e+00 1.900e+00 1.900e+00 1.900e+00 1.900e+00 1.900e+00 1.900e+00 1.900e+00 1.900e+00 1.900e+00 1.900e+00 1.900e+00 1.900e+00 1.900e+00 1.900e+00 1.900e+00 1.900e+00 1.900e+00 1.900e+00 1.900e+00 1.900e+00 1.900e+00 1.900e+00 1.900e+00 1.900e+00 1.900e+00 1.900e+00 1.900e+00 1.900e+00 1.900e+00 1.900e+00 1.900e+00 1.900e+00 1.900e+00 1.900e+00 1.900e+00 1.900e+00 1.900e+00 1.900e+00 1.900e+00 1.900e+00 1.900e+00 1.900e+00 1.900e+00 1.900e+00 1.900e+00 1.900e+00 1.900e+00 1.900e+00 1.900e+00 1.900e+00 1.900e+00 1.900e+00 1.900e+00 1.900e+00 1.900e+00 1.900e+00 1.900e+00 1.900e+00 1.900e+00 1.900e+00 1.900e+00 1.900e+00 1.900e+00 1.900e+00 1.900e+00 1.900e+00 1.900e+00 1.900e+00 1.900e+00 1.900e+00 1.900e+00 1.900e+00 1.900e+00 1.900e+00 1.900e+00 1.900e+00 1.900e+00 1.900e+00 1.900e+00 1.900e+00 1.900e+00 1.900e+00 1.900e+00 1.900e+00 1.900e+00 1.900e+00 1.900e+00 1.900e+00 1.900e+00 1.900e+00 1.900e+00 1.900e+00 1.900e+00 1.900e+00 1.900e+00 1.900e+00 1.900e+00 1.900e+00 1.900e+00 1.900e+00 1.900e+00 1.900e+00 1.900e+00 1.900e+00 1.900e+00 1.900e+00 1.900e+00 1.900e+00 1.900e+00 1.900e+00 1.900e+00 1.900e+00 1.900e+00 1.900e+00 1.900e+00 1.900e+00 1.900e+00 1.900e+00 1.900e+00 1.900e+00 1.900e+00 1.900e+00 1.900e+00 1.900e+00 1.900e+00 1.900e+00 1.900e+00 1.900e+00 1.900e+00 1.900e+00 1.900e+00 1.900e+00 1.900e+00 1.900e+00 1.900e+00 1.900e+00 1.900e+00 1.900e+00 1.900e+00 1.900e+00 1.900e+00 1.900e+00 1.900e+00 1.900e+00 1.900e+00 1.900e+00 1.900e+00 1.900e+00 1.900e+00 1.900e+00 1.900e+00 1.900e+00 1.900e+00 1.900e+00 1.900e+00 1.900e+00 1.900e+00 1.900e+00 1.900e+00 1.900e+00 1.900e+00 1.900e+00 1.900e+00 1.900e+00 1.900e+00 1.900e+00 1.900e+00 1.900e+00 1.900e+00 1.900e+00 1.900e+00 1.900e+00 1.900e+00 1.900e+00 1.900e+00 1.900e+00 1.900e+00 1.900e+00 1.900e+00 1.900e+00 1.900e+00 1.900e+00 1.900e+00 1.900e+00 1.900e+00 1.900e+00 1.900e+00 1.900e+00 1.900e+00 1.900e+00 1.900e+00 1.900e+00 1.900e+00 1.900e+00 1.900e+00 1.900e+00 1.900e+00 1.900e+00 1.900e+00 1.900e+00 1.900e+00 1.900e+00 1.900e+00 1.900e+00 1.900e+00 1.900e+00 1.900e+00 1.900e+00 1.900e+00 1.900e+00 1.900e+00 1.900e+00 1.900e+00 1.900e+00 1.900e+00 1.900e+00 1.900e+00 1.900e+00 1.900e+00 1.900e+00 1.900e+00 1.900e+00 1.900e+00 1.900e+00 1.900e+00 1.900e+00 1.900e+00 1.900e+00 1.900e+00 1.900e+00 1.900e+00 1.900e+00 1.900e+00 1.900e+00 1.900e+00 1.900e+00 1.900e+00 1.900e+00 1.900e+00 1.900e+00 1.900e+00 1.900e+00 1.900e+00 1.900e+00
           </DataArray>
           <DataArray type="Float32" Name="nitrate/Km" NumberOfComponents="1" format="ascii">
 1.610e-02 1.610e-02 1.610e-02 1.610e-02 1.610e-02 1.610e-02 1.610e-02 1.610e-02 1.610e-02 1.610e-02 1.610e-02 1.610e-02 1.610e-02 1.610e-02 1.610e-02 1.610e-02 1.610e-02 1.610e-02 1.610e-02 1.610e-02 1.610e-02 1.610e-02 1.610e-02 1.610e-02 1.610e-02 1.610e-02 1.610e-02 1.610e-02 1.610e-02 1.610e-02 1.610e-02 1.610e-02 1.610e-02 1.610e-02 1.610e-02 1.610e-02 1.610e-02 1.610e-02 1.610e-02 1.610e-02 1.610e-02 1.610e-02 1.610e-02 1.610e-02 1.610e-02 1.610e-02 1.610e-02 1.610e-02 1.610e-02 1.610e-02 1.610e-02 1.610e-02 1.610e-02 1.610e-02 1.610e-02 1.610e-02 1.610e-02 1.610e-02 1.610e-02 1.610e-02 1.610e-02 1.610e-02 1.610e-02 1.610e-02 1.610e-02 1.610e-02 1.610e-02 1.610e-02 1.610e-02 1.610e-02 1.610e-02 1.610e-02 1.610e-02 1.610e-02 1.610e-02 1.610e-02 1.610e-02 1.610e-02 1.610e-02 1.610e-02 1.610e-02 1.610e-02 1.610e-02 1.610e-02 1.610e-02 1.610e-02 1.610e-02 1.610e-02 1.610e-02 1.610e-02 1.610e-02 1.610e-02 1.610e-02 1.610e-02 1.610e-02 1.610e-02 1.610e-02 1.610e-02 1.610e-02 1.610e-02 1.610e-02 1.610e-02 1.610e-02 1.610e-02 1.610e-02 1.610e-02 1.610e-02 1.610e-02 1.610e-02 1.610e-02 1.610e-02 1.610e-02 1.610e-02 1.610e-02 1.610e-02 1.610e-02 1.610e-02 1.610e-02 1.610e-02 1.610e-02 1.610e-02 1.610e-02 1.610e-02 1.610e-02 1.610e-02 1.610e-02 1.610e-02 1.610e-02 1.610e-02 1.610e-02 1.610e-02 1.610e-02 1.610e-02 1.610e-02 1.610e-02 1.610e-02 1.610e-02 1.610e-02 1.610e-02 1.610e-02 1.610e-02 1.610e-02 1.610e-02 1.610e-02 1.610e-02 1.610e-02 1.610e-02 1.610e-02 1.610e-02 1.610e-02 1.610e-02 1.610e-02 1.610e-02 1.610e-02 1.610e-02 1.610e-02 1.610e-02 1.610e-02 1.610e-02 1.610e-02 1.610e-02 1.610e-02 1.610e-02 1.610e-02 1.610e-02 1.610e-02 1.610e-02 1.610e-02 1.610e-02 1.610e-02 1.610e-02 1.610e-02 1.610e-02 1.610e-02 1.610e-02 1.610e-02 1.610e-02 1.610e-02 1.610e-02 1.610e-02 1.610e-02 1.610e-02 1.610e-02 1.610e-02 1.610e-02 1.610e-02 1.610e-02 1.610e-02 1.610e-02 1.610e-02 1.610e-02 1.610e-02 1.610e-02 1.610e-02 1.610e-02 1.610e-02 1.610e-02 1.610e-02 1.610e-02 1.610e-02 1.610e-02 1.610e-02 1.610e-02 1.610e-02 1.610e-02 1.610e-02 1.610e-02 1.610e-02 1.610e-02 1.610e-02 1.610e-02 1.610e-02 1.610e-02 1.610e-02 1.610e-02 1.610e-02 1.610e-02 1.610e-02 1.610e-02 1.610e-02 1.610e-02 1.610e-02 1.610e-02 1.610e-02 1.610e-02 1.610e-02 1.610e-02 1.610e-02 1.610e-02 1.610e-02 1.610e-02 1.610e-02 1.610e-02 1.610e-02 1.610e-02 1.610e-02 1.610e-02 1.610e-02 1.610e-02 1.610e-02 1.610e-02 1.610e-02 1.610e-02 1.610e-02 1.610e-02 1.610e-02 1.610e-02 1.610e-02 1.610e-02 1.610e-02 1.610e-02 1.610e-02 1.610e-02 1.610e-02 1.610e-02 1.610e-02 1.610e-02 1.610e-02 1.610e-02 1.610e-02 1.610e-02 1.610e-02 1.610e-02 1.610e-02 1.610e-02 1.610e-02 1.610e-02 1.610e-02 1.610e-02 1.610e-02 1.610e-02 1.610e-02 1.610e-02 1.610e-02 1.610e-02 1.610e-02 1.610e-02 1.610e-02 1.610e-02 1.610e-02 1.610e-02 1.610e-02 1.610e-02 1.610e-02 1.610e-02 1.610e-02 1.610e-02 1.610e-02 1.610e-02 1.610e-02 1.610e-02 1.610e-02 1.610e-02 1.610e-02 1.610e-02 1.610e-02 1.610e-02 1.610e-02 1.610e-02 1.610e-02 1.610e-02 1.610e-02 1.610e-02 1.610e-02 1.610e-02 1.610e-02 1.610e-02 1.610e-02 1.610e-02 1.610e-02 1.610e-02 1.610e-02 1.610e-02 1.610e-02 1.610e-02 1.610e-02 1.610e-02 1.610e-02 1.610e-02 1.610e-02 1.610e-02 1.610e-02 1.610e-02 1.610e-02 1.610e-02 1.610e-02 1.610e-02 1.610e-02 1.610e-02 1.610e-02 1.610e-02 1.610e-02 1.610e-02 1.610e-02 1.610e-02
           </DataArray>
           <DataArray type="Float32" Name="nitrate/minimalNutrientConcentration" NumberOfComponents="1" format="ascii">
 6.000e+02 6.000e+02 6.000e+02 6.000e+02 6.000e+02 6.000e+02 6.000e+02 6.000e+02 6.000e+02 6.000e+02 6.000e+02 6.000e+02 6.000e+02 6.000e+02 6.000e+02 6.000e+02 6.000e+02 6.000e+02 6.000e+02 6.000e+02 6.000e+02 6.000e+02 6.000e+02 6.000e+02 6.000e+02 6.000e+02 6.000e+02 6.000e+02 6.000e+02 6.000e+02 6.000e+02 6.000e+02 6.000e+02 6.000e+02 6.000e+02 6.000e+02 6.000e+02 6.000e+02 6.000e+02 6.000e+02 6.000e+02 6.000e+02 6.000e+02 6.000e+02 6.000e+02 6.000e+02 6.000e+02 6.000e+02 6.000e+02 6.000e+02 6.000e+02 6.000e+02 6.000e+02 6.000e+02 6.000e+02 6.000e+02 6.000e+02 6.000e+02 6.000e+02 6.000e+02 6.000e+02 6.000e+02 6.000e+02 6.000e+02 6.000e+02 6.000e+02 6.000e+02 6.000e+02 6.000e+02 6.000e+02 6.000e+02 6.000e+02 6.000e+02 6.000e+02 6.000e+02 6.000e+02 6.000e+02 6.000e+02 6.000e+02 6.000e+02 6.000e+02 6.000e+02 6.000e+02 6.000e+02 6.000e+02 6.000e+02 6.000e+02 6.000e+02 6.000e+02 6.000e+02 6.000e+02 6.000e+02 6.000e+02 6.000e+02 6.000e+02 6.000e+02 6.000e+02 6.000e+02 6.000e+02 6.000e+02 6.000e+02 6.000e+02 6.000e+02 6.000e+02 6.000e+02 6.000e+02 6.000e+02 6.000e+02 6.000e+02 6.000e+02 6.000e+02 6.000e+02 6.000e+02 6.000e+02 6.000e+02 6.000e+02 6.000e+02 6.000e+02 6.000e+02 6.000e+02 6.000e+02 6.000e+02 6.000e+02 6.000e+02 6.000e+02 6.000e+02 6.000e+02 6.000e+02 6.000e+02 6.000e+02 6.000e+02 6.000e+02 6.000e+02 6.000e+02 6.000e+02 6.000e+02 6.000e+02 6.000e+02 6.000e+02 6.000e+02 6.000e+02 6.000e+02 6.000e+02 6.000e+02 6.000e+02 6.000e+02 6.000e+02 6.000e+02 6.000e+02 6.000e+02 6.000e+02 6.000e+02 6.000e+02 6.000e+02 6.000e+02 6.000e+02 6.000e+02 6.000e+02 6.000e+02 6.000e+02 6.000e+02 6.000e+02 6.000e+02 6.000e+02 6.000e+02 6.000e+02 6.000e+02 6.000e+02 6.000e+02 6.000e+02 6.000e+02 6.000e+02 6.000e+02 6.000e+02 6.000e+02 6.000e+02 6.000e+02 6.000e+02 6.000e+02 6.000e+02 6.000e+02 6.000e+02 6.000e+02 6.000e+02 6.000e+02 6.000e+02 6.000e+02 6.000e+02 6.000e+02 6.000e+02 6.000e+02 6.000e+02 6.000e+02 6.000e+02 6.000e+02 6.000e+02 6.000e+02 6.000e+02 6.000e+02 6.000e+02 6.000e+02 6.000e+02 6.000e+02 6.000e+02 6.000e+02 6.000e+02 6.000e+02 6.000e+02 6.000e+02 6.000e+02 6.000e+02 6.000e+02 6.000e+02 6.000e+02 6.000e+02 6.000e+02 6.000e+02 6.000e+02 6.000e+02 6.000e+02 6.000e+02 6.000e+02 6.000e+02 6.000e+02 6.000e+02 6.000e+02 6.000e+02 6.000e+02 6.000e+02 6.000e+02 6.000e+02 6.000e+02 6.000e+02 6.000e+02 6.000e+02 6.000e+02 6.000e+02 6.000e+02 6.000e+02 6.000e+02 6.000e+02 6.000e+02 6.000e+02 6.000e+02 6.000e+02 6.000e+02 6.000e+02 6.000e+02 6.000e+02 6.000e+02 6.000e+02 6.000e+02 6.000e+02 6.000e+02 6.000e+02 6.000e+02 6.000e+02 6.000e+02 6.000e+02 6.000e+02 6.000e+02 6.000e+02 6.000e+02 6.000e+02 6.000e+02 6.000e+02 6.000e+02 6.000e+02 6.000e+02 6.000e+02 6.000e+02 6.000e+02 6.000e+02 6.000e+02 6.000e+02 6.000e+02 6.000e+02 6.000e+02 6.000e+02 6.000e+02 6.000e+02 6.000e+02 6.000e+02 6.000e+02 6.000e+02 6.000e+02 6.000e+02 6.000e+02 6.000e+02 6.000e+02 6.000e+02 6.000e+02 6.000e+02 6.000e+02 6.000e+02 6.000e+02 6.000e+02 6.000e+02 6.000e+02 6.000e+02 6.000e+02 6.000e+02 6.000e+02 6.000e+02 6.000e+02 6.000e+02 6.000e+02 6.000e+02 6.000e+02 6.000e+02 6.000e+02 6.000e+02 6.000e+02 6.000e+02 6.000e+02 6.000e+02 6.000e+02 6.000e+02 6.000e+02 6.000e+02 6.000e+02 6.000e+02 6.000e+02 6.000e+02 6.000e+02 6.000e+02 6.000e+02 6.000e+02 6.000e+02 6.000e+02 6.000e+02 6.000e+02 6.000e+02 6.000e+02 6.000e+02
           </DataArray>
           <DataArray type="Float32" Name="nitrate/nutrientConcentrationAtTheRootSurface" NumberOfComponents="1" format="ascii">