<?xml version="1.0"?>
<VTKFile type="UnstructuredGrid" version="0.1" byte_order="LittleEndian">
   <UnstructuredGrid>
      <Piece NumberOfPoints="8690" NumberOfCells="594">
         <Points>
            <DataArray type="Float32" Name="Position" NumberOfComponents="3" format="ascii">
0.036	-5.032	-0.153
0.041	-5.032	-0.144
0.039	-5.032	-0.135
0.033	-5.033	-0.129
0.024	-5.033	-0.127
0.015	-5.033	-0.131
0.011	-5.032	-0.139
0.012	-5.032	-0.148
0.019	-5.031	-0.155
0.028	-5.031	-0.157
0.033	-5.840	-0.194
0.038	-5.840	-0.185
0.037	-5.840	-0.176
0.030	-5.841	-0.170
0.021	-5.841	-0.168
0.013	-5.841	-0.172
0.008	-5.840	-0.180
0.009	-5.840	-0.189
0.016	-5.839	-0.196
0.025	-5.839	-0.198
0.051	-5.102	-0.266
0.048	-5.094	-0.262
0.046	-5.085	-0.264
0.047	-5.078	-0.271
0.049	-5.077	-0.280
0.052	-5.081	-0.288
0.055	-5.089	-0.291
0.056	-5.098	-0.289
0.056	-5.105	-0.282
0.054	-5.106	-0.273
-0.756	-5.283	-0.494
-0.759	-5.274	-0.491
-0.760	-5.265	-0.493
-0.760	-5.259	-0.500
-0.758	-5.258	-0.508
-0.754	-5.262	-0.516
-0.752	-5.270	-0.519
-0.750	-5.279	-0.517
-0.751	-5.286	-0.511
-0.753	-5.287	-0.502
0.304	-5.894	-1.331
0.304	-5.889	-1.324
0.302	-5.888	-1.315
0.299	-5.893	-1.308
0.297	-5.901	-1.305
0.295	-5.910	-1.307
0.296	-5.916	-1.314
0.298	-5.916	-1.323
0.300	-5.912	-1.331
0.303	-5.903	-1.334
0.890	-6.021	-1.202
0.889	-6.015	-1.195
0.887	-6.014	-1.186
0.885	-6.019	-1.178
0.882	-6.028	-1.175
0.881	-6.036	-1.178
0.881	-6.042	-1.185
0.883	-6.043	-1.194
0.886	-6.038	-1.201
0.888	-6.030	-1.204
0.332	-6.003	-1.430
0.332	-5.998	-1.422
0.330	-5.997	-1.413
0.328	-6.002	-1.406
0.325	-6.011	-1.403
0.324	-6.020	-1.406
0.324	-6.025	-1.413
0.326	-6.026	-1.422
0.328	-6.021	-1.430
0.331	-6.012	-1.433
0.886	-6.123	-1.321
0.888	-6.117	-1.315
0.885	-6.111	-1.309
0.878	-6.107	-1.305
0.868	-6.107	-1.305
0.861	-6.111	-1.309
0.858	-6.117	-1.315
0.861	-6.123	-1.322
0.869	-6.127	-1.325
0.878	-6.127	-1.325
0.349	-6.132	-1.502
0.347	-6.123	-1.500
0.348	-6.114	-1.504
0.350	-6.109	-1.512
0.354	-6.110	-1.520
0.358	-6.116	-1.526
0.359	-6.125	-1.527
0.359	-6.134	-1.524
0.356	-6.138	-1.516
0.352	-6.138	-1.508
-0.132	-6.187	-1.716
-0.133	-6.178	-1.715
-0.133	-6.170	-1.719
-0.130	-6.165	-1.726
-0.126	-6.166	-1.734
-0.123	-6.172	-1.741
-0.121	-6.181	-1.742
-0.122	-6.190	-1.738
-0.124	-6.194	-1.731
-0.128	-6.193	-1.722
0.365	-6.228	-1.609
0.373	-6.225	-1.608
0.382	-6.227	-1.606
0.388	-6.234	-1.605
0.389	-6.243	-1.605
0.384	-6.251	-1.605
0.376	-6.255	-1.606
0.367	-6.252	-1.608
0.361	-6.245	-1.609
0.360	-6.236	-1.609
0.455	-6.254	-2.082
0.459	-6.254	-2.074
0.458	-6.254	-2.065
0.451	-6.254	-2.058
0.442	-6.254	-2.057
0.434	-6.254	-2.061
0.429	-6.254	-2.069
0.431	-6.254	-2.078
0.437	-6.254	-2.085
0.447	-6.254	-2.086
0.410	-6.370	-1.694
0.412	-6.364	-1.687
0.409	-6.357	-1.682
0.402	-6.352	-1.680
0.393	-6.350	-1.683
0.387	-6.352	-1.689
0.384	-6.358	-1.696
0.387	-6.365	-1.701
0.394	-6.371	-1.702
0.403	-6.373	-1.700
0.248	-6.660	-1.383
0.250	-6.655	-1.376
0.247	-6.647	-1.371
0.240	-6.642	-1.370
0.231	-6.640	-1.372
0.224	-6.642	-1.378
0.222	-6.648	-1.385
0.225	-6.655	-1.390
0.232	-6.661	-1.391
0.241	-6.663	-1.389
0.424	-6.475	-1.785
0.424	-6.470	-1.777
0.423	-6.471	-1.768
0.422	-6.477	-1.760
0.421	-6.486	-1.758
0.420	-6.494	-1.762
0.420	-6.499	-1.769
0.421	-6.499	-1.779
0.422	-6.493	-1.786
0.423	-6.484	-1.788
0.867	-6.543	-1.725
0.875	-6.543	-1.721
0.884	-6.543	-1.723
0.891	-6.543	-1.729
0.892	-6.543	-1.738
0.888	-6.543	-1.747
0.880	-6.543	-1.751
0.871	-6.543	-1.749
0.864	-6.543	-1.743
0.863	-6.543	-1.734
0.446	-6.602	-1.863
0.446	-6.596	-1.855
0.446	-6.597	-1.846
0.444	-6.602	-1.839
0.442	-6.611	-1.837
0.441	-6.620	-1.840
0.441	-6.625	-1.848
0.442	-6.625	-1.857
0.444	-6.619	-1.864
0.445	-6.610	-1.866
0.876	-6.672	-1.826
0.876	-6.667	-1.819
0.875	-6.668	-1.809
0.873	-6.673	-1.802
0.872	-6.682	-1.800
0.871	-6.691	-1.803
0.870	-6.696	-1.811
0.871	-6.695	-1.820
0.873	-6.690	-1.827
0.874	-6.681	-1.830
0.465	-6.748	-1.918
0.460	-6.741	-1.915
0.457	-6.732	-1.917
0.458	-6.726	-1.924
0.461	-6.724	-1.933
0.466	-6.727	-1.940
0.471	-6.734	-1.942
0.474	-6.743	-1.940
0.474	-6.749	-1.933
0.470	-6.751	-1.925
0.041	-6.951	-2.129
0.036	-6.944	-2.127
0.033	-6.935	-2.129
0.033	-6.929	-2.136
0.036	-6.927	-2.144
0.041	-6.930	-2.151
0.046	-6.937	-2.154
0.049	-6.946	-2.152
0.049	-6.952	-2.145
0.046	-6.954	-2.136
0.477	-6.854	-2.006
0.486	-6.850	-2.005
0.495	-6.852	-2.004
0.501	-6.859	-2.003
0.502	-6.868	-2.003
0.497	-6.876	-2.003
0.489	-6.880	-2.004
0.480	-6.878	-2.005
0.474	-6.871	-2.006
0.473	-6.862	-2.007
0.516	-6.861	-2.353
0.525	-6.857	-2.352
0.534	-6.859	-2.351
0.540	-6.866	-2.350
0.541	-6.876	-2.350
0.536	-6.884	-2.350
0.527	-6.887	-2.351
0.518	-6.885	-2.352
0.512	-6.878	-2.353
0.511	-6.869	-2.353
0.522	-7.001	-2.082
0.524	-6.996	-2.075
0.521	-6.990	-2.069
0.514	-6.986	-2.065
0.504	-6.985	-2.066
0.497	-6.988	-2.072
0.495	-6.993	-2.079
0.498	-6.999	-2.086
0.505	-7.003	-2.089
0.514	-7.004	-2.088
0.437	-7.268	-1.854
0.445	-7.264	-1.854
0.454	-7.266	-1.854
0.461	-7.272	-1.854
0.462	-7.281	-1.854
0.458	-7.289	-1.854
0.450	-7.294	-1.854
0.441	-7.292	-1.854
0.434	-7.286	-1.854
0.433	-7.277	-1.854
0.087	-5.166	-0.415
0.091	-5.165	-0.407
0.089	-5.165	-0.398
0.082	-5.164	-0.392
0.073	-5.164	-0.390
0.065	-5.165	-0.395
0.061	-5.166	-0.403
0.063	-5.166	-0.412
0.069	-5.167	-0.418
0.079	-5.166	-0.420
0.083	-5.990	-0.343
0.092	-5.986	-0.343
0.101	-5.987	-0.343
0.107	-5.994	-0.343
0.109	-6.003	-0.343
0.105	-6.011	-0.343
0.096	-6.015	-0.343
0.087	-6.014	-0.343
0.081	-6.007	-0.343
0.079	-5.998	-0.343
0.537	-7.118	-2.160
0.537	-7.112	-2.153
0.535	-7.111	-2.144
0.532	-7.115	-2.137
0.529	-7.123	-2.133
0.526	-7.132	-2.136
0.526	-7.138	-2.143
0.528	-7.139	-2.152
0.532	-7.135	-2.159
0.535	-7.127	-2.162
0.897	-7.230	-2.064
0.897	-7.224	-2.057
0.895	-7.223	-2.048
0.892	-7.227	-2.041
0.888	-7.235	-2.037
0.886	-7.244	-2.040
0.886	-7.250	-2.047
0.888	-7.251	-2.056
0.892	-7.247	-2.063
0.895	-7.239	-2.066
0.565	-7.264	-2.221
0.568	-7.258	-2.215
0.565	-7.251	-2.209
0.557	-7.246	-2.207
0.548	-7.245	-2.209
0.541	-7.248	-2.214
0.539	-7.254	-2.220
0.542	-7.261	-2.226
0.549	-7.266	-2.228
0.558	-7.267	-2.226
0.485	-7.483	-1.990
0.488	-7.477	-1.984
0.485	-7.470	-1.978
0.477	-7.465	-1.976
0.469	-7.463	-1.978
0.461	-7.466	-1.983
0.459	-7.472	-1.989
0.462	-7.479	-1.995
0.469	-7.484	-1.997
0.478	-7.485	-1.995
0.578	-7.380	-2.299
0.578	-7.374	-2.291
0.577	-7.373	-2.282
0.574	-7.378	-2.275
0.571	-7.386	-2.272
0.570	-7.395	-2.275
0.570	-7.401	-2.282
0.572	-7.402	-2.291
0.574	-7.397	-2.298
0.577	-7.388	-2.301
0.869	-7.447	-2.239
0.869	-7.441	-2.232
0.867	-7.441	-2.223
0.864	-7.445	-2.215
0.862	-7.454	-2.212
0.860	-7.463	-2.215
0.860	-7.468	-2.222
0.862	-7.469	-2.231
0.865	-7.464	-2.239
0.867	-7.456	-2.242
0.597	-7.514	-2.361
0.599	-7.509	-2.353
0.598	-7.509	-2.344
0.596	-7.514	-2.337
0.592	-7.522	-2.334
0.589	-7.530	-2.337
0.587	-7.536	-2.344
0.588	-7.536	-2.354
0.590	-7.531	-2.361
0.594	-7.523	-2.364
0.842	-7.616	-2.349
0.844	-7.611	-2.341
0.843	-7.611	-2.332
0.841	-7.616	-2.325
0.837	-7.624	-2.322
0.834	-7.633	-2.325
0.832	-7.638	-2.332
0.833	-7.638	-2.342
0.835	-7.633	-2.349
0.839	-7.625	-2.352
0.604	-7.646	-2.414
0.612	-7.643	-2.412
0.621	-7.646	-2.410
0.626	-7.653	-2.407
0.626	-7.662	-2.406
0.620	-7.670	-2.407
0.612	-7.673	-2.409
0.603	-7.670	-2.411
0.598	-7.663	-2.414
0.598	-7.653	-2.415
0.688	-7.684	-2.733
0.696	-7.681	-2.731
0.705	-7.683	-2.728
0.710	-7.691	-2.726
0.710	-7.700	-2.725
0.704	-7.707	-2.726
0.696	-7.710	-2.728
0.687	-7.708	-2.730
0.682	-7.700	-2.732
0.682	-7.691	-2.733
0.636	-7.805	-2.470
0.639	-7.798	-2.464
0.636	-7.791	-2.459
0.629	-7.786	-2.457
0.620	-7.784	-2.459
0.613	-7.788	-2.464
0.610	-7.794	-2.470
0.613	-7.801	-2.475
0.620	-7.807	-2.477
0.629	-7.808	-2.475
0.588	-7.931	-2.309
0.591	-7.925	-2.303
0.588	-7.917	-2.298
0.581	-7.912	-2.296
0.572	-7.911	-2.298
0.564	-7.914	-2.302
0.562	-7.920	-2.308
0.564	-7.928	-2.313
0.572	-7.933	-2.315
0.581	-7.934	-2.313
0.636	-7.945	-2.512
0.632	-7.937	-2.509
0.630	-7.929	-2.511
0.631	-7.922	-2.517
0.633	-7.921	-2.526
0.637	-7.925	-2.534
0.640	-7.933	-2.537
0.642	-7.941	-2.535
0.642	-7.948	-2.528
0.639	-7.949	-2.520
0.433	-7.979	-2.584
0.441	-7.975	-2.584
0.451	-7.976	-2.584
0.457	-7.983	-2.584
0.459	-7.992	-2.584
0.454	-8.000	-2.584
0.446	-8.004	-2.584
0.437	-8.003	-2.584
0.430	-7.996	-2.584
0.429	-7.987	-2.584
0.663	-8.081	-2.584
0.666	-8.075	-2.578
0.663	-8.067	-2.573
0.655	-8.062	-2.571
0.647	-8.061	-2.573
0.639	-8.064	-2.578
0.637	-8.070	-2.584
0.639	-8.078	-2.589
0.647	-8.083	-2.590
0.656	-8.085	-2.588
0.605	-8.171	-2.452
0.605	-8.167	-2.443
0.605	-8.168	-2.434
0.605	-8.175	-2.428
0.605	-8.184	-2.426
0.605	-8.192	-2.430
0.605	-8.196	-2.439
0.605	-8.195	-2.448
0.605	-8.188	-2.454
0.605	-8.179	-2.456
0.671	-8.202	-2.651
0.672	-8.196	-2.644
0.671	-8.196	-2.634
0.669	-8.201	-2.627
0.666	-8.209	-2.624
0.663	-8.218	-2.627
0.663	-8.223	-2.635
0.664	-8.223	-2.644
0.666	-8.218	-2.651
0.669	-8.210	-2.654
0.799	-8.242	-2.624
0.807	-8.238	-2.624
0.817	-8.240	-2.624
0.823	-8.246	-2.624
0.825	-8.255	-2.624
0.820	-8.264	-2.624
0.812	-8.268	-2.624
0.803	-8.266	-2.624
0.796	-8.260	-2.624
0.795	-8.251	-2.624
0.688	-8.341	-2.707
0.688	-8.335	-2.700
0.686	-8.334	-2.691
0.683	-8.338	-2.683
0.680	-8.347	-2.680
0.678	-8.355	-2.682
0.679	-8.362	-2.689
0.681	-8.362	-2.698
0.684	-8.358	-2.706
0.687	-8.350	-2.709
0.838	-8.375	-2.667
0.837	-8.369	-2.660
0.835	-8.368	-2.651
0.832	-8.372	-2.644
0.829	-8.381	-2.641
0.828	-8.389	-2.643
0.828	-8.396	-2.650
0.830	-8.397	-2.659
0.833	-8.392	-2.666
0.836	-8.384	-2.670
0.093	-5.252	-0.519
0.091	-5.243	-0.517
0.091	-5.235	-0.521
0.094	-5.230	-0.528
0.098	-5.230	-0.537
0.101	-5.236	-0.543
0.104	-5.245	-0.545
0.103	-5.253	-0.541
0.101	-5.258	-0.533
0.097	-5.258	-0.525
-0.532	-5.360	-0.801
-0.535	-5.351	-0.799
-0.534	-5.343	-0.803
-0.532	-5.338	-0.810
-0.528	-5.338	-0.819
-0.524	-5.344	-0.825
-0.522	-5.353	-0.827
-0.522	-5.361	-0.823
-0.525	-5.366	-0.815
-0.529	-5.366	-0.807
0.703	-8.479	-2.759
0.704	-8.474	-2.751
0.704	-8.474	-2.742
0.701	-8.479	-2.735
[...]
         <CellData>
           <DataArray type="Float32" Name="combinedRootClassID" NumberOfComponents="1" format="ascii">
 -1.300e+01 -1.300e+01 -1.300e+01 -1.300e+01 -1.300e+01 -1.300e+01 -1.300e+01 -1.300e+01 -1.300e+01 -1.300e+01 -1.300e+01 -1.300e+01 -1.300e+01 -1.300e+01 -1.300e+01 -1.300e+01 -1.300e+01 -1.300e+01 -1.300e+01 -1.300e+01 -1.300e+01 -1.300e+01 -1.300e+01 -1.300e+01 -1.300e+01 -1.300e+01 -1.300e+01 -1.300e+01 -1.300e+01 -1.300e+01 -1.300e+01 -1.300e+01 -1.300e+01 -1.300e+01 -1.300e+01 -1.300e+01 -5.000e+00 -5.000e+00 -5.000e+00 -5.000e+00 -5.000e+00 -5.000e+00 -5.000e+00 -5.000e+00 -5.000e+00 -5.000e+00 -5.000e+00 -5.000e+00 -5.000e+00 -5.000e+00 -5.000e+00 -5.000e+00 -5.000e+00 -5.000e+00 -1.300e+01 -1.300e+01 -1.300e+01 -1.300e+01 -1.300e+01 -1.300e+01 -1.300e+01 -1.300e+01 -1.300e+01 -1.300e+01 -1.300e+01 -1.300e+01 -1.300e+01 -1.300e+01 -1.300e+01 -1.300e+01 -1.300e+01 -1.300e+01 -1.300e+01 -1.300e+01 -1.300e+01 -1.300e+01 -1.300e+01 -1.300e+01 -1.300e+01 -1.300e+01 -1.300e+01 -1.300e+01 -1.300e+01 -1.300e+01 -1.300e+01 -1.300e+01 -1.300e+01 -1.300e+01 -1.300e+01 -1.300e+01 -5.000e+00 -5.000e+00 -5.000e+00 -5.000e+00 -5.000e+00 -5.000e+00 -5.000e+00 -5.000e+00 -5.000e+00 -5.000e+00 -5.000e+00 -5.000e+00 -5.000e+00 -5.000e+00 -5.000e+00 -5.000e+00 -5.000e+00 -5.000e+00 -1.300e+01 -1.300e+01 -1.300e+01 -1.300e+01 -1.300e+01 -1.300e+01 -1.300e+01 -1.300e+01 -1.300e+01 -1.300e+01 -1.300e+01 -1.300e+01 -1.300e+01 -1.300e+01 -1.300e+01 -1.300e+01 -1.300e+01 -1.300e+01 -1.300e+01 -1.300e+01 -1.300e+01 -1.300e+01 -1.300e+01 -1.300e+01 -1.300e+01 -1.300e+01 -1.300e+01 -1.300e+01 -1.300e+01 -1.300e+01 -1.300e+01 -1.300e+01 -1.300e+01 -1.300e+01 -1.300e+01 -1.300e+01 -5.000e+00 -5.000e+00 -5.000e+00 -5.000e+00 -5.000e+00 -5.000e+00 -5.000e+00 -5.000e+00 -5.000e+00 -5.000e+00 -5.000e+00 -5.000e+00 -5.000e+00 -5.000e+00 -5.000e+00 -5.000e+00 -5.000e+00 -5.000e+00 -1.300e+01 -1.300e+01 -1.300e+01 -1.300e+01 -1.300e+01 -1.300e+01 -1.300e+01 -1.300e+01 -1.300e+01 -1.300e+01 -1.300e+01 -1.300e+01 -1.300e+01 -1.300e+01 -1.300e+01 -1.300e+01 -1.300e+01 -1.300e+01 -1.300e+01 -1.300e+01 -1.300e+01 -1.300e+01 -1.300e+01 -1.300e+01 -1.300e+01 -1.300e+01 -1.300e+01 -1.300e+01 -1.300e+01 -1.300e+01 -1.300e+01 -1.300e+01 -1.300e+01 -1.300e+01 -1.300e+01 -1.300e+01 -1.300e+01 -1.300e+01 -5.000e+00 -5.000e+00 -5.000e+00 -5.000e+00 -5.000e+00 -5.000e+00 -5.000e+00 -5.000e+00 -5.000e+00 -5.000e+00 -5.000e+00 -5.000e+00 -5.000e+00 -5.000e+00 -5.000e+00 -5.000e+00 -5.000e+00 -5.000e+00 -1.100e+01 -1.100e+01 -1.100e+01 -1.100e+01 -1.100e+01 -1.100e+01 -1.100e+01 -1.100e+01 -1.100e+01 -1.100e+01 -1.100e+01 -1.100e+01 -1.100e+01 -1.100e+01 -1.100e+01 -1.100e+01 -1.100e+01 -1.100e+01 -1.100e+01 -1.100e+01 -1.100e+01 -1.100e+01 -1.100e+01 -1.100e+01 -1.100e+01 -1.100e+01 -1.100e+01 -1.100e+01 -2.000e+00 -2.000e+00 -2.000e+00 -2.000e+00 -2.000e+00 -2.000e+00 -2.000e+00 -2.000e+00 -2.000e+00 -2.000e+00 -7.000e+00 -7.000e+00 -7.000e+00 -7.000e+00 -7.000e+00 -7.000e+00 -7.000e+00 -7.000e+00 -7.000e+00 -7.000e+00 -7.000e+00 -7.000e+00 -7.000e+00 -7.000e+00 -7.000e+00 -7.000e+00 -7.000e+00 -7.000e+00 -7.000e+00 -7.000e+00 -7.000e+00 -7.000e+00 -7.000e+00 -7.000e+00 -7.000e+00 -7.000e+00 -7.000e+00 -7.000e+00 -7.000e+00 -7.000e+00 -7.000e+00 -7.000e+00 -7.000e+00 -7.000e+00 -7.000e+00 -7.000e+00 -7.000e+00 -7.000e+00 -7.000e+00 -7.000e+00 -7.000e+00 -7.000e+00 -7.000e+00 -7.000e+00 -7.000e+00 -7.000e+00 -7.000e+00 -7.000e+00 -7.000e+00 -7.000e+00 -7.000e+00 -7.000e+00 -7.000e+00 -7.000e+00 -7.000e+00 -7.000e+00 -7.000e+00 -7.000e+00 -7.000e+00 -7.000e+00 -7.000e+00 -7.000e+00 -7.000e+00 -7.000e+00 -7.000e+00 -7.000e+00 -7.000e+00 -7.000e+00 -7.000e+00 -7.000e+00 -7.000e+00 -7.000e+00 -7.000e+00 -7.000e+00 -7.000e+00 -7.000e+00 -7.000e+00 -7.000e+00 -7.000e+00 -7.000e+00 -7.000e+00 -7.000e+00 -7.000e+00 -7.000e+00 -7.000e+00 -7.000e+00 -7.000e+00 -7.000e+00 -7.000e+00 -7.000e+00 -7.000e+00 -7.000e+00 -7.000e+00 -7.000e+00 -7.000e+00 -7.000e+00 -7.000e+00 -7.000e+00 -7.000e+00 -7.000e+00 -7.000e+00 -7.000e+00 -7.000e+00 -7.000e+00 -7.000e+00 -7.000e+00 -7.000e+00 -7.000e+00 -7.000e+00 -7.000e+00 -7.000e+00 -7.000e+00 -7.000e+00 -7.000e+00 -7.000e+00 -7.000e+00 -7.000e+00 -7.000e+00 -7.000e+00 -7.000e+00 -7.000e+00 -7.000e+00 -7.000e+00 -7.000e+00 -7.000e+00 -7.000e+00 -7.000e+00 -7.000e+00 -7.000e+00 -7.000e+00 -7.000e+00 -7.000e+00 -7.000e+00 -7.000e+00 -7.000e+00 -7.000e+00 -7.000e+00 -7.000e+00 -7.000e+00 -7.000e+00 -7.000e+00 -7.000e+00 -7.000e+00 -7.000e+00 -7.000e+00 -7.000e+00 -7.000e+00 -7.000e+00 -7.000e+00 -7.000e+00 -7.000e+00 -7.000e+00 -7.000e+00 -7.000e+00 -7.000e+00 -7.000e+00 -7.000e+00 -7.000e+00 -7.000e+00 -7.000e+00 -7.000e+00 -7.000e+00 -7.000e+00 -7.000e+00 -7.000e+00 -7.000e+00 -7.000e+00 -7.000e+00 -7.000e+00 -7.000e+00 -7.000e+00 -7.000e+00 -7.000e+00 -7.000e+00 -7.000e+00 -7.000e+00 -7.000e+00 -7.000e+00 -7.000e+00 -7.000e+00 -7.000e+00 -7.000e+00 -7.000e+00 -7.000e+00 -7.000e+00 -7.000e+00 -7.000e+00 -7.000e+00 -7.000e+00 -7.000e+00 -7.000e+00 -7.000e+00 -7.000e+00 -7.000e+00 -7.000e+00 -7.000e+00 -7.000e+00 -7.000e+00 -7.000e+00 -7.000e+00 -7.000e+00 -7.000e+00 -7.000e+00 -7.000e+00 -7.000e+00 -7.000e+00 -7.000e+00 -7.000e+00 -7.000e+00 -7.000e+00 -7.000e+00 -7.000e+00 -7.000e+00 -7.000e+00 -7.000e+00 -7.000e+00 -7.000e+00 -7.000e+00 -7.000e+00 -7.000e+00 -7.000e+00 -7.000e+00 -7.000e+00 -7.000e+00 -7.000e+00 -7.000e+00 -7.000e+00 -7.000e+00 -7.000e+00 -7.000e+00 -7.000e+00 -7.000e+00 -7.000e+00 -7.000e+00 -7.000e+00 -7.000e+00 -7.000e+00 -7.000e+00 -7.000e+00 -7.000e+00 -7.000e+00 -7.000e+00 -7.000e+00 -7.000e+00 -7.000e+00 -7.000e+00 -7.000e+00 -7.000e+00 -7.000e+00 -7.000e+00 -7.000e+00 -7.000e+00 -7.000e+00 -7.000e+00 -7.000e+00 -7.000e+00 -7.000e+00 -7.000e+00 -7.000e+00 -7.000e+00 -7.000e+00 -7.000e+00 -7.000e+00 -7.000e+00 -7.000e+00 -7.000e+00 -7.000e+00 -7.000e+00 -7.000e+00 -7.000e+00 -7.000e+00 -7.000e+00 -7.000e+00 -7.000e+00 -7.000e+00 -7.000e+00 -7.000e+00 -7.000e+00 -7.000e+00 -7.000e+00 -7.000e+00 -7.000e+00 -7.000e+00 -7.000e+00 -7.000e+00 -7.000e+00 -1.500e+01 -1.500e+01 -1.500e+01 -9.000e+00 -9.000e+00 -9.000e+00 -9.000e+00 -9.000e+00 -9.000e+00 -9.000e+00 -9.000e+00 -9.000e+00 -9.000e+00 -9.000e+00 -9.000e+00 -9.000e+00 -9.000e+00 -9.000e+00 -9.000e+00 -9.000e+00 -9.000e+00 -9.000e+00 -4.000e+00 -4.000e+00 -4.000e+00 -4.000e+00 -4.000e+00 -4.000e+00 -4.000e+00 -4.000e+00 -4.000e+00 -4.000e+00 -4.000e+00 -4.000e+00 -4.000e+00 -4.000e+00 -4.000e+00 -4.000e+00 -4.000e+00 -4.000e+00 -4.000e+00 -4.000e+00 -4.000e+00 -4.000e+00 -4.000e+00 -4.000e+00 -4.000e+00 -4.000e+00 -4.000e+00 -4.000e+00 -4.000e+00 -4.000e+00
           </DataArray>
           <DataArray type="Float32" Name="nitrate/Cmin" NumberOfComponents="1" format="ascii">
 1.000e-03 1.000e-03 1.000e-03 1.000e-03 1.000e-03 1.000e-03 1.000e-03 1.000e-03 1.000e-03 1.000e-03 1.000e-03 1.000e-03 1.000e-03 1.000e-03 1.000e-03 1.000e-03 1.000e-03 1.000e-03 1.000e-03 1.000e-03 1.000e-03 1.000e-03 1.000e-03 1.000e-03 1.000e-03 1.000e-03 1.000e-03 1.000e-03 1.000e-03 1.000e-03 1.000e-03 1.000e-03 1.000e-03 1.000e-03 1.000e-03 1.000e-03 1.000e-03 1.000e-03 1.000e-03 1.000e-03 1.000e-03 1.000e-03 1.000e-03 1.000e-03 1.000e-03 1.000e-03 1.000e-03 1.000e-03 1.000e-03 1.000e-03 1.000e-03 1.000e-03 1.000e-03 1.000e-03 1.000e-03 1.000e-03 1.000e-03 1.000e-03 1.000e-03 1.000e-03 1.000e-03 1.000e-03 1.000e-03 1.000e-03 1.000e-03 1.000e-03 1.000e-03 1.000e-03 1.000e-03 1.000e-03 1.000e-03 1.000e-03 1.000e-03 1.000e-03 1.000e-03 1.000e-03 1.000e-03 1.000e-03 1.000e-03 1.000e-03 1.000e-03 1.000e-03 1.000e-03 1.000e-03 1.000e-03 1.000e-03 1.000e-03 1.000e-03 1.000e-03 1.000e-03 1.000e-03 1.000e-03 1.000e-03 1.000e-03 1.000e-03 1.000e-03 1.000e-03 1.000e-03 1.000e-03 1.000e-03 1.000e-03 1.000e-03 1.000e-03 1.000e-03 1.000e-03 1.000e-03 1.000e-03 1.000e-03 1.000e-03 1.000e-03 1.000e-03 1.000e-03 1.000e-03 1.000e-03 1.000e-03 1.000e-03 1.000e-03 1.000e-03 1.000e-03 1.000e-03 1.000e-03 1.000e-03 1.000e-03 1.000e-03 1.000e-03 1.000e-03 1.000e-03 1.000e-03 1.000e-03 1.000e-03 1.000e-03 1.000e-03 1.000e-03 1.000e-03 1.000e-03 1.000e-03 1.000e-03 1.000e-03 1.000e-03 1.000e-03 1.000e-03 1.000e-03 1.000e-03 1.000e-03 1.000e-03 1.000e-03 1.000e-03 1.000e-03 1.000e-03 1.000e-03 1.000e-03 1.000e-03 1.000e-03 1.000e-03 1.000e-03 1.000e-03 1.000e-03 1.000e-03 1.000e-03 1.000e-03 1.000e-03 1.000e-03 1.000e-03 1.000e-03 1.000e-03 1.000e-03 1.000e-03 1.000e-03 1.000e-03 1.000e-03 1.000e-03 1.000e-03 1.000e-03 1.000e-03 1.000e-03 1.000e-03 1.000e-03 1.000e-03 1.000e-03 1.000e-03 1.000e-03 1.000e-03 1.000e-03 1.000e-03 1.000e-03 1.000e-03 1.000e-03 1.000e-03 1.000e-03 1.000e-03 1.000e-03 1.000e-03 1.000e-03 1.000e-03 1.000e-03 1.000e-03 1.000e-03 1.000e-03 1.000e-03 1.000e-03 1.000e-03 1.000e-03 1.000e-03 1.000e-03 1.000e-03 1.000e-03 1.000e-03 1.000e-03 1.000e-03 1.000e-03 1.000e-03 1.000e-03 1.000e-03 1.000e-03 1.000e-03 1.000e-03 1.000e-03 1.000e-03 1.000e-03 1.000e-03 1.000e-03 1.000e-03 1.000e-03 1.000e-03 1.000e-03 1.000e-03 1.000e-03 1.000e-03 1.000e-03 1.000e-03 1.000e-03 1.000e-03 1.000e-03 1.000e-03 1.000e-03 1.000e-03 1.000e-03 1.000e-03 1.000e-03 1.000e-03 1.000e-03 1.000e-03 1.000e-03 1.000e-03 1.000e-03 1.000e-03 1.000e-03 1.000e-03 1.000e-03 1.000e-03 1.000e-03 1.000e-03 1.000e-03 1.000e-03 1.000e-03 1.000e-03 1.000e-03 1.000e-03 1.000e-03 1.000e-03 1.000e-03 1.000e-03 1.000e-03 1.000e-03 1.000e-03 1.000e-03 1.000e-03 1.000e-03 1.000e-03 1.000e-03 1.000e-03 1.000e-03 1.000e-03 1.000e-03 1.000e-03 1.000e-03 1.000e-03 1.000e-03 1.000e-03 1.000e-03 1.000e-03 1.000e-03 1.000e-03 1.000e-03 1.000e-03 1.000e-03 1.000e-03 1.000e-03 1.000e-03 1.000e-03 1.000e-03 1.000e-03 1.000e-03 1.000e-03 1.000e-03 1.000e-03 1.000e-03 1.000e-03 1.000e-03 1.000e-03 1.000e-03 1.000e-03 1.000e-03 1.000e-03 1.000e-03 1.000e-03 1.000e-03 1.000e-03 1.000e-03 1.000e-03 1.000e-03 1.000e-03 1.000e-03 1.000e-03 1.000e-03 1.000e-03 1.000e-03 1.000e-03 1.000e-03 1.000e-03 1.000e-03 1.000e-03 1.000e-03 1.000e-03 1.000e-03 1.000e-03 1.000e-03 1.000e-03 1.000e-03 1.000e-03 1.000e-03 1.000e-03 1.000e-03 1.000e-03 1.000e-03 1.000e-03 1.000e-03 1.000e-03 1.000e-03 1.000e-03 1.000e-03 1.000e-03 1.000e-03 1.000e-03 1.000e-03 1.000e-03 1.000e-03 1.000e-03 1.000e-03 1.000e-03 1.000e-03 1.000e-03 1.000e-03 1.000e-03 1.000e-03 1.000e-03 1.000e-03 1.000e-03 1.000e-03 1.000e-03 1.000e-03 1.000e-03 1.000e-03 1.000e-03 1.000e-03 1.000e-03 1.000e-03 1.000e-03 1.000e-03 1.000e-03 1.000e-03 1.000e-03 1.000e-03 1.000e-03 1.000e-03 1.000e-03 1.000e-03 1.000e-03 1.000e-03 1.000e-03 1.000e-03 1.000e-03 1.000e-03 1.000e-03 1.000e-03 1.000e-03 1.000e-03 1.000e-03 1.000e-03 1.000e-03 1.000e-03 1.000e-03 1.000e-03 1.000e-03 1.000e-03 1.000e-03 1.000e-03 1.000e-03 1.000e-03 1.000e-03 1.000e-03 1.000e-03 1.000e-03 1.000e-03 1.000e-03 1.000e-03 1.000e-03 1.000e-03 1.000e-03 1.000e-03 1.000e-03 1.000e-03 1.000e-03 1.000e-03 1.000e-03 1.000e-03 1.000e-03 1.000e-03 1.000e-03 1.000e-03 1.000e-03 1.000e-03 1.000e-03 1.000e-03 1.000e-03 1.000e-03 1.000e-03 1.000e-03 1.000e-03 1.000e-03 1.000e-03 1.000e-03 1.000e-03 1.000e-03 1.000e-03 1.000e-03 1.000e-03 1.000e-03 1.000e-03 1.000e-03 1.000e-03 1.000e-03 1.000e-03 1.000e-03 1.000e-03 1.000e-03 1.000e-03 1.000e-03 1.000e-03 1.000e-03 1.000e-03 1.000e-03 1.000e-03 1.000e-03 1.000e-03 1.000e-03 1.000e-03 1.000e-03 1.000e-03 1.000e-03 1.000e-03 1.000e-03 1.000e-03 1.000e-03 1.000e-03 1.000e-03 1.000e-03 1.000e-03 1.000e-03 1.000e-03 1.000e-03 1.000e-03 1.000e-03 1.000e-03 1.000e-03 1.000e-03 1.000e-03 1.000e-03 1.000e-03 1.000e-03 1.000e-03 1.000e-03 1.000e-03 1.000e-03 1.000e-03 1.000e-03 1.000e-03 1.000e-03 1.000e-03 1.000e-03 1.000e-03 1.000e-03 1.000e-03 1.000e-03 1.000e-03 1.000e-03 1.000e-03 1.000e-03 1.000e-03 1.000e-03 1.000e-03 1.000e-03 1.000e-03 1.000e-03 1.000e-03 1.000e-03 1.000e-03 1.000e-03 1.000e-03 1.000e-03 1.000e-03 1.000e-03 1.000e-03 1.000e-03 1.000e-03 1.000e-03 1.000e-03 1.000e-03 1.000e-03 1.000e-03 1.000e-03 1.000e-03 1.000e-03 1.000e-03 1.000e-03 1.000e-03 1.000e-03 1.000e-03 1.000e-03 1.000e-03 1.000e-03 1.000e-03 1.000e-03 1.000e-03 1.000e-03 1.000e-03 1.000e-03 1.000e-03 1.000e-03 1.000e-03 1.000e-03 1.000e-03 1.000e-03 1.000e-03 1.000e-03 1.000e-03 1.000e-03 1.000e-03 1.000e-03 1.000e-03 1.000e-03 1.000e-03 1.000e-03 1.000e-03 1.000e-03 1.000e-03 1.000e-03 1.000e-03 1.000e-03 1.000e-03 1.000e-03 1.000e-03 1.000e-03 1.000e-03 1.000e-03 1.000e-03 1.000e-03 1.000e-03 1.000e-03 1.000e-03 1.000e-03 1.000e-03 1.000e-03 1.000e-03 1.000e-03 1.000e-03 1.000e-03 1.000e-03 1.000e-03 1.000e-03 1.000e-03 1.000e-03 1.000e-03 1.000e-03 1.000e-03 1.000e-03 1.000e-03 1.000e-03 1.000e-03 1.000e-03 1.000e-03 1.000e-03 1.000e-03 1.000e-03
           </DataArray>
           <DataArray type="Float32" Name="nitrate/Imax" NumberOfComponents="1" format="ascii">
 1.900e+00 1.900e+00 1.900e+00 1.900e+00 1.900e+00 1.900e+00 1.900e+00 1.900e+00 1.900e+00 1.900e+00 1.900e+00 1.900e+00 1.900e+00 1.900e+00 1.900e+00 1.900e+00 1.900e+00 1.900e+00 1.900e+00 1.900e+00 1.900e+00 1.900e+00 1.900e+00 1.900e+00 1.900e+00 1.900e+00 1.900e+00 1.900e+00 1.900e+00 1.900e+00 1.900e+00 1.900e+00 1.900e+00 1.900e+00 1.900e+00 1.900e+00 1.900e+00 1.900e+00 1.900e+00 1.900e+00 1.900e+00 1.900e+00 1.900e+00 1.900e+00 1.900e+00 1.900e+00 1.900e+00 1.900e+00 1.900e+00 1.900e+00 1.900e+00 1.900e+00 1.900e+00 1.900e+00 1.900e+00 1.900e+00 1.900e+00 1.900e+00 1.900e+00 1.900e+00 1.900e+00 1.900e+00 1.900e+00 1.900e+00 1.900e+00 1.900e+00 1.900e+00 1.900e+00 1.900e+00 1.900e+00 1.900e+00 1.900e+00 1.900e+00 1.900e+00 1.900e+00 1.900e+00 1.900e+00 1.900e+00 1.900e+00 1.900e+00 1.900e+00 1.900e+00 1.900e+00 1.900e+00 1.900e+00 1.900e+00 1.900e+00 1.900e+00 1.900e+00 1.900e+00 1.900e+00 1.900e+00 1.900e+00 1.900e+00 1.900e+00 1.900e+00 1.900e+00 1.900e+00 1.900e+00 1.900e+00 1.900e+00 1.900e+00 1.900e+00 1.900e+00 1.900e+00 1.900e+00 1.900e+00 1.900e+00 1.900e+00 1.900e+00 1.900e+00 1.900e+00 1.900e+00 1.900e+00 1.900e+00 1.900e+00 1.900e+00 1.900e+00 1.900e+00 1.900e+00 1.900e+00 1.900e+00 1.900e+00 1.900e+00 1.900e+00 1.900e+00 1.900e+00 1.900e+00 1.900e+00 1.900e+00 1.900e+00 1.900e+00 1.900e+00 1.900e+00 1.900e+00 1.900e+00 1.900e+00 1.900e+00 1.900e+00 1.900e+00 1.900e+00 1.900e+00 1.900e+00 1.900e+00 1.900e+00 1.900e+00 1.900e+00 1.900e+00 1.900e+00 1.900e+00 1.900e+00 1.900e+00 1.900e+00 1.900e+00 1.900e+00 1.900e+00 1.900e+00 1.900e+00 1.900e+00 1.900e+00 1.900e+00 1.900e+00 1.900e+00 1.900e+00 1.900e+00 1.900e+00 1.900e+00 1.900e+00 1.900e+00 1.900e+00 1.900e+00 1.900e+00 1.900e+00 1.900e+00 1.900e+00 1.900e+00 1.900e+00 1.900e+00 1.900e+00 1.900e+00 1.900e+00 1.900e+00 1.900e+00 1.900e+00 1.900e+00 1.900e+00 1.900e+00 1.900e+00 1.900e+00 1.900e+00 1.900e+00 1.900e+00 1.900e+00 1.900e+00 1.900e+00 1.900e+00 1.900e+00 1.900e+00 1.900e+00 1.900e+00 1.900e+00 1.900e+00 1.900e+00 1.900e+00 1.900e+00 1.900e+00 1.900e+00 1.900e+00 1.900e+00 1.900e+00 1.900e+00 1.900e+00 1.900e+00 1.900e+00 1.900e+00 1.900e+00 1.900e+00 1.900e+00 1.900e+00 1.900e+00 1.900e+00 1.900e+00 1.900e+00 1.900e+00 1.900e+00 1.900e+00 1.900e+00 1.900e+00 1.900e+00 1.900e+00 1.900e+00 1.900e+00 1.900e+00 1.900e+00 1.900e+00 1.900e+00 1.900e+00 1.900e+00 1.900e+00 1.900e+00 1.900e+00 1.900e+00 1.900e+00 1.900e+00 1.900e+00 1.900e+00 1.900e+00 1.900e+00 1.900e+00 1.900e+00 1.900e+00 1.900e+00 1.900e+00 1.900e+00 1.900e+00 1.900e+00 1.900e+00 1.900e+00 1.900e+00 1.900e+00 1.900e+00 1.900e+00 1.900e+00 1.900e+00 1.900e+00 1.900e+00 1.900e+00 1.900e+00 1.900e+00 1.900e+00 1.900e+00 1.900e+00 1.900e+00 1.900e+00 1.900e+00 1.900e+00 1.900e+00 1.900e+00 1.900e+00 1.900e+00 1.900e+00 1.900e+00 1.900e+00 1.900e+00 1.900e+00 1.900e+00 1.900e+00 1.900e+00 1.900e+00 1.900e+00 1.900e+00 1.900e+00 1.900e+00 1.900e+00 1.900e+00 1.900e+00 1.900e+00 1.900e+00 1.900e+00 1.900e+00 1.900e+00 1.900e+00 1.900e+00 1.900e+00 1.900e+00 1.900e+00 1.900e+00 1.900e+00 1.900e+00 1.900e+00 1.900e+00 1.900e+00 1.900e+00 1.900e+00 1.900e+00 1.900e+00 1.900e+00 1.900e+00 1.900e+00 1.900e+00 1.900e+00 1.900e+00 1.900e+00 1.900e+00 1.900e+00 1.900e+00 1.900e+00 1.900e+00 1.900e+00 1.900e+00 1.900e+00 1.900e+00 1.900e+00 1.900e+00 1.900e+00 1.900e+00 1.900e+00 1.900e+00 1.900e+00 1.900e+00 1.900e+00 1.900e+00 1.900e+00 1.900e+00 1.900e+00 1.900e+00 1.900e+00 1.900e+00 1.900e+00 1.900e+00 1.900e+00 1.900e+00 1.900e+00 1.900e+00 1.900e+00 1.900e+00 1.900e+00 1.900e+00 1.900e+00 1.900e+00 1.900e+00 1.900e+00 1.900e+00 1.900e+00 1.900e+00 1.900e+00 1.900e+00 1.900e+00 1.900e+00 1.900e+00 1.900e+00 1.900e+00 1.900e+00 1.900e+00 1.900e+00 1.900e+00 1.900e+00 1.900e+00 1.900e+00 1.900e+00 1.900e+00 1.900e+00 1.900e+00 1.900e+00 1.900e+00 1.900e+00 1.900e+00 1.900e+00 1.900e+00 1.900e+00 1.900e+00 1.900e+00 1.900e+00 1.900e+00 1.900e+00 1.900e+00 1.900e+00 1.900e+00 1.900e+00 1.900e+00 1.900e+00 1.900e+00 1.900e+00 1.900e+00 1.900e+00 1.900e+00 1.900e+00 1.900e+00 1.900e+00 1.900e+00 1.900e+00 1.900e+00 1.900e+00 1.900e+00 1.900e+00 1.900e+00 1.900e+00 1.900e+00 1.900e+00 1.900e+00 1.900e+00 1.900e+00 1.900e+00 1.900e+00 1.900e+00 1.900e+00 1.900e+00 1.900e+00 1.900e+00 1.900e+00 1.900e+00 1.900e+00 1.900e+00 1.900e+00 1.900e+00 1.900e+00 1.900e+00 1.900e+00 1.900e+00 1.900e+00 1.900e+00 1.900e+00 1.900e+00 1.900e+00 1.900e+00 1.900e+00 1.900e+00 1.900e+00 1.900e+00 1.900e+00 1.900e+00 1.900e+00 1.900e+00 1.900e+00 1.900e+00 1.900e+00 1.900e+00 1.900e+00 1.900e+00 1.900e+00 1.900e+00 1.900e+00 1.900e+00 1.900e+00 1.900e+00 1.900e+00 1.900e+00 1.900e+00 1.900e+00 1.900e+00 1.900e+00 1.900e+00 1.900e+00 1.900e+00 1.900e+00 1.900e+00 1.900e+00 1.900e+00 1.900e+00 1.900e+00 1.900e+00 1.900e+00 1.900e+00 1.900e+00 1.900e+00 1.900e+00 1.900e+00 1.900e+00 1.900e+00 1.900e+00 1.900e+00 1.900e+00 1.900e+00 1.900e+00 1.900e+00 1.900e+00 1.900e+00 1.900e+00 1.900e+00 1.900e+00 1.900e+00 1.900e+00 1.900e+00 1.900e+00 1.900e+00 1.900e+00 1.900e+00 1.900e+00 1.900e+00 1.900e+00 1.900e+00 1.900e+00 1.900e+00 1.900e+00 1.900e+00 1.900e+00 1.900e+00 1.900e+00 1.900e+00 1.900e+00 1.900e+00 1.900e+00 1.900e+00 1.900e+00 1.900e+00 1.900e+00 1.900e+00 1.900e+00 1.900e+00 1.900e+00 1.900e+00 1.900e+00 1.900e+00 1.900e+00 1.900e+00 1.900e+00 1.900e+00 1.900e+00 1.900e+00 1.900e+00 1.900e+00 1.900e+00 1.900e+00 1.900e+00 1.900e+00 1.900e+00 1.900e+00 1.900e+00 1.900e+00 1.900e+00 1.900e+00 1.900e+00 1.900e+00 1.900e+00 1.900e+00 1.900e+00 1.900e+00 1.900e+00 1.900e+00 1.900e+00 1.900e+00 1.900e+00 1.900e+00 1.900e+00 1.900e+00 1.900e+00 1.900e+00 1.900e+00 1.900e+00 1.900e+00 1.900e+00 1.900e+00 1.900e+00 1.900e+00 1.900e+00 1.900e+00 1.900e+00 1.900e+00 1.900e+00 1.900e+00 1.900e+00 1.900e+00 1.900e+00 1.900e+00 1.900e+00 1.900e+00 1.900e+00 1.900e+00 1.900e+00 1.900e+00 1.900e+00 1.900e+00 1.900e+00 1.900e+00
           </DataArray>
           <DataArray type="Float32" Name="nitrate/Km" NumberOfComponents="1" format="ascii">