<?xml version="1.0"?>
<VTKFile type="UnstructuredGrid" version="0.1" byte_order="LittleEndian">
   <UnstructuredGrid>
      <Piece NumberOfPoints="1470" NumberOfCells="98">
         <Points>
            <DataArray type="Float32" Name="Position" NumberOfComponents="3" format="ascii">
-0.011	-4.962	-0.017
0.010	-4.960	-0.014
0.027	-4.970	-0.006
0.034	-4.987	0.004
0.028	-5.005	0.012
0.011	-5.018	0.016
-0.009	-5.020	0.013
-0.026	-5.010	0.005
-0.033	-4.993	-0.005
-0.028	-4.975	-0.013
0.120	-5.323	-0.714
0.141	-5.323	-0.710
0.156	-5.333	-0.699
0.161	-5.350	-0.687
0.152	-5.366	-0.677
0.134	-5.377	-0.674
0.114	-5.377	-0.679
0.098	-5.367	-0.689
0.094	-5.350	-0.701
0.103	-5.334	-0.711
0.308	-5.901	-1.365
0.327	-5.903	-1.357
0.339	-5.913	-1.343
0.338	-5.928	-1.328
0.325	-5.941	-1.317
0.305	-5.947	-1.315
0.286	-5.945	-1.323
0.274	-5.935	-1.337
0.275	-5.920	-1.353
0.288	-5.907	-1.363
0.393	-6.433	-1.756
0.412	-6.424	-1.756
0.432	-6.427	-1.756
0.447	-6.442	-1.756
0.451	-6.463	-1.756
0.441	-6.481	-1.756
0.422	-6.491	-1.756
0.402	-6.488	-1.756
0.387	-6.473	-1.756
0.383	-6.452	-1.756
0.013	-5.018	0.014
0.003	-5.007	0.029
-0.008	-4.989	0.032
-0.016	-4.972	0.024
-0.018	-4.962	0.005
-0.013	-4.962	-0.015
-0.003	-4.973	-0.030
0.008	-4.991	-0.034
0.016	-5.008	-0.025
0.018	-5.018	-0.006
-0.641	-5.413	-0.149
-0.650	-5.407	-0.131
-0.663	-5.394	-0.122
-0.676	-5.377	-0.125
-0.683	-5.364	-0.140
-0.682	-5.360	-0.161
-0.673	-5.365	-0.179
-0.660	-5.379	-0.188
-0.647	-5.395	-0.185
-0.640	-5.408	-0.170
-1.218	-6.060	-0.276
-1.230	-6.052	-0.261
-1.247	-6.039	-0.257
-1.261	-6.027	-0.266
-1.267	-6.018	-0.284
-1.263	-6.018	-0.305
-1.251	-6.026	-0.320
-1.234	-6.038	-0.324
-1.220	-6.051	-0.315
-1.214	-6.059	-0.296
-1.619	-6.607	-0.371
-1.621	-6.608	-0.350
-1.633	-6.601	-0.334
-1.650	-6.590	-0.329
-1.665	-6.577	-0.337
-1.673	-6.569	-0.355
-1.670	-6.568	-0.376
-1.658	-6.575	-0.392
-1.642	-6.587	-0.397
-1.626	-6.599	-0.389
0.027	-5.010	-0.007
0.034	-4.993	0.003
0.028	-4.975	0.012
0.011	-4.963	0.016
-0.009	-4.961	0.014
-0.027	-4.970	0.006
-0.034	-4.987	-0.004
-0.028	-5.005	-0.013
-0.011	-5.017	-0.017
0.010	-5.019	-0.015
-0.075	-5.387	0.676
-0.068	-5.371	0.689
-0.075	-5.355	0.701
-0.092	-5.344	0.707
-0.112	-5.343	0.705
-0.129	-5.351	0.696
-0.136	-5.367	0.683
-0.129	-5.383	0.671
-0.112	-5.394	0.666
-0.091	-5.395	0.667
-0.155	-6.011	1.289
-0.149	-5.998	1.305
-0.156	-5.985	1.320
-0.173	-5.976	1.327
-0.194	-5.974	1.326
-0.211	-5.981	1.315
-0.217	-5.994	1.299
-0.210	-6.007	1.285
-0.193	-6.017	1.277
-0.172	-6.018	1.279
-0.287	-6.513	1.716
-0.269	-6.504	1.716
-0.248	-6.507	1.716
-0.233	-6.522	1.716
-0.230	-6.543	1.716
-0.239	-6.561	1.716
-0.258	-6.571	1.716
-0.279	-6.568	1.716
-0.294	-6.553	1.716
-0.297	-6.532	1.716
0.014	-4.977	-0.028
0.018	-4.963	-0.012
0.014	-4.960	0.008
0.006	-4.969	0.025
-0.005	-4.985	0.033
-0.014	-5.003	0.027
-0.018	-5.017	0.011
-0.014	-5.020	-0.009
-0.005	-5.011	-0.026
0.006	-4.995	-0.034
0.691	-5.353	0.138
0.696	-5.340	0.154
0.693	-5.337	0.175
0.683	-5.344	0.192
0.669	-5.358	0.199
0.658	-5.375	0.193
0.652	-5.387	0.177
0.656	-5.391	0.157
0.666	-5.384	0.140
0.679	-5.370	0.133
1.270	-5.993	0.339
1.278	-5.983	0.355
1.275	-5.979	0.376
1.263	-5.984	0.392
1.246	-5.995	0.399
1.231	-6.008	0.392
1.224	-6.019	0.376
1.227	-6.022	0.355
1.239	-6.018	0.339
1.255	-6.006	0.332
1.636	-6.557	0.480
1.645	-6.548	0.496
1.642	-6.544	0.517
1.629	-6.548	0.533
1.612	-6.558	0.539
1.596	-6.570	0.533
1.588	-6.580	0.516
1.590	-6.583	0.495
1.603	-6.579	0.479
1.620	-6.569	0.473
-0.150	-4.996	0.147
-0.035	-4.996	0.207
0.093	-4.997	0.188
0.186	-4.999	0.098
0.208	-5.001	-0.030
0.150	-5.004	-0.147
0.035	-5.004	-0.207
-0.093	-5.003	-0.188
-0.186	-5.001	-0.098
-0.208	-4.999	0.030
-0.145	-4.248	0.131
-0.031	-4.248	0.190
0.096	-4.248	0.171
0.188	-4.250	0.080
0.209	-4.251	-0.046
0.151	-4.252	-0.161
0.037	-4.253	-0.221
-0.090	-4.252	-0.201
-0.182	-4.251	-0.111
-0.203	-4.250	0.016
-0.144	-3.560	0.129
-0.030	-3.560	0.187
0.096	-3.560	0.167
0.187	-3.560	0.077
0.207	-3.561	-0.049
0.149	-3.561	-0.163
0.036	-3.561	-0.221
-0.091	-3.561	-0.202
-0.181	-3.560	-0.112
-0.201	-3.560	0.015
-0.141	-2.400	0.123
-0.027	-2.400	0.181
0.098	-2.400	0.161
0.188	-2.401	0.071
0.208	-2.401	-0.054
0.151	-2.401	-0.167
0.038	-2.401	-0.225
-0.088	-2.400	-0.205
-0.178	-2.400	-0.116
-0.198	-2.400	0.010
-0.138	-1.801	0.124
-0.025	-1.801	0.182
0.100	-1.801	0.162
0.190	-1.801	0.072
0.209	-1.800	-0.053
0.152	-1.800	-0.166
0.039	-1.800	-0.223
-0.086	-1.800	-0.203
-0.175	-1.800	-0.114
-0.195	-1.800	0.012
-0.139	-1.201	0.126
-0.026	-1.201	0.183
0.099	-1.200	0.163
0.188	-1.200	0.074
0.208	-1.200	-0.051
0.150	-1.200	-0.163
0.037	-1.200	-0.221
-0.087	-1.200	-0.201
-0.176	-1.200	-0.111
-0.196	-1.201	0.013
-0.139	-0.300	0.124
-0.027	-0.300	0.181
0.097	-0.300	0.162
0.186	-0.300	0.073
0.206	-0.301	-0.051
0.150	-0.301	-0.164
0.038	-0.301	-0.221
-0.087	-0.301	-0.202
-0.176	-0.300	-0.113
-0.196	-0.300	0.011
-0.136	0.560	0.119
-0.024	0.560	0.176
0.100	0.560	0.157
0.189	0.560	0.068
0.209	0.559	-0.056
0.152	0.559	-0.168
0.040	0.559	-0.225
-0.084	0.559	-0.206
-0.173	0.559	-0.117
-0.193	0.560	0.007
-0.137	1.440	0.117
-0.026	1.440	0.174
0.098	1.440	0.154
0.186	1.440	0.065
0.206	1.440	-0.058
0.149	1.440	-0.170
0.037	1.439	-0.227
-0.086	1.439	-0.207
-0.175	1.439	-0.118
-0.194	1.439	0.005
-0.137	2.317	0.116
-0.026	2.316	0.172
0.097	2.316	0.153
0.185	2.316	0.065
0.204	2.316	-0.058
0.148	2.316	-0.169
0.037	2.316	-0.225
-0.086	2.316	-0.206
-0.174	2.316	-0.118
-0.194	2.316	0.005
-0.136	2.570	0.114
-0.026	2.570	0.170
0.096	2.570	0.151
0.184	2.569	0.064
0.204	2.569	-0.058
0.148	2.569	-0.168
0.038	2.569	-0.225
-0.084	2.569	-0.206
-0.172	2.570	-0.119
-0.191	2.570	0.003
0.010	-5.088	-0.005
0.015	-5.085	0.002
0.018	-5.087	0.010
0.018	-5.094	0.017
0.016	-5.103	0.019
0.011	-5.110	0.015
0.007	-5.113	0.008
0.004	-5.111	-0.001
0.004	-5.105	-0.007
0.006	-5.096	-0.009
0.739	-5.362	-0.334
0.743	-5.359	-0.326
0.747	-5.361	-0.318
0.748	-5.368	-0.312
0.746	-5.377	-0.311
0.742	-5.384	-0.314
0.738	-5.388	-0.322
0.734	-5.385	-0.330
0.733	-5.378	-0.336
0.735	-5.369	-0.337
1.129	-5.427	-0.558
1.134	-5.424	-0.550
1.138	-5.427	-0.542
1.140	-5.434	-0.537
1.139	-5.443	-0.536
1.135	-5.451	-0.540
1.130	-5.454	-0.547
1.126	-5.451	-0.555
1.124	-5.444	-0.561
1.125	-5.435	-0.562
0.028	-5.211	0.016
0.030	-5.204	0.021
0.029	-5.195	0.022
0.025	-5.187	0.019
0.020	-5.184	0.012
0.015	-5.186	0.004
0.014	-5.193	-0.002
0.015	-5.203	-0.003
0.019	-5.210	0.001
0.024	-5.213	0.008
-0.650	-5.357	0.441
-0.647	-5.350	0.446
-0.648	-5.340	0.447
-0.652	-5.333	0.443
-0.657	-5.330	0.436
-0.661	-5.332	0.428
-0.663	-5.340	0.423
-0.663	-5.349	0.422
-0.659	-5.357	0.426
-0.654	-5.360	0.433
-1.040	-5.382	0.682
-1.036	-5.374	0.682
-1.037	-5.365	0.682
-1.044	-5.358	0.682
-1.053	-5.357	0.682
-1.061	-5.361	0.682
-1.065	-5.369	0.682
-1.064	-5.378	0.682
-1.057	-5.385	0.682
-1.048	-5.386	0.682
0.072	-6.093	0.018
0.073	-6.086	0.025
0.071	-6.084	0.033
0.066	-6.086	0.041
0.060	-6.093	0.044
0.056	-6.101	0.042
0.055	-6.107	0.036
0.057	-6.110	0.027
0.062	-6.107	0.020
0.068	-6.101	0.016
0.767	-6.519	0.333
0.768	-6.512	0.340
0.765	-6.510	0.348
0.761	-6.512	0.356
0.755	-6.519	0.359
0.751	-6.527	0.357
0.750	-6.533	0.351
0.752	-6.536	0.342
0.757	-6.533	0.335
0.763	-6.527	0.331
0.076	-6.208	0.033
0.080	-6.200	0.033
0.080	-6.191	0.033
0.074	-6.184	0.032
0.065	-6.182	0.031
0.056	-6.185	0.030
0.051	-6.193	0.030
0.052	-6.203	0.031
0.058	-6.210	0.031
0.067	-6.212	0.032
-0.003	-6.169	0.863
0.002	-6.161	0.863
0.000	-6.152	0.863
-0.006	-6.145	0.862
-0.015	-6.143	0.862
-0.023	-6.147	0.862
-0.028	-6.155	0.862
-0.027	-6.165	0.862
-0.020	-6.171	0.862
-0.011	-6.173	0.862
0.001	-6.173	1.024
0.005	-6.165	1.024
0.004	-6.155	1.024
-0.003	-6.149	1.025
-0.012	-6.148	1.025
-0.020	-6.152	1.025
-0.024	-6.161	1.025
-0.023	-6.170	1.024
-0.016	-6.176	1.024
-0.007	-6.177	1.024
0.059	-6.284	0.027
0.064	-6.282	0.035
0.069	-6.285	0.041
0.073	-6.292	0.045
0.073	-6.301	0.045
0.071	-6.309	0.040
0.065	-6.312	0.033
0.060	-6.309	0.026
0.056	-6.301	0.022
0.056	-6.292	0.023
0.669	-6.242	-0.418
0.673	-6.234	-0.418
0.672	-6.225	-0.418
0.665	-6.218	-0.418
0.656	-6.217	-0.418
0.648	-6.221	-0.418
0.644	-6.229	-0.418
0.645	-6.239	-0.418
0.652	-6.245	-0.418
0.661	-6.247	-0.418
0.059	-6.385	0.027
0.069	-6.385	0.027
0.076	-6.390	0.031
0.078	-6.398	0.036
0.075	-6.405	0.041
0.067	-6.409	0.044
0.058	-6.408	0.044
0.051	-6.403	0.040
0.048	-6.396	0.035
0.052	-6.389	0.030
0.036	-6.887	-0.697
0.045	-6.887	-0.697
0.052	-6.892	-0.693
0.055	-6.900	-0.688
0.051	-6.907	-0.683
0.044	-6.911	-0.680
0.034	-6.910	-0.681
0.027	-6.905	-0.684
0.025	-6.898	-0.689
0.028	-6.891	-0.694
0.066	-6.508	0.040
0.062	-6.505	0.048
0.056	-6.499	0.052
0.051	-6.491	0.050
0.048	-6.486	0.043
0.049	-6.484	0.033
0.053	-6.487	0.026
0.059	-6.494	0.022
0.064	-6.501	0.024
0.066	-6.507	0.031
-0.594	-7.016	-0.100
-0.598	-7.013	-0.093
-0.603	-7.007	-0.089
-0.608	-6.999	-0.091
-0.611	-6.994	-0.098
-0.610	-6.992	-0.107
-0.606	-6.995	-0.115
-0.601	-7.002	-0.119
-0.595	-7.009	-0.117
-0.593	-7.015	-0.110
0.057	-6.590	0.026
0.058	-6.584	0.033
0.056	-6.583	0.042
0.052	-6.587	0.050
0.048	-6.594	0.053
0.044	-6.602	0.051
0.043	-6.608	0.044
0.045	-6.610	0.035
0.049	-6.606	0.027
0.053	-6.598	0.024
0.752	-6.927	0.202
0.754	-6.923	0.209
0.754	-6.922	0.219
0.751	-6.927	0.226
0.746	-6.934	0.229
0.742	-6.942	0.226
0.739	-6.947	0.219
0.740	-6.947	0.210
0.743	-6.942	0.202
0.747	-6.935	0.199
0.896	-7.033	0.176
0.900	-7.030	0.184
0.901	-7.030	0.193
0.899	-7.035	0.200
0.894	-7.043	0.203
0.889	-7.050	0.200
0.885	-7.053	0.193
0.883	-7.053	0.183
0.886	-7.048	0.176
0.891	-7.040	0.173
0.049	-6.708	0.047
0.049	-6.701	0.053
0.047	-6.692	0.053
0.044	-6.684	0.049
0.041	-6.681	0.040
0.039	-6.684	0.032
0.039	-6.691	0.026
0.041	-6.700	0.025
0.044	-6.708	0.030
0.047	-6.711	0.038
-0.805	-6.882	0.297
-0.805	-6.875	0.303
-0.806	-6.866	0.304
-0.809	-6.858	0.299
-0.812	-6.855	0.291
-0.814	-6.858	0.282
-0.815	-6.865	0.276
-0.813	-6.874	0.276
-0.810	-6.882	0.280
-0.807	-6.885	0.288
0.037	-6.806	0.050
0.036	-6.798	0.054
0.036	-6.789	0.053
[...]
         <CellData>
           <DataArray type="Float32" Name="combinedRootClassID" NumberOfComponents="1" format="ascii">
 -5.000e+00 -5.000e+00 -5.000e+00 -5.000e+00 -5.000e+00 -5.000e+00 -5.000e+00 -5.000e+00 -5.000e+00 -5.000e+00 -5.000e+00 -5.000e+00 -2.000e+00 -2.000e+00 -2.000e+00 -2.000e+00 -2.000e+00 -2.000e+00 -2.000e+00 -2.000e+00 -2.000e+00 -2.000e+00 -7.000e+00 -7.000e+00 -7.000e+00 -7.000e+00 -7.000e+00 -7.000e+00 -7.000e+00 -7.000e+00 -7.000e+00 -7.000e+00 -7.000e+00 -7.000e+00 -7.000e+00 -7.000e+00 -7.000e+00 -7.000e+00 -7.000e+00 -7.000e+00 -7.000e+00 -7.000e+00 -7.000e+00 -7.000e+00 -7.000e+00 -7.000e+00 -7.000e+00 -7.000e+00 -7.000e+00 -7.000e+00 -7.000e+00 -7.000e+00 -7.000e+00 -7.000e+00 -7.000e+00 -7.000e+00 -7.000e+00 -7.000e+00 -7.000e+00 -7.000e+00 -7.000e+00 -7.000e+00 -7.000e+00 -7.000e+00 -7.000e+00 -7.000e+00 -7.000e+00 -7.000e+00 -7.000e+00 -7.000e+00 -7.000e+00 -7.000e+00 -7.000e+00 -7.000e+00 -7.000e+00 -9.000e+00 -9.000e+00 -9.000e+00 -4.000e+00 -4.000e+00 -4.000e+00 -4.000e+00 -4.000e+00 -4.000e+00 -4.000e+00 -4.000e+00 -4.000e+00 -4.000e+00 -4.000e+00 -4.000e+00 -4.000e+00 -4.000e+00 -4.000e+00 -4.000e+00 -4.000e+00 -4.000e+00 -4.000e+00 -4.000e+00
           </DataArray>
           <DataArray type="Float32" Name="nitrate/Cmin" NumberOfComponents="1" format="ascii">
 1.000e-03 1.000e-03 1.000e-03 1.000e-03 1.000e-03 1.000e-03 1.000e-03 1.000e-03 1.000e-03 1.000e-03 1.000e-03 1.000e-03 1.000e-03 1.000e-03 1.000e-03 1.000e-03 1.000e-03 1.000e-03 1.000e-03 1.000e-03 1.000e-03 1.000e-03 1.000e-03 1.000e-03 1.000e-03 1.000e-03 1.000e-03 1.000e-03 1.000e-03 1.000e-03 1.000e-03 1.000e-03 1.000e-03 1.000e-03 1.000e-03 1.000e-03 1.000e-03 1.000e-03 1.000e-03 1.000e-03 1.000e-03 1.000e-03 1.000e-03 1.000e-03 1.000e-03 1.000e-03 1.000e-03 1.000e-03 1.000e-03 1.000e-03 1.000e-03 1.000e-03 1.000e-03 1.000e-03 1.000e-03 1.000e-03 1.000e-03 1.000e-03 1.000e-03 1.000e-03 1.000e-03 1.000e-03 1.000e-03 1.000e-03 1.000e-03 1.000e-03 1.000e-03 1.000e-03 1.000e-03 1.000e-03 1.000e-03 1.000e-03 1.000e-03 1.000e-03 1.000e-03 1.000e-03 1.000e-03 1.000e-03 1.000e-03 1.000e-03 1.000e-03 1.000e-03 1.000e-03 1.000e-03 1.000e-03 1.000e-03 1.000e-03 1.000e-03 1.000e-03 1.000e-03 1.000e-03 1.000e-03 1.000e-03 1.000e-03 1.000e-03 1.000e-03 1.000e-03 1.000e-03
           </DataArray>
           <DataArray type="Float32" Name="nitrate/Imax" NumberOfComponents="1" format="ascii">
 1.900e+00 1.900e+00 1.900e+00 1.900e+00 1.900e+00 1.900e+00 1.900e+00 1.900e+00 1.900e+00 1.900e+00 1.900e+00 1.900e+00 1.900e+00 1.900e+00 1.900e+00 1.900e+00 1.900e+00 1.900e+00 1.900e+00 1.900e+00 1.900e+00 1.900e+00 1.900e+00 1.900e+00 1.900e+00 1.900e+00 1.900e+00 1.900e+00 1.900e+00 1.900e+00 1.900e+00 1.900e+00 1.900e+00 1.900e+00 1.900e+00 1.900e+00 1.900e+00 1.900e+00 1.900e+00 1.900e+00 1.900e+00 1.900e+00 1.900e+00 1.900e+00 1.900e+00 1.900e+00 1.900e+00 1.900e+00 1.900e+00 1.900e+00 1.900e+00 1.900e+00 1.900e+00 1.900e+00 1.900e+00 1.900e+00 1.900e+00 1.900e+00 1.900e+00 1.900e+00 1.900e+00 1.900e+00 1.900e+00 1.900e+00 1.900e+00 1.900e+00 1.900e+00 1.900e+00 1.900e+00 1.900e+00 1.900e+00 1.900e+00 1.900e+00 1.900e+00 1.900e+00 1.900e+00 1.900e+00 1.900e+00 1.900e+00 1.900e+00 1.900e+00 1.900e+00 1.900e+00 1.900e+00 1.900e+00 1.900e+00 1.900e+00 1.900e+00 1.900e+00 1.900e+00 1.900e+00 1.900e+00 1.900e+00 1.900e+00 1.900e+00 1.900e+00 1.900e+00 1.900e+00
           </DataArray>
           <DataArray type="Float32" Name="nitrate/Km" NumberOfComponents="1" format="ascii">
 1.610e-02 1.610e-02 1.610e-02 1.610e-02 1.610e-02 1.610e-02 1.610e-02 1.610e-02 1.610e-02 1.610e-02 1.610e-02 1.610e-02 1.610e-02 1.610e-02 1.610e-02 1.610e-02 1.610e-02 1.610e-02 1.610e-02 1.610e-02 1.610e-02 1.610e-02 1.610e-02 1.610e-02 1.610e-02 1.610e-02 1.610e-02 1.610e-02 1.610e-02 1.610e-02 1.610e-02 1.610e-02 1.610e-02 1.610e-02 1.610e-02 1.610e-02 1.610e-02 1.610e-02 1.610e-02 1.610e-02 1.610e-02 1.610e-02 1.610e-02 1.610e-02 1.610e-02 1.610e-02 1.610e-02 1.610e-02 1.610e-02 1.610e-02 1.610e-02 1.610e-02 1.610e-02 1.610e-02 1.610e-02 1.610e-02 1.610e-02 1.610e-02 1.610e-02 1.610e-02 1.610e-02 1.610e-02 1.610e-02 1.610e-02 1.610e-02 1.610e-02 1.610e-02 1.610e-02 1.610e-02 1.610e-02 1.610e-02 1.610e-02 1.610e-02 1.610e-02 1.610e-02 1.610e-02 1.610e-02 1.610e-02 1.610e-02 1.610e-02 1.610e-02 1.610e-02 1.610e-02 1.610e-02 1.610e-02 1.610e-02 1.610e-02 1.610e-02 1.610e-02 1.610e-02 1.610e-02 1.610e-02 1.610e-02 1.610e-02 1.610e-02 1.610e-02 1.610e-02 1.610e-02
           </DataArray>
           <DataArray type="Float32" Name="nitrate/minimalNutrientConcentration" NumberOfComponents="1" format="ascii">
 6.000e+02 6.000e+02 6.000e+02 6.000e+02 6.000e+02 6.000e+02 6.000e+02 6.000e+02 6.000e+02 6.000e+02 6.000e+02 6.000e+02 6.000e+02 6.000e+02 6.000e+02 6.000e+02 6.000e+02 6.000e+02 6.000e+02 6.000e+02 6.000e+02 6.000e+02 6.000e+02 6.000e+02 6.000e+02 6.000e+02 6.000e+02 6.000e+02 6.000e+02 6.000e+02 6.000e+02 6.000e+02 6.000e+02 6.000e+02 6.000e+02 6.000e+02 6.000e+02 6.000e+02 6.000e+02 6.000e+02 6.000e+02 6.000e+02 6.000e+02 6.000e+02 6.000e+02 6.000e+02 6.000e+02 6.000e+02 6.000e+02 6.000e+02 6.000e+02 6.000e+02 6.000e+02 6.000e+02 6.000e+02 6.000e+02 6.000e+02 6.000e+02 6.000e+02 6.000e+02 6.000e+02 6.000e+02 6.000e+02 6.000e+02 6.000e+02 6.000e+02 6.000e+02 6.000e+02 6.000e+02 6.000e+02 6.000e+02 6.000e+02 6.000e+02 6.000e+02 6.000e+02 6.000e+02 6.000e+02 6.000e+02 6.000e+02 6.000e+02 6.000e+02 6.000e+02 6.000e+02 6.000e+02 6.000e+02 6.000e+02 6.000e+02 6.000e+02 6.000e+02 6.000e+02 6.000e+02 6.000e+02 6.000e+02 6.000e+02 6.000e+02 6.000e+02 6.000e+02 6.000e+02
           </DataArray>
           <DataArray type="Float32" Name="nitrate/nutrientConcentrationAtTheRootSurface" NumberOfComponents="1" format="ascii">
 3.741e-01 3.974e-01 5.156e-01 3.741e-01 4.233e-01 5.013e-01 3.741e-01 3.996e-01 5.145e-01 3.741e-01 4.230e-01 4.612e-01 3.742e-01 3.707e-01 3.596e-01 3.085e-01 2.761e-01 2.517e-01 2.057e-01 0.000e+00 0.000e+00 0.000e+00 3.746e-01 4.369e-01 3.768e-01 4.208e-01 4.051e-01 4.075e-01 4.275e-01 4.162e-01 4.270e-01 4.360e-01 4.440e-01 5.274e-01 4.499e-01 4.541e-01 4.602e-01 4.592e-01 3.836e-01 4.220e-01 4.609e-01 4.668e-01 4.762e-01 4.800e-01 4.833e-01 4.854e-01 4.864e-01 4.847e-01 4.830e-01 4.844e-01 3.869e-01 4.099e-01 4.854e-01 4.944e-01 4.972e-01 4.998e-01 5.015e-01 5.018e-01 5.008e-01 4.987e-01 4.927e-01 4.918e-01 3.902e-01 4.329e-01 4.936e-01 3.928e-01 4.439e-01 3.930e-01 4.445e-01 3.955e-01 4.570e-01 4.023e-01 4.509e-01 4.032e-01 4.783e-01 4.112e-01 4.777e-01 4.923e-01 3.742e-01 3.930e-01 4.283e-01 4.628e-01 4.835e-01 5.018e-01 5.014e-01 4.923e-01 5.203e-01 5.278e-01 4.911e-01 4.726e-01 4.803e-01 4.761e-01 5.586e-01 5.791e-01 5.771e-01 5.953e-01 6.248e-01 6.471e-01
           </DataArray>
           <DataArray type="Float32" Name="nitrate/optimalNutrientConcentration" NumberOfComponents="1" format="ascii">
 1.200e+03 1.200e+03 1.200e+03 1.200e+03 1.200e+03 1.200e+03 1.200e+03 1.200e+03 1.200e+03 1.200e+03 1.200e+03 1.200e+03 1.200e+03 1.200e+03 1.200e+03 1.200e+03 1.200e+03 1.200e+03 1.200e+03 1.200e+03 1.200e+03 1.200e+03 1.200e+03 1.200e+03 1.200e+03 1.200e+03 1.200e+03 1.200e+03 1.200e+03 1.200e+03 1.200e+03 1.200e+03 1.200e+03 1.200e+03 1.200e+03 1.200e+03 1.200e+03 1.200e+03 1.200e+03 1.200e+03 1.200e+03 1.200e+03 1.200e+03 1.200e+03 1.200e+03 1.200e+03 1.200e+03 1.200e+03 1.200e+03 1.200e+03 1.200e+03 1.200e+03 1.200e+03 1.200e+03 1.200e+03 1.200e+03 1.200e+03 1.200e+03 1.200e+03 1.200e+03 1.200e+03 1.200e+03 1.200e+03 1.200e+03 1.200e+03 1.200e+03 1.200e+03 1.200e+03 1.200e+03 1.200e+03 1.200e+03 1.200e+03 1.200e+03 1.200e+03 1.200e+03 1.200e+03 1.200e+03 1.200e+03 1.200e+03 1.200e+03 1.200e+03 1.200e+03 1.200e+03 1.200e+03 1.200e+03 1.200e+03 1.200e+03 1.200e+03 1.200e+03 1.200e+03 1.200e+03 1.200e+03 1.200e+03 1.200e+03 1.200e+03 1.200e+03 1.200e+03 1.200e+03
           </DataArray>
           <DataArray type="Float32" Name="nitrate/rootSegmentMinimalNutrientContent" NumberOfComponents="1" format="ascii">
 1.632e-01 1.811e-01 1.406e-01 1.632e-01 1.811e-01 1.406e-01 1.632e-01 1.811e-01 1.406e-01 1.632e-01 1.811e-01 1.406e-01 5.806e+00 5.260e+00 8.735e+00 4.488e+00 4.462e+00 6.659e+00 6.322e+00 6.436e+00 6.333e+00 1.809e+00 3.430e-02 1.844e-02 3.363e-02 1.880e-02 3.591e-02 3.424e-02 6.528e-03 3.117e-02 3.598e-02 3.483e-02 3.229e-02 7.348e-03 3.732e-02 2.854e-02 3.096e-02 2.661e-02 3.377e-02 1.965e-02 2.373e-02 2.517e-02 2.344e-02 2.076e-02 2.396e-02 2.231e-02 2.204e-02 2.041e-02 1.812e-02 1.366e-02 3.658e-02 1.231e-02 1.546e-02 1.374e-02 1.029e-02 1.004e-02 9.581e-03 6.774e-03 5.961e-03 4.965e-03 3.324e-03 1.929e-03 3.437e-02 1.199e-02 5.529e-04 3.324e-02 1.205e-02 3.527e-02 2.591e-03 3.631e-02 5.957e-03 3.561e-02 9.926e-03 3.697e-02 6.522e-03 3.395e-02 3.308e-02 4.804e-03 3.227e-01 3.135e-01 3.050e-01 2.972e-01 2.901e-01 2.842e-01 2.794e-01 2.756e-01 2.723e-01 2.693e-01 2.666e-01 2.641e-01 2.619e-01 2.600e-01 2.583e-01 2.569e-01 2.557e-01 2.549e-01 2.542e-01 2.538e-01
           </DataArray>
           <DataArray type="Float32" Name="nitrate/rootSegmentNutrientUptake" NumberOfComponents="1" format="ascii">
 0.000e+00 1.064e-01 4.370e-02 0.000e+00 1.129e-01 4.348e-02 0.000e+00 1.086e-01 4.385e-02 0.000e+00 1.134e-01 4.137e-02 0.000e+00 6.948e-01 6.117e-01 4.651e-01 3.876e-01 3.103e-01 2.036e-01 0.000e+00 0.000e+00 0.000e+00 0.000e+00 2.798e-02 0.000e+00 2.849e-02 0.000e+00 0.000e+00 4.237e-03 0.000e+00 0.000e+00 0.000e+00 0.000e+00 4.797e-03 0.000e+00 0.000e+00 0.000e+00 0.000e+00 0.000e+00 2.979e-02 0.000e+00 0.000e+00 0.000e+00 0.000e+00 0.000e+00 0.000e+00 0.000e+00 0.000e+00 0.000e+00 0.000e+00 0.000e+00 1.330e-02 0.000e+00 0.000e+00 0.000e+00 0.000e+00 0.000e+00 0.000e+00 0.000e+00 0.000e+00 0.000e+00 0.000e+00 0.000e+00 1.299e-02 0.000e+00 0.000e+00 1.306e-02 0.000e+00 1.119e-03 0.000e+00 3.872e-03 0.000e+00 8.610e-03 0.000e+00 4.245e-03 0.000e+00 5.035e-02 0.000e+00 0.000e+00 8.055e-01 7.975e-01 7.810e-01 7.822e-01 7.823e-01 7.559e-01 7.124e-01 6.908e-01 6.448e-01 5.627e-01 4.983e-01 4.423e-01 3.854e-01 3.766e-01 3.233e-01 2.563e-01 1.939e-01 1.286e-01 5.934e-02
           </DataArray>
           <DataArray type="Float32" Name="nitrate/rootSegmentOptimalNutrientContent" NumberOfComponents="1" format="ascii">
 3.265e-01 3.621e-01 2.812e-01 3.265e-01 3.621e-01 2.812e-01 3.265e-01 3.621e-01 2.812e-01 3.265e-01 3.621e-01 2.812e-01 1.161e+01 1.052e+01 1.747e+01 8.976e+00 8.924e+00 1.332e+01 1.264e+01 1.287e+01 1.267e+01 3.619e+00 6.861e-02 3.688e-02 6.727e-02 3.759e-02 7.182e-02 6.847e-02 1.306e-02 6.234e-02 7.196e-02 6.966e-02 6.458e-02 1.470e-02 7.465e-02 5.708e-02 6.192e-02 5.322e-02 6.753e-02 3.930e-02 4.746e-02 5.034e-02 4.689e-02 4.152e-02 4.791e-02 4.461e-02 4.408e-02 4.082e-02 3.623e-02 2.731e-02 7.316e-02 2.462e-02 3.093e-02 2.748e-02 2.058e-02 2.009e-02 1.916e-02 1.355e-02 1.192e-02 9.929e-03 6.649e-03 3.858e-03 6.874e-02 2.399e-02 1.106e-03 6.648e-02 2.409e-02 7.055e-02 5.182e-03 7.262e-02 1.191e-02 7.122e-02 1.985e-02 7.395e-02 1.304e-02 6.790e-02 6.616e-02 9.608e-03 6.454e-01 6.270e-01 6.100e-01 5.944e-01 5.802e-01 5.683e-01 5.587e-01 5.512e-01 5.446e-01 5.386e-01 5.331e-01 5.282e-01 5.238e-01 5.199e-01 5.166e-01 5.138e-01 5.115e-01 5.097e-01 5.084e-01 5.077e-01
           </DataArray>
           <DataArray type="Float32" Name="parentRootClassID" NumberOfComponents="1" format="ascii">
 -2.000e+00 -2.000e+00 -2.000e+00 -2.000e+00 -2.000e+00 -2.000e+00 -2.000e+00 -2.000e+00 -2.000e+00 -2.000e+00 -2.000e+00 -2.000e+00 -3.000e+00 -3.000e+00 -3.000e+00 -3.000e+00 -3.000e+00 -3.000e+00 -3.000e+00 -3.000e+00 -3.000e+00 -3.000e+00 -4.000e+00 -4.000e+00 -4.000e+00 -4.000e+00 -4.000e+00 -4.000e+00 -4.000e+00 -4.000e+00 -4.000e+00 -4.000e+00 -4.000e+00 -4.000e+00 -4.000e+00 -4.000e+00 -4.000e+00 -4.000e+00 -4.000e+00 -4.000e+00 -4.000e+00 -4.000e+00 -4.000e+00 -4.000e+00 -4.000e+00 -4.000e+00 -4.000e+00 -4.000e+00 -4.000e+00 -4.000e+00 -4.000e+00 -4.000e+00 -4.000e+00 -4.000e+00 -4.000e+00 -4.000e+00 -4.000e+00 -4.000e+00 -4.000e+00 -4.000e+00 -4.000e+00 -4.000e+00 -4.000e+00 -4.000e+00 -4.000e+00 -4.000e+00 -4.000e+00 -4.000e+00 -4.000e+00 -4.000e+00 -4.000e+00 -4.000e+00 -4.000e+00 -4.000e+00 -4.000e+00 -4.000e+00 -4.000e+00 -4.000e+00 -3.000e+00 -3.000e+00 -3.000e+00 -3.000e+00 -3.000e+00 -3.000e+00 -3.000e+00 -3.000e+00 -3.000e+00 -3.000e+00 -3.000e+00 -3.000e+00 -3.000e+00 -3.000e+00 -3.000e+00 -3.000e+00 -3.000e+00 -3.000e+00 -3.000e+00 -3.000e+00
           </DataArray>
           <DataArray type="Float32" Name="plantID" NumberOfComponents="1" format="ascii">
 7.000e+00 7.000e+00 7.000e+00 7.000e+00 7.000e+00 7.000e+00 7.000e+00 7.000e+00 7.000e+00 7.000e+00 7.000e+00 7.000e+00 7.000e+00 7.000e+00 7.000e+00 7.000e+00 7.000e+00 7.000e+00 7.000e+00 7.000e+00 7.000e+00 7.000e+00 7.000e+00 7.000e+00 7.000e+00 7.000e+00 7.000e+00 7.000e+00 7.000e+00 7.000e+00 7.000e+00 7.000e+00 7.000e+00 7.000e+00 7.000e+00 7.000e+00 7.000e+00 7.000e+00 7.000e+00 7.000e+00 7.000e+00 7.000e+00 7.000e+00 7.000e+00 7.000e+00 7.000e+00 7.000e+00 7.000e+00 7.000e+00 7.000e+00 7.000e+00 7.000e+00 7.000e+00 7.000e+00 7.000e+00 7.000e+00 7.000e+00 7.000e+00 7.000e+00 7.000e+00 7.000e+00 7.000e+00 7.000e+00 7.000e+00 7.000e+00 7.000e+00 7.000e+00 7.000e+00 7.000e+00 7.000e+00 7.000e+00 7.000e+00 7.000e+00 7.000e+00 7.000e+00 7.000e+00 7.000e+00 7.000e+00 7.000e+00 7.000e+00 7.000e+00 7.000e+00 7.000e+00 7.000e+00 7.000e+00 7.000e+00 7.000e+00 7.000e+00 7.000e+00 7.000e+00 7.000e+00 7.000e+00 7.000e+00 7.000e+00 7.000e+00 7.000e+00 7.000e+00 7.000e+00
           </DataArray>
           <DataArray type="Float32" Name="plantTypeID" NumberOfComponents="1" format="ascii">
 0.000e+00 0.000e+00 0.000e+00 0.000e+00 0.000e+00 0.000e+00 0.000e+00 0.000e+00 0.000e+00 0.000e+00 0.000e+00 0.000e+00 0.000e+00 0.000e+00 0.000e+00 0.000e+00 0.000e+00 0.000e+00 0.000e+00 0.000e+00 0.000e+00 0.000e+00 0.000e+00 0.000e+00 0.000e+00 0.000e+00 0.000e+00 0.000e+00 0.000e+00 0.000e+00 0.000e+00 0.000e+00 0.000e+00 0.000e+00 0.000e+00 0.000e+00 0.000e+00 0.000e+00 0.000e+00 0.000e+00 0.000e+00 0.000e+00 0.000e+00 0.000e+00 0.000e+00 0.000e+00 0.000e+00 0.000e+00 0.000e+00 0.000e+00 0.000e+00 0.000e+00 0.000e+00 0.000e+00 0.000e+00 0.000e+00 0.000e+00 0.000e+00 0.000e+00 0.000e+00 0.000e+00 0.000e+00 0.000e+00 0.000e+00 0.000e+00 0.000e+00 0.000e+00 0.000e+00 0.000e+00 0.000e+00 0.000e+00 0.000e+00 0.000e+00 0.000e+00 0.000e+00 0.000e+00 0.000e+00 0.000e+00 0.000e+00 0.000e+00 0.000e+00 0.000e+00 0.000e+00 0.000e+00 0.000e+00 0.000e+00 0.000e+00 0.000e+00 0.000e+00 0.000e+00 0.000e+00 0.000e+00 0.000e+00 0.000e+00 0.000e+00 0.000e+00 0.000e+00 0.000e+00
           </DataArray>
           <DataArray type="Float32" Name="rootCircumference" NumberOfComponents="1" format="ascii">
 2.136e-01 2.136e-01 2.136e-01 2.136e-01 2.136e-01 2.136e-01 2.136e-01 2.136e-01 2.136e-01 2.136e-01 2.136e-01 2.136e-01 1.320e+00 1.307e+00 1.300e+00 1.291e+00 1.287e+00 1.284e+00 1.280e+00 1.276e+00 1.273e+00 1.265e+00 9.431e-02 9.425e-02 9.430e-02 9.425e-02 9.428e-02 9.428e-02 9.425e-02 9.428e-02 9.427e-02 9.427e-02 9.427e-02 9.425e-02 9.427e-02 9.427e-02 9.427e-02 9.426e-02 9.430e-02 9.425e-02 9.426e-02 9.426e-02 9.426e-02 9.426e-02 9.426e-02 9.426e-02 9.426e-02 9.425e-02 9.425e-02 9.425e-02 9.430e-02 9.425e-02 9.425e-02 9.425e-02 9.425e-02 9.425e-02 9.425e-02 9.425e-02 9.425e-02 9.425e-02 9.425e-02 9.425e-02 9.429e-02 9.425e-02 9.425e-02 9.429e-02 9.425e-02 9.429e-02 9.425e-02 9.429e-02 9.425e-02 9.428e-02 9.425e-02 9.428e-02 9.425e-02 9.433e-02 9.427e-02 9.425e-02 3.189e-01 3.143e-01 3.100e-01 3.060e-01 3.023e-01 2.992e-01 2.967e-01 2.947e-01 2.929e-01 2.913e-01 2.898e-01 2.885e-01 2.873e-01 2.862e-01 2.853e-01 2.845e-01 2.839e-01 2.834e-01 2.830e-01 2.828e-01
           </DataArray>
           <DataArray type="Float32" Name="rootClassID" NumberOfComponents="1" format="ascii">
 9.900e+01 9.900e+01 9.900e+01 9.900e+01 9.900e+01 9.900e+01 9.900e+01 9.900e+01 9.900e+01 9.900e+01 9.900e+01 9.900e+01 -2.000e+00 -2.000e+00 -2.000e+00 -2.000e+00 -2.000e+00 -2.000e+00 -2.000e+00 -2.000e+00 -2.000e+00 -2.000e+00 9.700e+01 9.700e+01 9.700e+01 9.700e+01 9.700e+01 9.700e+01 9.700e+01 9.700e+01 9.700e+01 9.700e+01 9.700e+01 9.700e+01 9.700e+01 9.700e+01 9.700e+01 9.700e+01 9.700e+01 9.700e+01 9.700e+01 9.700e+01 9.700e+01 9.700e+01 9.700e+01 9.700e+01 9.700e+01 9.700e+01 9.700e+01 9.700e+01 9.700e+01 9.700e+01 9.700e+01 9.700e+01 9.700e+01 9.700e+01 9.700e+01 9.700e+01 9.700e+01 9.700e+01 9.700e+01 9.700e+01 9.700e+01 9.700e+01 9.700e+01 9.700e+01 9.700e+01 9.700e+01 9.700e+01 9.700e+01 9.700e+01 9.700e+01 9.700e+01 9.700e+01 9.700e+01 9.700e+01 9.700e+01 9.700e+01 -4.000e+00 -4.000e+00 -4.000e+00 -4.000e+00 -4.000e+00 -4.000e+00 -4.000e+00 -4.000e+00 -4.000e+00 -4.000e+00 -4.000e+00 -4.000e+00 -4.000e+00 -4.000e+00 -4.000e+00 -4.000e+00 -4.000e+00 -4.000e+00 -4.000e+00 -4.000e+00
           </DataArray>
           <DataArray type="Float32" Name="rootDiameter" NumberOfComponents="1" format="ascii">
 6.800e-02 6.800e-02 6.800e-02 6.800e-02 6.800e-02 6.800e-02 6.800e-02 6.800e-02 6.800e-02 6.800e-02 6.800e-02 6.800e-02 4.201e-01 4.160e-01 4.137e-01 4.109e-01 4.097e-01 4.087e-01 4.074e-01 4.063e-01 4.051e-01 4.027e-01 3.002e-02 3.000e-02 3.002e-02 3.000e-02 3.001e-02 3.001e-02 3.000e-02 3.001e-02 3.001e-02 3.001e-02 3.001e-02 3.000e-02 3.001e-02 3.001e-02 3.001e-02 3.001e-02 3.002e-02 3.000e-02 3.000e-02 3.000e-02 3.000e-02 3.000e-02 3.000e-02 3.000e-02 3.000e-02 3.000e-02 3.000e-02 3.000e-02 3.002e-02 3.000e-02 3.000e-02 3.000e-02 3.000e-02 3.000e-02 3.000e-02 3.000e-02 3.000e-02 3.000e-02 3.000e-02 3.000e-02 3.001e-02 3.000e-02 3.000e-02 3.001e-02 3.000e-02 3.001e-02 3.000e-02 3.001e-02 3.000e-02 3.001e-02 3.000e-02 3.001e-02 3.000e-02 3.003e-02 3.001e-02 3.000e-02 1.015e-01 1.000e-01 9.868e-02 9.741e-02 9.624e-02 9.525e-02 9.444e-02 9.380e-02 9.324e-02 9.272e-02 9.225e-02 9.182e-02 9.144e-02 9.110e-02 9.081e-02 9.056e-02 9.036e-02 9.020e-02 9.009e-02 9.002e-02
           </DataArray>
           <DataArray type="Float32" Name="rootHairDensity" NumberOfComponents="1" format="ascii">
 2.000e+03 2.000e+03 2.000e+03 2.000e+03 2.000e+03 2.000e+03 2.000e+03 2.000e+03 2.000e+03 2.000e+03 2.000e+03 2.000e+03 0.000e+00 0.000e+00 0.000e+00 0.000e+00 0.000e+00 0.000e+00 0.000e+00 0.000e+00 0.000e+00 0.000e+00 2.000e+03 2.000e+03 2.000e+03 2.000e+03 2.000e+03 2.000e+03 2.000e+03 2.000e+03 2.000e+03 2.000e+03 2.000e+03 2.000e+03 2.000e+03 2.000e+03 2.000e+03 2.000e+03 2.000e+03 2.000e+03 2.000e+03 2.000e+03 2.000e+03 2.000e+03 2.000e+03 2.000e+03 2.000e+03 2.000e+03 2.000e+03 2.000e+03 2.000e+03 2.000e+03 2.000e+03 2.000e+03 2.000e+03 2.000e+03 2.000e+03 2.000e+03 2.000e+03 2.000e+03 2.000e+03 2.000e+03 2.000e+03 2.000e+03 2.000e+03 2.000e+03 2.000e+03 2.000e+03 2.000e+03 2.000e+03 2.000e+03 2.000e+03 2.000e+03 2.000e+03 2.000e+03 3.000e+03 3.000e+03 3.000e+03 2.000e+03 2.000e+03 2.000e+03 2.000e+03 2.000e+03 2.000e+03 2.000e+03 2.000e+03 2.000e+03 2.000e+03 2.000e+03 2.000e+03 2.000e+03 2.000e+03 2.000e+03 2.000e+03 2.000e+03 2.000e+03 2.000e+03 2.000e+03
           </DataArray>
           <DataArray type="Float32" Name="rootHairDiameter" NumberOfComponents="1" format="ascii">