<?xml version="1.0"?>
<VTKFile type="UnstructuredGrid" version="0.1" byte_order="LittleEndian">
   <UnstructuredGrid>
      <Piece NumberOfPoints="730" NumberOfCells="49">
         <Points>
            <DataArray type="Float32" Name="Position" NumberOfComponents="3" format="ascii">
-0.013	-4.962	-0.016
0.008	-4.959	-0.013
0.026	-4.968	-0.006
0.034	-4.985	0.004
0.029	-5.004	0.011
0.013	-5.018	0.015
-0.008	-5.021	0.012
-0.026	-5.012	0.005
-0.033	-4.995	-0.005
-0.028	-4.976	-0.012
0.076	-5.181	-0.491
0.097	-5.178	-0.489
0.114	-5.187	-0.481
0.122	-5.204	-0.472
0.117	-5.223	-0.464
0.101	-5.236	-0.461
0.081	-5.239	-0.464
0.063	-5.230	-0.471
0.055	-5.213	-0.480
0.060	-5.194	-0.488
0.009	-5.017	0.018
-0.000	-5.004	0.031
-0.010	-4.985	0.032
-0.015	-4.968	0.021
-0.015	-4.960	0.001
-0.009	-4.963	-0.019
0.000	-4.976	-0.032
0.010	-4.995	-0.033
0.016	-5.012	-0.022
0.015	-5.020	-0.002
-0.456	-5.246	-0.090
-0.466	-5.232	-0.077
-0.475	-5.214	-0.076
-0.481	-5.197	-0.087
-0.481	-5.188	-0.106
-0.474	-5.191	-0.126
-0.465	-5.205	-0.139
-0.455	-5.223	-0.140
-0.450	-5.240	-0.129
-0.450	-5.249	-0.110
0.026	-5.011	-0.006
0.034	-4.993	0.003
0.028	-4.975	0.011
0.012	-4.962	0.015
-0.009	-4.960	0.012
-0.026	-4.969	0.005
-0.034	-4.987	-0.004
-0.028	-5.005	-0.012
-0.012	-5.018	-0.016
0.009	-5.020	-0.013
-0.047	-5.236	0.470
-0.040	-5.218	0.479
-0.045	-5.200	0.487
-0.062	-5.187	0.491
-0.082	-5.185	0.488
-0.100	-5.194	0.481
-0.107	-5.212	0.472
-0.101	-5.230	0.464
-0.085	-5.243	0.460
-0.064	-5.245	0.463
0.013	-4.976	-0.028
0.016	-4.962	-0.012
0.012	-4.959	0.008
0.004	-4.968	0.025
-0.006	-4.986	0.033
-0.013	-5.004	0.027
-0.016	-5.018	0.011
-0.012	-5.021	-0.009
-0.004	-5.012	-0.026
0.006	-4.995	-0.034
0.484	-5.194	0.085
0.486	-5.180	0.101
0.482	-5.177	0.122
0.474	-5.186	0.139
0.464	-5.204	0.146
0.457	-5.222	0.141
0.455	-5.236	0.125
0.458	-5.239	0.104
0.466	-5.230	0.087
0.476	-5.213	0.080
-0.147	-4.996	0.144
-0.035	-4.996	0.203
0.091	-4.997	0.185
0.183	-4.999	0.096
0.204	-5.001	-0.030
0.147	-5.004	-0.144
0.035	-5.004	-0.203
-0.091	-5.003	-0.185
-0.183	-5.001	-0.096
-0.204	-4.999	0.030
-0.143	-4.248	0.128
-0.030	-4.248	0.187
0.095	-4.248	0.168
0.185	-4.250	0.079
0.205	-4.251	-0.046
0.149	-4.252	-0.159
0.036	-4.253	-0.217
-0.089	-4.252	-0.198
-0.179	-4.251	-0.109
-0.199	-4.250	0.015
-0.142	-3.560	0.127
-0.029	-3.560	0.184
0.095	-3.560	0.165
0.184	-3.560	0.076
0.204	-3.561	-0.049
0.147	-3.561	-0.161
0.035	-3.561	-0.218
-0.089	-3.561	-0.199
-0.179	-3.560	-0.110
-0.199	-3.560	0.014
-0.139	-2.400	0.121
-0.027	-2.400	0.178
0.097	-2.400	0.159
0.186	-2.401	0.070
0.206	-2.401	-0.054
0.149	-2.401	-0.166
0.037	-2.401	-0.223
-0.087	-2.400	-0.203
-0.176	-2.400	-0.115
-0.196	-2.400	0.009
-0.136	-1.801	0.123
-0.024	-1.801	0.180
0.099	-1.801	0.160
0.188	-1.801	0.071
0.207	-1.800	-0.053
0.150	-1.800	-0.164
0.039	-1.800	-0.221
-0.085	-1.800	-0.201
-0.174	-1.800	-0.113
-0.193	-1.800	0.011
-0.137	-1.201	0.125
-0.026	-1.201	0.181
0.098	-1.200	0.162
0.186	-1.200	0.073
0.206	-1.200	-0.051
0.149	-1.200	-0.162
0.037	-1.200	-0.219
-0.086	-1.200	-0.199
-0.175	-1.200	-0.110
-0.194	-1.201	0.013
-0.138	-0.300	0.123
-0.027	-0.300	0.180
0.097	-0.300	0.160
0.185	-0.300	0.072
0.205	-0.301	-0.051
0.148	-0.301	-0.163
0.037	-0.301	-0.220
-0.086	-0.301	-0.200
-0.175	-0.300	-0.112
-0.195	-0.300	0.011
-0.135	0.560	0.118
-0.024	0.560	0.175
0.099	0.560	0.155
0.188	0.560	0.067
0.207	0.559	-0.056
0.151	0.559	-0.167
0.040	0.559	-0.224
-0.083	0.559	-0.205
-0.171	0.559	-0.117
-0.191	0.560	0.006
-0.137	1.440	0.116
-0.026	1.440	0.172
0.097	1.440	0.153
0.185	1.440	0.065
0.205	1.440	-0.058
0.148	1.440	-0.169
0.037	1.439	-0.225
-0.086	1.439	-0.206
-0.174	1.439	-0.118
-0.193	1.439	0.005
-0.137	2.317	0.115
-0.026	2.316	0.171
0.096	2.316	0.152
0.184	2.316	0.065
0.203	2.316	-0.058
0.147	2.316	-0.168
0.037	2.316	-0.225
-0.085	2.316	-0.205
-0.173	2.316	-0.118
-0.193	2.316	0.004
-0.136	2.570	0.114
-0.026	2.570	0.170
0.096	2.570	0.151
0.184	2.569	0.064
0.204	2.568	-0.058
0.148	2.568	-0.168
0.038	2.568	-0.225
-0.084	2.569	-0.206
-0.172	2.569	-0.119
-0.191	2.570	0.003
0.010	-5.088	-0.005
0.014	-5.085	0.002
0.017	-5.087	0.011
0.017	-5.094	0.017
0.015	-5.103	0.019
0.012	-5.110	0.015
0.008	-5.114	0.008
0.005	-5.112	-0.001
0.004	-5.105	-0.007
0.006	-5.096	-0.009
0.496	-5.234	-0.199
0.500	-5.230	-0.192
0.503	-5.232	-0.183
0.503	-5.239	-0.177
0.501	-5.248	-0.175
0.498	-5.256	-0.179
0.493	-5.259	-0.186
0.491	-5.257	-0.195
0.490	-5.250	-0.201
0.492	-5.241	-0.203
0.030	-5.211	0.014
0.031	-5.204	0.020
0.029	-5.195	0.023
0.024	-5.188	0.020
0.018	-5.184	0.013
0.014	-5.186	0.006
0.013	-5.193	-0.001
0.015	-5.202	-0.003
0.020	-5.209	-0.000
0.025	-5.213	0.006
-0.378	-5.375	0.286
-0.377	-5.369	0.292
-0.379	-5.360	0.294
-0.384	-5.352	0.292
-0.389	-5.349	0.285
-0.394	-5.351	0.277
-0.395	-5.358	0.271
-0.393	-5.367	0.269
-0.388	-5.374	0.272
-0.383	-5.378	0.278
0.072	-6.093	0.018
0.072	-6.085	0.024
0.068	-6.082	0.031
0.063	-6.084	0.039
0.058	-6.091	0.043
0.056	-6.100	0.042
0.056	-6.108	0.037
0.060	-6.111	0.029
0.065	-6.109	0.022
0.070	-6.102	0.017
0.240	-6.147	0.118
0.239	-6.139	0.124
0.235	-6.136	0.132
0.230	-6.138	0.139
0.225	-6.145	0.143
0.223	-6.154	0.142
0.224	-6.161	0.137
0.228	-6.165	0.129
0.233	-6.162	0.122
0.237	-6.155	0.118
0.076	-6.208	0.033
0.081	-6.200	0.033
0.080	-6.190	0.032
0.073	-6.184	0.032
0.064	-6.182	0.031
0.056	-6.186	0.031
0.051	-6.194	0.030
0.052	-6.203	0.031
0.059	-6.210	0.031
0.068	-6.212	0.032
0.062	-6.203	0.230
0.066	-6.195	0.230
0.065	-6.186	0.230
0.059	-6.179	0.229
0.050	-6.177	0.229
0.042	-6.181	0.228
0.037	-6.189	0.228
0.038	-6.198	0.228
0.044	-6.205	0.229
0.053	-6.207	0.230
0.059	-6.284	0.027
0.066	-6.282	0.032
0.073	-6.285	0.038
0.076	-6.292	0.042
0.075	-6.302	0.043
0.070	-6.309	0.040
0.063	-6.311	0.035
0.056	-6.308	0.029
0.053	-6.301	0.025
0.054	-6.292	0.024
0.143	-6.305	-0.074
0.150	-6.302	-0.069
0.156	-6.305	-0.063
0.160	-6.313	-0.058
0.158	-6.322	-0.057
0.153	-6.329	-0.060
0.146	-6.332	-0.066
0.140	-6.329	-0.071
0.137	-6.321	-0.076
0.138	-6.312	-0.077
0.055	-6.385	0.031
0.064	-6.382	0.031
0.073	-6.385	0.033
0.078	-6.393	0.035
0.077	-6.402	0.038
0.071	-6.409	0.040
0.062	-6.411	0.040
0.054	-6.408	0.038
0.049	-6.400	0.036
0.049	-6.391	0.033
0.062	-6.421	-0.085
0.071	-6.418	-0.085
0.080	-6.421	-0.084
0.084	-6.429	-0.081
0.084	-6.438	-0.078
0.078	-6.445	-0.077
0.069	-6.447	-0.076
0.060	-6.444	-0.078
0.055	-6.436	-0.081
0.056	-6.427	-0.083
0.060	-6.508	0.046
0.056	-6.501	0.051
0.053	-6.493	0.051
0.051	-6.486	0.045
0.052	-6.482	0.037
0.054	-6.485	0.028
0.058	-6.491	0.023
0.062	-6.500	0.023
0.063	-6.507	0.029
0.063	-6.510	0.037
-0.026	-6.542	0.028
-0.030	-6.536	0.034
-0.033	-6.527	0.033
-0.035	-6.520	0.028
-0.034	-6.517	0.019
-0.031	-6.519	0.011
-0.028	-6.525	0.005
-0.024	-6.534	0.005
-0.023	-6.541	0.011
-0.023	-6.544	0.020
0.056	-6.589	0.026
0.057	-6.584	0.033
0.056	-6.583	0.043
0.053	-6.587	0.050
0.049	-6.595	0.053
0.045	-6.603	0.051
0.044	-6.609	0.043
0.045	-6.609	0.034
0.048	-6.605	0.027
0.052	-6.597	0.024
0.121	-6.619	0.038
0.122	-6.614	0.045
0.121	-6.613	0.054
0.117	-6.617	0.061
0.113	-6.625	0.065
0.110	-6.633	0.062
0.109	-6.639	0.055
0.110	-6.640	0.046
0.113	-6.635	0.038
0.117	-6.628	0.035
0.043	-6.706	0.050
0.041	-6.698	0.054
0.039	-6.689	0.052
0.040	-6.683	0.045
0.042	-6.681	0.036
0.045	-6.686	0.028
0.047	-6.694	0.025
0.049	-6.703	0.027
0.048	-6.709	0.034
0.046	-6.710	0.043
0.012	-6.712	0.042
0.010	-6.704	0.046
0.008	-6.695	0.044
0.009	-6.689	0.037
0.011	-6.687	0.028
0.014	-6.692	0.020
0.016	-6.700	0.017
0.018	-6.709	0.019
0.017	-6.715	0.026
0.015	-6.716	0.035
0.043	-5.307	0.013
0.046	-5.299	0.016
0.044	-5.290	0.018
0.037	-5.284	0.019
0.027	-5.284	0.019
0.019	-5.289	0.018
0.016	-5.297	0.016
0.018	-5.306	0.013
0.025	-5.311	0.012
0.035	-5.312	0.012
0.035	-5.434	0.511
0.038	-5.426	0.513
0.036	-5.417	0.515
0.029	-5.411	0.517
0.019	-5.411	0.517
0.012	-5.415	0.515
0.008	-5.424	0.513
0.010	-5.433	0.511
0.018	-5.438	0.509
0.027	-5.439	0.509
0.045	-5.410	0.028
0.052	-5.403	0.028
0.053	-5.394	0.025
0.049	-5.386	0.022
0.042	-5.383	0.018
0.033	-5.385	0.016
0.027	-5.392	0.016
0.025	-5.401	0.018
0.029	-5.408	0.022
0.037	-5.412	0.025
-0.089	-5.287	0.420
-0.082	-5.280	0.420
-0.081	-5.271	0.418
-0.085	-5.263	0.414
-0.092	-5.260	0.410
-0.101	-5.262	0.408
-0.108	-5.269	0.408
-0.109	-5.278	0.410
-0.105	-5.285	0.414
-0.097	-5.289	0.418
0.046	-5.486	0.016
0.043	-5.483	0.024
0.041	-5.485	0.033
0.041	-5.491	0.039
0.043	-5.500	0.041
0.046	-5.508	0.037
0.050	-5.511	0.029
0.052	-5.510	0.020
0.052	-5.503	0.014
0.049	-5.494	0.012
0.416	-5.376	0.120
0.412	-5.373	0.128
0.410	-5.375	0.137
0.411	-5.381	0.144
0.413	-5.390	0.145
0.416	-5.398	0.141
0.419	-5.401	0.134
0.421	-5.400	0.125
0.421	-5.393	0.118
0.419	-5.384	0.117
0.059	-5.609	0.031
0.059	-5.604	0.039
0.055	-5.596	0.043
0.049	-5.589	0.042
0.044	-5.585	0.035
0.041	-5.585	0.026
0.042	-5.590	0.019
0.046	-5.598	0.015
0.051	-5.605	0.016
0.056	-5.609	0.023
-0.230	-5.813	0.135
-0.231	-5.808	0.143
-0.235	-5.801	0.147
-0.240	-5.794	0.145
-0.246	-5.790	0.139
-0.249	-5.790	0.130
-0.248	-5.795	0.122
-0.244	-5.802	0.118
-0.238	-5.810	0.120
-0.233	-5.814	0.126
0.060	-5.709	0.038
0.061	-5.702	0.043
0.060	-5.693	0.044
0.056	-5.685	0.040
0.052	-5.682	0.033
0.048	-5.685	0.025
0.047	-5.692	0.019
0.048	-5.701	0.018
0.052	-5.708	0.022
0.056	-5.712	0.029
-0.196	-5.764	0.169
-0.195	-5.757	0.175
-0.196	-5.747	0.176
-0.200	-5.740	0.172
-0.204	-5.737	0.164
-0.208	-5.739	0.156
-0.209	-5.746	0.151
-0.208	-5.755	0.150
-0.204	-5.763	0.153
-0.200	-5.766	0.161
0.058	-5.808	0.040
0.052	-5.802	0.044
0.048	-5.794	0.042
0.047	-5.787	0.036
0.050	-5.784	0.028
0.055	-5.785	0.020
0.060	-5.792	0.017
0.065	-5.800	0.018
0.066	-5.807	0.024
0.063	-5.810	0.032
-0.172	-5.950	-0.095
-0.168	-5.941	-0.095
-0.169	-5.932	-0.095
-0.176	-5.926	-0.095
-0.185	-5.924	-0.095
-0.193	-5.928	-0.095
-0.197	-5.937	-0.095
-0.196	-5.946	-0.095
-0.189	-5.952	-0.095
-0.180	-5.954	-0.095
0.054	-5.904	0.041
0.053	-5.895	0.043
0.054	-5.887	0.039
0.057	-5.882	0.032
0.060	-5.883	0.023
0.063	-5.889	0.017
0.064	-5.898	0.015
0.063	-5.907	0.018
0.060	-5.911	0.026
0.057	-5.911	0.034
-0.225	-5.913	-0.066
-0.226	-5.904	-0.064
-0.225	-5.895	-0.067
-0.223	-5.891	-0.075
-0.219	-5.892	-0.083
-0.217	-5.898	-0.090
-0.216	-5.907	-0.092
-0.217	-5.915	-0.088
-0.219	-5.920	-0.081
-0.223	-5.919	-0.072
0.068	-6.009	0.035
0.066	-6.003	0.042
0.063	-5.995	0.044
0.059	-5.987	0.040
0.056	-5.983	0.032
0.055	-5.984	0.023
0.056	-5.991	0.016
0.059	-5.999	0.014
0.063	-6.006	0.018
0.067	-6.010	0.026
-0.175	-6.116	0.080
-0.177	-6.110	0.087
-0.180	-6.102	0.089
-0.184	-6.094	0.086
-0.187	-6.091	0.078
-0.188	-6.092	0.069
-0.187	-6.098	0.062
-0.184	-6.106	0.060
-0.180	-6.114	0.063
-0.176	-6.118	0.071
0.069	-6.267	0.021
0.068	-6.261	0.029
0.067	-6.261	0.038
0.064	-6.266	0.045
0.062	-6.275	0.048
0.061	-6.283	0.045
0.061	-6.289	0.038
0.063	-6.289	0.029
0.065	-6.284	0.021
0.067	-6.276	0.018
0.356	-6.320	0.074
0.356	-6.314	0.081
0.354	-6.314	0.091
0.352	-6.319	0.098
0.350	-6.327	0.101
0.349	-6.336	0.098
0.349	-6.342	0.091
0.350	-6.342	0.082
0.353	-6.337	0.074
0.355	-6.328	0.071
0.034	-4.999	-0.035
0.048	-4.997	-0.008
0.043	-4.996	0.021
0.022	-4.996	0.043
-0.007	-4.998	0.048
-0.034	-5.001	0.035
-0.048	-5.003	0.008
-0.043	-5.004	-0.021
-0.022	-5.004	-0.043
0.007	-5.002	-0.048
0.088	-5.703	-0.003
0.102	-5.702	0.023
0.097	-5.701	0.053
0.076	-5.702	0.074
0.047	-5.703	0.079
0.021	-5.705	0.066
0.007	-5.706	0.039
0.011	-5.706	0.010
0.032	-5.706	-0.011
0.061	-5.705	-0.016
0.097	-6.412	0.003
0.110	-6.412	0.029
0.105	-6.412	0.058
0.084	-6.411	0.078
0.055	-6.410	0.082
0.029	-6.410	0.069
0.016	-6.409	0.042
0.021	-6.410	0.013
0.042	-6.410	-0.007
0.071	-6.411	-0.011
0.045	-7.118	0.006
0.058	-7.119	0.032
0.053	-7.119	0.060
0.031	-7.118	0.080
0.003	-7.116	0.084
-0.023	-7.114	0.070
-0.035	-7.113	0.044
-0.030	-7.113	0.015
-0.009	-7.114	-0.005
0.020	-7.116	-0.008
0.002	-7.824	-0.017
0.014	-7.825	0.010
0.009	-7.824	0.038
-0.013	-7.822	0.058
-0.041	-7.820	0.061
-0.066	-7.819	0.047
-0.078	-7.818	0.020
-0.073	-7.819	-0.008
-0.051	-7.820	-0.028
-0.023	-7.822	-0.031
-0.055	-8.530	0.019
-0.044	-8.529	0.046
-0.050	-8.526	0.073
-0.072	-8.523	0.092
-0.100	-8.520	0.094
-0.125	-8.520	0.079
-0.136	-8.521	0.053
-0.130	-8.524	0.025
-0.108	-8.527	0.006
-0.079	-8.529	0.004
-0.102	-9.231	0.098
-0.091	-9.228	0.125
-0.098	-9.225	0.152
-0.119	-9.222	0.171
-0.148	-9.220	0.173
-0.172	-9.221	0.158
-0.183	-9.223	0.132
-0.177	-9.227	0.104
-0.155	-9.230	0.086
-0.127	-9.231	0.083
-0.120	-9.933	0.184
-0.109	-9.930	0.211
-0.116	-9.927	0.238
-0.137	-9.923	0.256
-0.166	-9.921	0.258
-0.190	-9.921	0.243
-0.201	-9.924	0.217
-0.194	-9.927	0.189
-0.172	-9.931	0.171
-0.144	-9.933	0.169
-0.195	-10.633	0.265
-0.185	-10.632	0.291
-0.192	-10.629	0.318
-0.214	-10.624	0.336
-0.242	-10.620	0.337
-0.266	-10.618	0.321
-0.275	-10.619	0.294
-0.268	-10.622	0.267
-0.246	-10.626	0.250
-0.218	-10.631	0.249
-0.322	-11.327	0.297
-0.313	-11.329	0.324
-0.321	-11.327	0.351
-0.343	-11.322	0.368
-0.371	-11.316	0.369
-0.393	-11.312	0.353
-0.403	-11.310	0.326
-0.395	-11.313	0.299
-0.373	-11.317	0.282
-0.345	-11.323	0.281
-0.479	-12.017	0.296
-0.470	-12.019	0.322
-0.478	-12.017	0.349
-0.500	-12.012	0.366
-0.528	-12.006	0.366
-0.550	-12.001	0.350
-0.559	-11.999	0.324
-0.551	-12.001	0.297
-0.529	-12.006	0.280
-0.501	-12.012	0.280
-0.640	-12.706	0.308
-0.631	-12.708	0.334
-0.639	-12.706	0.361
-0.661	-12.701	0.378
-0.688	-12.694	0.378
-0.711	-12.689	0.361
-0.719	-12.687	0.335
-0.711	-12.689	0.308
-0.689	-12.694	0.291
-0.662	-12.701	0.291
-0.808	-13.392	0.303
-0.800	-13.396	0.329
-0.808	-13.394	0.356
-0.830	-13.389	0.372
-0.857	-13.382	0.373
-0.879	-13.376	0.357
-0.888	-13.372	0.330
-0.879	-13.374	0.303
-0.857	-13.379	0.287
-0.830	-13.386	0.286
-1.002	-14.071	0.256
-0.994	-14.075	0.283
-1.003	-14.074	0.309
-1.024	-14.069	0.326
-1.051	-14.061	0.326
-1.073	-14.054	0.310
-1.081	-14.050	0.284
-1.072	-14.051	0.257
-1.051	-14.056	0.240
-1.024	-14.063	0.240
-1.201	-14.748	0.214
-1.193	-14.752	0.240
-1.201	-14.751	0.267
-1.223	-14.746	0.283
-1.249	-14.739	0.284
-1.271	-14.731	0.268
-1.279	-14.727	0.241
-1.271	-14.728	0.215
-1.249	-14.733	0.198
-1.222	-14.741	0.198
-1.385	-15.426	0.166
-1.375	-15.430	0.191
-1.382	-15.431	0.218
-1.403	-15.428	0.236
-1.430	-15.423	0.238
-1.453	-15.416	0.224
-1.463	-15.411	0.198
-1.456	-15.410	0.171
-1.435	-15.413	0.153
-1.408	-15.419	0.151
-1.509	-16.111	0.077
-1.498	-16.117	0.102
-1.502	-16.120	0.129
-1.522	-16.119	0.148
-1.550	-16.116	0.153
-1.574	-16.110	0.140
-1.586	-16.105	0.115
-1.581	-16.101	0.088
-1.561	-16.102	0.069
-1.534	-16.106	0.065
-1.576	-16.571	0.002
-1.564	-16.576	0.026
-1.568	-16.580	0.053
-1.588	-16.580	0.073
-1.615	-16.577	0.078
-1.639	-16.572	0.066
-1.652	-16.566	0.042
-1.648	-16.562	0.015
-1.628	-16.562	-0.005
-1.601	-16.565	-0.010
		    </DataArray>
         </Points>
         <Cells>
            <DataArray type="Int32" Name="connectivity" NumberOfComponents="1" format="ascii">
 0 10 1 11 2 12 3 13 4 14 5 15 6 16 7 17 8 18 9 19 0 10
 20 30 21 31 22 32 23 33 24 34 25 35 26 36 27 37 28 38 29 39 20 30
 40 50 41 51 42 52 43 53 44 54 45 55 46 56 47 57 48 58 49 59 40 50
 60 70 61 71 62 72 63 73 64 74 65 75 66 76 67 77 68 78 69 79 60 70
 80 90 81 91 82 92 83 93 84 94 85 95 86 96 87 97 88 98 89 99 80 90
 90 100 91 101 92 102 93 103 94 104 95 105 96 106 97 107 98 108 99 109 90 100
 100 110 101 111 102 112 103 113 104 114 105 115 106 116 107 117 108 118 109 119 100 110
 110 120 111 121 112 122 113 123 114 124 115 125 116 126 117 127 118 128 119 129 110 120
 120 130 121 131 122 132 123 133 124 134 125 135 126 136 127 137 128 138 129 139 120 130
 130 140 131 141 132 142 133 143 134 144 135 145 136 146 137 147 138 148 139 149 130 140
 140 150 141 151 142 152 143 153 144 154 145 155 146 156 147 157 148 158 149 159 140 150
 150 160 151 161 152 162 153 163 154 164 155 165 156 166 157 167 158 168 159 169 150 160
 160 170 161 171 162 172 163 173 164 174 165 175 166 176 167 177 168 178 169 179 160 170
 170 180 171 181 172 182 173 183 174 184 175 185 176 186 177 187 178 188 179 189 170 180
 190 200 191 201 192 202 193 203 194 204 195 205 196 206 197 207 198 208 199 209 190 200
 210 220 211 221 212 222 213 223 214 224 215 225 216 226 217 227 218 228 219 229 210 220
 230 240 231 241 232 242 233 243 234 244 235 245 236 246 237 247 238 248 239 249 230 240
 250 260 251 261 252 262 253 263 254 264 255 265 256 266 257 267 258 268 259 269 250 260
 270 280 271 281 272 282 273 283 274 284 275 285 276 286 277 287 278 288 279 289 270 280
 290 300 291 301 292 302 293 303 294 304 295 305 296 306 297 307 298 308 299 309 290 300
 310 320 311 321 312 322 313 323 314 324 315 325 316 326 317 327 318 328 319 329 310 320
 330 340 331 341 332 342 333 343 334 344 335 345 336 346 337 347 338 348 339 349 330 340
 350 360 351 361 352 362 353 363 354 364 355 365 356 366 357 367 358 368 359 369 350 360
 370 380 371 381 372 382 373 383 374 384 375 385 376 386 377 387 378 388 379 389 370 380
 390 400 391 401 392 402 393 403 394 404 395 405 396 406 397 407 398 408 399 409 390 400
 410 420 411 421 412 422 413 423 414 424 415 425 416 426 417 427 418 428 419 429 410 420
 430 440 431 441 432 442 433 443 434 444 435 445 436 446 437 447 438 448 439 449 430 440
 450 460 451 461 452 462 453 463 454 464 455 465 456 466 457 467 458 468 459 469 450 460
 470 480 471 481 472 482 473 483 474 484 475 485 476 486 477 487 478 488 479 489 470 480
 490 500 491 501 492 502 493 503 494 504 495 505 496 506 497 507 498 508 499 509 490 500
 510 520 511 521 512 522 513 523 514 524 515 525 516 526 517 527 518 528 519 529 510 520
 530 540 531 541 532 542 533 543 534 544 535 545 536 546 537 547 538 548 539 549 530 540
 550 560 551 561 552 562 553 563 554 564 555 565 556 566 557 567 558 568 559 569 550 560
 560 570 561 571 562 572 563 573 564 574 565 575 566 576 567 577 568 578 569 579 560 570
 570 580 571 581 572 582 573 583 574 584 575 585 576 586 577 587 578 588 579 589 570 580
 580 590 581 591 582 592 583 593 584 594 585 595 586 596 587 597 588 598 589 599 580 590
 590 600 591 601 592 602 593 603 594 604 595 605 596 606 597 607 598 608 599 609 590 600
 600 610 601 611 602 612 603 613 604 614 605 615 606 616 607 617 608 618 609 619 600 610
 610 620 611 621 612 622 613 623 614 624 615 625 616 626 617 627 618 628 619 629 610 620
 620 630 621 631 622 632 623 633 624 634 625 635 626 636 627 637 628 638 629 639 620 630
 630 640 631 641 632 642 633 643 634 644 635 645 636 646 637 647 638 648 639 649 630 640
 640 650 641 651 642 652 643 653 644 654 645 655 646 656 647 657 648 658 649 659 640 650
 650 660 651 661 652 662 653 663 654 664 655 665 656 666 657 667 658 668 659 669 650 660
 660 670 661 671 662 672 663 673 664 674 665 675 666 676 667 677 668 678 669 679 660 670
 670 680 671 681 672 682 673 683 674 684 675 685 676 686 677 687 678 688 679 689 670 680
 680 690 681 691 682 692 683 693 684 694 685 695 686 696 687 697 688 698 689 699 680 690
 690 700 691 701 692 702 693 703 694 704 695 705 696 706 697 707 698 708 699 709 690 700
 700 710 701 711 702 712 703 713 704 714 705 715 706 716 707 717 708 718 709 719 700 710
 710 720 711 721 712 722 713 723 714 724 715 725 716 726 717 727 718 728 719 729 710 720

            </DataArray>
            <DataArray type="Int32" Name="offsets" NumberOfComponents="1" format="ascii">
 22 44 66 88 110 132 154 176 198 220 242 264 286 308 330 352 374 396 418 440 462 484 506 528 550 572 594 616 638 660 682 704 726 748 770 792 814 836 858 880 902 924 946 968 990 1012 1034 1056 1078
            </DataArray>
            <DataArray type="UInt8"  Name="types" NumberOfComponents="1" format="ascii">
6 6 6 6 6 6 6 6 6 6 6 6 6 6 6 6 6 6 6 6 6 6 6 6 6 6 6 6 6 6 6 6 6 6 6 6 6 6 6 6 6 6 6 6 6 6 6 6 6
            </DataArray>
         </Cells>
         <CellData>
           <DataArray type="Float32" Name="combinedRootClassID" NumberOfComponents="1" format="ascii">
 -5.000e+00 -5.000e+00 -5.000e+00 -5.000e+00 -2.000e+00 -2.000e+00 -2.000e+00 -2.000e+00 -2.000e+00 -2.000e+00 -2.000e+00 -2.000e+00 -2.000e+00 -2.000e+00 -7.000e+00 -7.000e+00 -7.000e+00 -7.000e+00 -7.000e+00 -7.000e+00 -7.000e+00 -7.000e+00 -7.000e+00 -7.000e+00 -7.000e+00 -7.000e+00 -7.000e+00 -7.000e+00 -7.000e+00 -7.000e+00 -7.000e+00 -9.000e+00 -4.000e+00 -4.000e+00 -4.000e+00 -4.000e+00 -4.000e+00 -4.000e+00 -4.000e+00 -4.000e+00 -4.000e+00 -4.000e+00 -4.000e+00 -4.000e+00 -4.000e+00 -4.000e+00 -4.000e+00 -4.000e+00 -4.000e+00
           </DataArray>
           <DataArray type="Float32" Name="nitrate/Cmin" NumberOfComponents="1" format="ascii">
 1.000e-03 1.000e-03 1.000e-03 1.000e-03 1.000e-03 1.000e-03 1.000e-03 1.000e-03 1.000e-03 1.000e-03 1.000e-03 1.000e-03 1.000e-03 1.000e-03 1.000e-03 1.000e-03 1.000e-03 1.000e-03 1.000e-03 1.000e-03 1.000e-03 1.000e-03 1.000e-03 1.000e-03 1.000e-03 1.000e-03 1.000e-03 1.000e-03 1.000e-03 1.000e-03 1.000e-03 1.000e-03 1.000e-03 1.000e-03 1.000e-03 1.000e-03 1.000e-03 1.000e-03 1.000e-03 1.000e-03 1.000e-03 1.000e-03 1.000e-03 1.000e-03 1.000e-03 1.000e-03 1.000e-03 1.000e-03 1.000e-03
           </DataArray>
           <DataArray type="Float32" Name="nitrate/Imax" NumberOfComponents="1" format="ascii">
 1.900e+00 1.900e+00 1.900e+00 1.900e+00 1.900e+00 1.900e+00 1.900e+00 1.900e+00 1.900e+00 1.900e+00 1.900e+00 1.900e+00 1.900e+00 1.900e+00 1.900e+00 1.900e+00 1.900e+00 1.900e+00 1.900e+00 1.900e+00 1.900e+00 1.900e+00 1.900e+00 1.900e+00 1.900e+00 1.900e+00 1.900e+00 1.900e+00 1.900e+00 1.900e+00 1.900e+00 1.900e+00 1.900e+00 1.900e+00 1.900e+00 1.900e+00 1.900e+00 1.900e+00 1.900e+00 1.900e+00 1.900e+00 1.900e+00 1.900e+00 1.900e+00 1.900e+00 1.900e+00 1.900e+00 1.900e+00 1.900e+00
           </DataArray>
           <DataArray type="Float32" Name="nitrate/Km" NumberOfComponents="1" format="ascii">
 1.610e-02 1.610e-02 1.610e-02 1.610e-02 1.610e-02 1.610e-02 1.610e-02 1.610e-02 1.610e-02 1.610e-02 1.610e-02 1.610e-02 1.610e-02 1.610e-02 1.610e-02 1.610e-02 1.610e-02 1.610e-02 1.610e-02 1.610e-02 1.610e-02 1.610e-02 1.610e-02 1.610e-02 1.610e-02 1.610e-02 1.610e-02 1.610e-02 1.610e-02 1.610e-02 1.610e-02 1.610e-02 1.610e-02 1.610e-02 1.610e-02 1.610e-02 1.610e-02 1.610e-02 1.610e-02 1.610e-02 1.610e-02 1.610e-02 1.610e-02 1.610e-02 1.610e-02 1.610e-02 1.610e-02 1.610e-02 1.610e-02
           </DataArray>
           <DataArray type="Float32" Name="nitrate/minimalNutrientConcentration" NumberOfComponents="1" format="ascii">
 6.000e+02 6.000e+02 6.000e+02 6.000e+02 6.000e+02 6.000e+02 6.000e+02 6.000e+02 6.000e+02 6.000e+02 6.000e+02 6.000e+02 6.000e+02 6.000e+02 6.000e+02 6.000e+02 6.000e+02 6.000e+02 6.000e+02 6.000e+02 6.000e+02 6.000e+02 6.000e+02 6.000e+02 6.000e+02 6.000e+02 6.000e+02 6.000e+02 6.000e+02 6.000e+02 6.000e+02 6.000e+02 6.000e+02 6.000e+02 6.000e+02 6.000e+02 6.000e+02 6.000e+02 6.000e+02 6.000e+02 6.000e+02 6.000e+02 6.000e+02 6.000e+02 6.000e+02 6.000e+02 6.000e+02 6.000e+02 6.000e+02
           </DataArray>
           <DataArray type="Float32" Name="nitrate/nutrientConcentrationAtTheRootSurface" NumberOfComponents="1" format="ascii">
 3.980e-01 3.980e-01 3.980e-01 3.980e-01 3.982e-01 3.441e-01 3.069e-01 2.434e-01 2.123e-01 1.905e-01 1.704e-01 0.000e+00 0.000e+00 0.000e+00 3.989e-01 4.038e-01 4.008e-01 3.990e-01 4.021e-01 4.034e-01 4.046e-01 4.047e-01 4.019e-01 4.066e-01 4.062e-01 4.051e-01 4.034e-01 4.001e-01 4.008e-01 4.013e-01 4.007e-01 3.996e-01 3.982e-01 4.000e-01 4.036e-01 4.027e-01 4.254e-01 4.559e-01 4.699e-01 4.727e-01 5.028e-01 5.142e-01 4.894e-01 4.807e-01 4.928e-01 5.031e-01 5.944e-01 6.393e-01 6.723e-01
           </DataArray>
           <DataArray type="Float32" Name="nitrate/optimalNutrientConcentration" NumberOfComponents="1" format="ascii">
 1.200e+03 1.200e+03 1.200e+03 1.200e+03 1.200e+03 1.200e+03 1.200e+03 1.200e+03 1.200e+03 1.200e+03 1.200e+03 1.200e+03 1.200e+03 1.200e+03 1.200e+03 1.200e+03 1.200e+03 1.200e+03 1.200e+03 1.200e+03 1.200e+03 1.200e+03 1.200e+03 1.200e+03 1.200e+03 1.200e+03 1.200e+03 1.200e+03 1.200e+03 1.200e+03 1.200e+03 1.200e+03 1.200e+03 1.200e+03 1.200e+03 1.200e+03 1.200e+03 1.200e+03 1.200e+03 1.200e+03 1.200e+03 1.200e+03 1.200e+03 1.200e+03 1.200e+03 1.200e+03 1.200e+03 1.200e+03 1.200e+03
           </DataArray>
           <DataArray type="Float32" Name="nitrate/rootSegmentMinimalNutrientContent" NumberOfComponents="1" format="ascii">
 1.094e-01 1.094e-01 1.094e-01 1.094e-01 5.604e+00 5.118e+00 8.544e+00 4.388e+00 4.374e+00 6.541e+00 6.224e+00 6.344e+00 6.290e+00 1.806e+00 2.197e-02 2.107e-02 8.081e-03 8.102e-03 5.316e-03 5.049e-03 3.755e-03 2.884e-03 1.299e-03 2.063e-02 1.808e-02 1.635e-02 1.514e-02 1.193e-02 1.245e-02 1.242e-02 1.086e-02 1.184e-02 2.947e-01 2.880e-01 2.824e-01 2.780e-01 2.745e-01 2.713e-01 2.683e-01 2.657e-01 2.633e-01 2.612e-01 2.594e-01 2.578e-01 2.565e-01 2.554e-01 2.546e-01 2.541e-01 1.692e-01
           </DataArray>
           <DataArray type="Float32" Name="nitrate/rootSegmentNutrientUptake" NumberOfComponents="1" format="ascii">
 0.000e+00 0.000e+00 0.000e+00 0.000e+00 0.000e+00 5.641e-01 4.915e-01 3.671e-01 3.016e-01 2.312e-01 1.298e-01 0.000e+00 0.000e+00 0.000e+00 0.000e+00 0.000e+00 0.000e+00 0.000e+00 0.000e+00 0.000e+00 0.000e+00 0.000e+00 0.000e+00 0.000e+00 0.000e+00 0.000e+00 0.000e+00 0.000e+00 0.000e+00 0.000e+00 0.000e+00 0.000e+00 0.000e+00 6.554e-01 6.425e-01 6.252e-01 6.225e-01 6.138e-01 5.848e-01 5.421e-01 5.095e-01 4.600e-01 3.896e-01 3.305e-01 2.710e-01 2.131e-01 1.730e-01 1.089e-01 3.710e-02
           </DataArray>
           <DataArray type="Float32" Name="nitrate/rootSegmentOptimalNutrientContent" NumberOfComponents="1" format="ascii">
 2.189e-01 2.189e-01 2.189e-01 2.189e-01 1.121e+01 1.024e+01 1.709e+01 8.776e+00 8.748e+00 1.308e+01 1.245e+01 1.269e+01 1.258e+01 3.612e+00 4.395e-02 4.214e-02 1.616e-02 1.620e-02 1.063e-02 1.010e-02 7.510e-03 5.768e-03 2.597e-03 4.127e-02 3.617e-02 3.270e-02 3.028e-02 2.385e-02 2.490e-02 2.485e-02 2.172e-02 2.369e-02 5.894e-01 5.760e-01 5.649e-01 5.560e-01 5.489e-01 5.425e-01 5.367e-01 5.314e-01 5.267e-01 5.224e-01 5.188e-01 5.156e-01 5.130e-01 5.108e-01 5.092e-01 5.081e-01 3.384e-01
           </DataArray>
           <DataArray type="Float32" Name="parentRootClassID" NumberOfComponents="1" format="ascii">
 -2.000e+00 -2.000e+00 -2.000e+00 -2.000e+00 -3.000e+00 -3.000e+00 -3.000e+00 -3.000e+00 -3.000e+00 -3.000e+00 -3.000e+00 -3.000e+00 -3.000e+00 -3.000e+00 -4.000e+00 -4.000e+00 -4.000e+00 -4.000e+00 -4.000e+00 -4.000e+00 -4.000e+00 -4.000e+00 -4.000e+00 -4.000e+00 -4.000e+00 -4.000e+00 -4.000e+00 -4.000e+00 -4.000e+00 -4.000e+00 -4.000e+00 -4.000e+00 -3.000e+00 -3.000e+00 -3.000e+00 -3.000e+00 -3.000e+00 -3.000e+00 -3.000e+00 -3.000e+00 -3.000e+00 -3.000e+00 -3.000e+00 -3.000e+00 -3.000e+00 -3.000e+00 -3.000e+00 -3.000e+00 -3.000e+00
           </DataArray>
           <DataArray type="Float32" Name="plantID" NumberOfComponents="1" format="ascii">
 6.000e+00 6.000e+00 6.000e+00 6.000e+00 6.000e+00 6.000e+00 6.000e+00 6.000e+00 6.000e+00 6.000e+00 6.000e+00 6.000e+00 6.000e+00 6.000e+00 6.000e+00 6.000e+00 6.000e+00 6.000e+00 6.000e+00 6.000e+00 6.000e+00 6.000e+00 6.000e+00 6.000e+00 6.000e+00 6.000e+00 6.000e+00 6.000e+00 6.000e+00 6.000e+00 6.000e+00 6.000e+00 6.000e+00 6.000e+00 6.000e+00 6.000e+00 6.000e+00 6.000e+00 6.000e+00 6.000e+00 6.000e+00 6.000e+00 6.000e+00 6.000e+00 6.000e+00 6.000e+00 6.000e+00 6.000e+00 6.000e+00
           </DataArray>
           <DataArray type="Float32" Name="plantTypeID" NumberOfComponents="1" format="ascii">
 0.000e+00 0.000e+00 0.000e+00 0.000e+00 0.000e+00 0.000e+00 0.000e+00 0.000e+00 0.000e+00 0.000e+00 0.000e+00 0.000e+00 0.000e+00 0.000e+00 0.000e+00 0.000e+00 0.000e+00 0.000e+00 0.000e+00 0.000e+00 0.000e+00 0.000e+00 0.000e+00 0.000e+00 0.000e+00 0.000e+00 0.000e+00 0.000e+00 0.000e+00 0.000e+00 0.000e+00 0.000e+00 0.000e+00 0.000e+00 0.000e+00 0.000e+00 0.000e+00 0.000e+00 0.000e+00 0.000e+00 0.000e+00 0.000e+00 0.000e+00 0.000e+00 0.000e+00 0.000e+00 0.000e+00 0.000e+00 0.000e+00
           </DataArray>
           <DataArray type="Float32" Name="rootCircumference" NumberOfComponents="1" format="ascii">
 2.136e-01 2.136e-01 2.136e-01 2.136e-01 1.295e+00 1.286e+00 1.281e+00 1.276e+00 1.274e+00 1.273e+00 1.270e+00 1.267e+00 1.265e+00 1.260e+00 9.426e-02 9.426e-02 9.425e-02 9.425e-02 9.425e-02 9.425e-02 9.425e-02 9.425e-02 9.425e-02 9.426e-02 9.425e-02 9.425e-02 9.425e-02 9.425e-02 9.425e-02 9.425e-02 9.425e-02 9.425e-02 3.047e-01 3.012e-01 2.983e-01 2.960e-01 2.941e-01 2.924e-01 2.908e-01 2.893e-01 2.881e-01 2.869e-01 2.859e-01 2.850e-01 2.843e-01 2.837e-01 2.832e-01 2.829e-01 2.828e-01
           </DataArray>
           <DataArray type="Float32" Name="rootClassID" NumberOfComponents="1" format="ascii">
 9.900e+01 9.900e+01 9.900e+01 9.900e+01 -2.000e+00 -2.000e+00 -2.000e+00 -2.000e+00 -2.000e+00 -2.000e+00 -2.000e+00 -2.000e+00 -2.000e+00 -2.000e+00 9.700e+01 9.700e+01 9.700e+01 9.700e+01 9.700e+01 9.700e+01 9.700e+01 9.700e+01 9.700e+01 9.700e+01 9.700e+01 9.700e+01 9.700e+01 9.700e+01 9.700e+01 9.700e+01 9.700e+01 9.700e+01 -4.000e+00 -4.000e+00 -4.000e+00 -4.000e+00 -4.000e+00 -4.000e+00 -4.000e+00 -4.000e+00 -4.000e+00 -4.000e+00 -4.000e+00 -4.000e+00 -4.000e+00 -4.000e+00 -4.000e+00 -4.000e+00 -4.000e+00
           </DataArray>
           <DataArray type="Float32" Name="rootDiameter" NumberOfComponents="1" format="ascii">
 6.800e-02 6.800e-02 6.800e-02 6.800e-02 4.123e-01 4.092e-01 4.078e-01 4.063e-01 4.057e-01 4.051e-01 4.042e-01 4.034e-01 4.025e-01 4.010e-01 3.000e-02 3.000e-02 3.000e-02 3.000e-02 3.000e-02 3.000e-02 3.000e-02 3.000e-02 3.000e-02 3.000e-02 3.000e-02 3.000e-02 3.000e-02 3.000e-02 3.000e-02 3.000e-02 3.000e-02 3.000e-02 9.700e-02 9.589e-02 9.496e-02 9.421e-02 9.361e-02 9.306e-02 9.256e-02 9.210e-02 9.169e-02 9.132e-02 9.100e-02 9.072e-02 9.049e-02 9.030e-02 9.016e-02 9.006e-02 9.001e-02
           </DataArray>
           <DataArray type="Float32" Name="rootHairDensity" NumberOfComponents="1" format="ascii">