<?xml version="1.0"?>
<VTKFile type="UnstructuredGrid" version="0.1" byte_order="LittleEndian">
   <UnstructuredGrid>
      <Piece NumberOfPoints="33140" NumberOfCells="2340">
         <Points>
            <DataArray type="Float32" Name="Position" NumberOfComponents="3" format="ascii">
0.036	-5.031	-0.153
0.041	-5.032	-0.144
0.039	-5.032	-0.135
0.033	-5.033	-0.129
0.024	-5.033	-0.127
0.015	-5.033	-0.131
0.011	-5.032	-0.139
0.012	-5.032	-0.148
0.019	-5.031	-0.155
0.028	-5.031	-0.157
0.030	-5.900	-0.201
0.035	-5.900	-0.193
0.034	-5.900	-0.183
0.027	-5.900	-0.177
0.018	-5.901	-0.175
0.010	-5.901	-0.179
0.005	-5.901	-0.187
0.007	-5.901	-0.196
0.013	-5.901	-0.203
0.022	-5.900	-0.205
0.129	-6.742	-0.155
0.133	-6.740	-0.147
0.131	-6.739	-0.138
0.125	-6.740	-0.131
0.116	-6.741	-0.129
0.108	-6.742	-0.133
0.104	-6.743	-0.142
0.105	-6.744	-0.151
0.111	-6.744	-0.157
0.120	-6.743	-0.159
0.244	-7.568	-0.031
0.249	-7.566	-0.023
0.247	-7.566	-0.014
0.241	-7.566	-0.007
0.232	-7.567	-0.005
0.224	-7.569	-0.009
0.219	-7.570	-0.018
0.221	-7.571	-0.027
0.227	-7.571	-0.033
0.236	-7.569	-0.035
0.253	-7.621	-0.029
0.257	-7.620	-0.021
0.256	-7.620	-0.011
0.250	-7.620	-0.005
0.241	-7.622	-0.003
0.233	-7.623	-0.006
0.228	-7.624	-0.014
0.229	-7.625	-0.024
0.236	-7.624	-0.030
0.245	-7.623	-0.032
0.051	-5.102	-0.266
0.048	-5.094	-0.262
0.046	-5.085	-0.264
0.047	-5.078	-0.271
0.049	-5.077	-0.280
0.052	-5.081	-0.288
0.055	-5.089	-0.291
0.056	-5.098	-0.289
0.056	-5.105	-0.282
0.054	-5.106	-0.273
-0.755	-5.283	-0.495
-0.758	-5.276	-0.491
-0.760	-5.267	-0.492
-0.760	-5.260	-0.498
-0.759	-5.258	-0.507
-0.756	-5.261	-0.515
-0.753	-5.269	-0.519
-0.751	-5.278	-0.518
-0.750	-5.285	-0.512
-0.752	-5.287	-0.503
-1.563	-5.546	-0.649
-1.567	-5.537	-0.648
-1.571	-5.530	-0.652
-1.571	-5.526	-0.661
-1.570	-5.527	-0.670
-1.566	-5.532	-0.676
-1.562	-5.541	-0.677
-1.558	-5.548	-0.673
-1.558	-5.552	-0.665
-1.559	-5.551	-0.656
-2.265	-6.037	-0.710
-2.271	-6.030	-0.711
-2.275	-6.024	-0.718
-2.276	-6.022	-0.727
-2.272	-6.025	-0.735
-2.267	-6.030	-0.740
-2.261	-6.037	-0.739
-2.257	-6.043	-0.733
-2.256	-6.045	-0.724
-2.259	-6.043	-0.715
-2.425	-6.232	-0.756
-2.427	-6.231	-0.747
-2.432	-6.227	-0.741
-2.439	-6.221	-0.741
-2.445	-6.215	-0.745
-2.447	-6.212	-0.754
-2.445	-6.213	-0.763
-2.439	-6.217	-0.769
-2.432	-6.223	-0.770
-2.427	-6.229	-0.765
0.304	-5.894	-1.331
0.304	-5.888	-1.324
0.302	-5.888	-1.315
0.300	-5.893	-1.307
0.297	-5.901	-1.304
0.296	-5.910	-1.307
0.296	-5.916	-1.314
0.298	-5.916	-1.324
0.300	-5.911	-1.331
0.302	-5.903	-1.334
1.139	-6.071	-1.173
1.139	-6.066	-1.165
1.137	-6.066	-1.156
1.135	-6.071	-1.149
1.133	-6.079	-1.146
1.131	-6.088	-1.149
1.132	-6.094	-1.156
1.133	-6.094	-1.165
1.135	-6.089	-1.173
1.138	-6.080	-1.175
2.008	-6.234	-1.042
2.008	-6.229	-1.035
2.007	-6.229	-1.026
2.005	-6.234	-1.018
2.003	-6.243	-1.016
2.002	-6.252	-1.019
2.002	-6.257	-1.026
2.003	-6.257	-1.036
2.005	-6.252	-1.043
2.007	-6.243	-1.045
2.765	-6.366	-0.925
2.769	-6.358	-0.925
2.768	-6.349	-0.925
2.761	-6.342	-0.925
2.752	-6.341	-0.925
2.744	-6.345	-0.925
2.740	-6.353	-0.925
2.741	-6.362	-0.925
2.748	-6.369	-0.925
2.757	-6.370	-0.925
1.293	-18.787	-4.052
1.296	-18.783	-4.044
1.296	-18.783	-4.035
1.293	-18.787	-4.027
1.289	-18.795	-4.025
1.284	-18.803	-4.027
1.282	-18.808	-4.035
1.282	-18.808	-4.044
1.285	-18.803	-4.052
1.289	-18.795	-4.055
1.592	-18.954	-4.050
1.595	-18.950	-4.042
1.595	-18.950	-4.033
1.592	-18.954	-4.025
1.588	-18.962	-4.023
1.584	-18.970	-4.026
1.581	-18.975	-4.033
1.581	-18.975	-4.042
1.584	-18.970	-4.050
1.588	-18.962	-4.053
1.259	-18.933	-4.036
1.267	-18.929	-4.038
1.277	-18.931	-4.039
1.283	-18.937	-4.039
1.285	-18.946	-4.038
1.281	-18.954	-4.036
1.273	-18.959	-4.035
1.264	-18.957	-4.034
1.257	-18.951	-4.033
1.255	-18.942	-4.034
1.212	-18.974	-4.372
1.220	-18.970	-4.374
1.230	-18.971	-4.375
1.236	-18.978	-4.375
1.238	-18.987	-4.374
1.234	-18.995	-4.373
1.226	-18.999	-4.371
1.217	-18.998	-4.370
1.210	-18.991	-4.370
1.208	-18.982	-4.370
1.263	-19.101	-4.036
1.266	-19.093	-4.034
1.264	-19.084	-4.031
1.256	-19.079	-4.029
1.247	-19.079	-4.028
1.239	-19.084	-4.029
1.236	-19.093	-4.032
1.239	-19.101	-4.034
1.246	-19.106	-4.037
1.256	-19.106	-4.037
1.283	-19.201	-3.717
1.286	-19.193	-3.715
1.283	-19.185	-3.712
1.276	-19.179	-3.710
1.267	-19.179	-3.709
1.259	-19.184	-3.711
1.256	-19.193	-3.713
1.259	-19.201	-3.716
1.266	-19.207	-3.718
1.275	-19.207	-3.719
1.237	-19.233	-4.043
1.238	-19.228	-4.035
1.237	-19.228	-4.026
1.235	-19.233	-4.019
1.232	-19.241	-4.016
1.229	-19.250	-4.019
1.228	-19.255	-4.027
1.229	-19.255	-4.036
1.231	-19.250	-4.043
1.234	-19.242	-4.046
1.513	-19.341	-4.012
1.517	-19.332	-4.012
1.515	-19.323	-4.012
1.509	-19.317	-4.012
1.500	-19.315	-4.012
1.491	-19.319	-4.012
1.487	-19.328	-4.012
1.489	-19.337	-4.012
1.495	-19.343	-4.012
1.504	-19.345	-4.012
1.206	-19.378	-4.033
1.215	-19.376	-4.035
1.224	-19.379	-4.034
1.229	-19.387	-4.032
1.229	-19.395	-4.029
1.223	-19.402	-4.026
1.214	-19.405	-4.025
1.205	-19.401	-4.026
1.200	-19.394	-4.028
1.201	-19.385	-4.031
1.197	-19.452	-4.259
1.206	-19.450	-4.260
1.215	-19.453	-4.259
1.220	-19.461	-4.257
1.220	-19.469	-4.254
1.214	-19.476	-4.251
1.205	-19.479	-4.250
1.196	-19.475	-4.251
1.191	-19.468	-4.253
1.191	-19.459	-4.256
1.187	-19.528	-4.031
1.196	-19.525	-4.033
1.205	-19.528	-4.033
1.211	-19.535	-4.031
1.211	-19.544	-4.029
1.206	-19.551	-4.026
1.197	-19.554	-4.025
1.188	-19.551	-4.025
1.182	-19.544	-4.026
1.182	-19.535	-4.029
1.168	-19.593	-4.267
1.177	-19.591	-4.268
1.186	-19.593	-4.268
1.191	-19.601	-4.267
1.192	-19.610	-4.264
1.186	-19.617	-4.262
1.178	-19.620	-4.260
1.169	-19.617	-4.260
1.163	-19.610	-4.262
1.163	-19.601	-4.264
1.182	-19.700	-4.018
1.182	-19.692	-4.013
1.181	-19.683	-4.013
1.179	-19.676	-4.019
1.178	-19.673	-4.028
1.177	-19.677	-4.037
1.177	-19.685	-4.042
1.178	-19.694	-4.041
1.180	-19.701	-4.035
1.181	-19.703	-4.027
0.948	-19.697	-3.999
0.956	-19.693	-3.999
0.965	-19.695	-3.999
0.972	-19.701	-3.999
0.973	-19.710	-3.999
0.969	-19.719	-3.999
0.961	-19.723	-3.999
0.952	-19.721	-3.999
0.945	-19.715	-3.999
0.944	-19.706	-3.999
1.175	-19.844	-4.031
1.177	-19.836	-4.028
1.174	-19.828	-4.024
1.167	-19.824	-4.021
1.158	-19.825	-4.020
1.150	-19.830	-4.021
1.148	-19.839	-4.024
1.151	-19.846	-4.028
1.158	-19.851	-4.031
1.167	-19.850	-4.032
1.204	-19.918	-3.862
1.207	-19.910	-3.859
1.204	-19.902	-3.855
1.196	-19.898	-3.852
1.187	-19.899	-3.851
1.180	-19.904	-3.852
1.177	-19.913	-3.855
1.180	-19.920	-3.859
1.188	-19.925	-3.862
1.197	-19.924	-3.864
1.136	-19.975	-4.027
1.145	-19.972	-4.029
1.154	-19.975	-4.029
1.160	-19.982	-4.028
1.160	-19.991	-4.025
1.155	-19.998	-4.023
1.146	-20.001	-4.021
1.137	-19.998	-4.021
1.132	-19.991	-4.022
1.131	-19.982	-4.024
1.119	-20.019	-4.184
1.127	-20.016	-4.186
1.136	-20.019	-4.186
1.142	-20.026	-4.185
1.142	-20.035	-4.182
1.137	-20.042	-4.180
1.129	-20.045	-4.178
1.120	-20.043	-4.178
1.114	-20.035	-4.179
1.113	-20.027	-4.182
1.128	-20.146	-4.013
1.127	-20.137	-4.009
1.127	-20.128	-4.011
1.128	-20.122	-4.018
1.129	-20.121	-4.027
1.130	-20.125	-4.035
1.131	-20.134	-4.039
1.131	-20.143	-4.037
1.130	-20.149	-4.030
1.129	-20.150	-4.021
1.002	-20.151	-4.039
1.007	-20.143	-4.039
1.005	-20.134	-4.039
0.999	-20.127	-4.039
0.989	-20.126	-4.039
0.981	-20.130	-4.039
0.977	-20.138	-4.039
0.978	-20.147	-4.039
0.985	-20.154	-4.039
0.994	-20.155	-4.039
0.332	-6.004	-1.430
0.331	-5.998	-1.423
0.329	-5.997	-1.414
0.327	-6.002	-1.406
0.325	-6.011	-1.403
0.324	-6.020	-1.406
0.325	-6.025	-1.413
0.327	-6.026	-1.422
0.329	-6.021	-1.429
0.331	-6.012	-1.432
1.171	-6.137	-1.238
1.170	-6.131	-1.232
1.167	-6.130	-1.223
1.164	-6.134	-1.215
1.162	-6.142	-1.212
1.162	-6.151	-1.214
1.163	-6.158	-1.221
1.166	-6.159	-1.230
1.169	-6.154	-1.237
1.171	-6.146	-1.240
1.965	-6.198	-0.906
1.962	-6.191	-0.900
1.958	-6.189	-0.892
1.954	-6.192	-0.885
1.951	-6.199	-0.881
1.951	-6.209	-0.881
1.953	-6.216	-0.887
1.957	-6.218	-0.895
1.961	-6.215	-0.902
1.964	-6.208	-0.906
2.526	-6.242	-0.528
2.524	-6.235	-0.523
2.519	-6.231	-0.516
2.514	-6.233	-0.509
2.511	-6.240	-0.504
2.510	-6.250	-0.504
2.512	-6.258	-0.508
2.517	-6.261	-0.515
2.522	-6.259	-0.523
2.525	-6.252	-0.527
1.124	-20.293	-4.027
1.127	-20.285	-4.024
1.125	-20.276	-4.021
1.117	-20.271	-4.018
1.108	-20.271	-4.018
1.100	-20.276	-4.020
1.097	-20.284	-4.023
1.100	-20.293	-4.026
1.108	-20.298	-4.029
1.117	-20.298	-4.029
1.128	-20.348	-3.890
1.131	-20.340	-3.887
1.129	-20.332	-3.883
1.121	-20.327	-3.881
1.112	-20.326	-3.881
1.104	-20.331	-3.883
1.101	-20.340	-3.886
1.104	-20.348	-3.889
1.111	-20.353	-3.891
1.121	-20.353	-3.892
1.109	-20.440	-4.025
1.111	-20.431	-4.023
1.107	-20.423	-4.020
1.100	-20.419	-4.016
1.091	-20.421	-4.013
1.085	-20.428	-4.013
1.083	-20.436	-4.014
1.086	-20.444	-4.018
1.094	-20.448	-4.022
1.103	-20.446	-4.024
1.149	-20.469	-3.917
1.151	-20.460	-3.916
1.147	-20.452	-3.912
1.140	-20.448	-3.908
1.131	-20.450	-3.906
1.124	-20.457	-3.905
1.123	-20.466	-3.907
1.126	-20.473	-3.910
1.134	-20.477	-3.914
1.142	-20.475	-3.917
1.071	-20.573	-4.012
1.078	-20.569	-4.016
1.086	-20.570	-4.019
1.093	-20.576	-4.020
1.096	-20.584	-4.018
1.093	-20.593	-4.015
1.086	-20.597	-4.011
1.077	-20.596	-4.008
1.070	-20.590	-4.007
1.068	-20.581	-4.009
1.047	-20.591	-4.077
1.054	-20.586	-4.081
1.063	-20.587	-4.084
1.070	-20.594	-4.085
1.072	-20.602	-4.083
1.069	-20.611	-4.080
1.062	-20.615	-4.076
1.053	-20.614	-4.073
1.046	-20.608	-4.073
1.044	-20.599	-4.074
1.067	-20.721	-4.018
1.072	-20.718	-4.011
1.075	-20.720	-4.002
1.075	-20.727	-3.996
1.072	-20.735	-3.994
1.066	-20.742	-3.997
1.061	-20.746	-4.004
1.058	-20.743	-4.012
1.058	-20.737	-4.019
1.061	-20.728	-4.021
1.113	-20.745	-4.042
1.118	-20.742	-4.035
1.122	-20.744	-4.026
1.122	-20.751	-4.020
1.118	-20.759	-4.017
1.113	-20.766	-4.020
1.108	-20.769	-4.028
1.105	-20.767	-4.036
1.105	-20.761	-4.043
1.108	-20.752	-4.045
1.052	-20.871	-4.010
1.057	-20.868	-4.003
1.060	-20.870	-3.994
1.060	-20.876	-3.988
1.056	-20.884	-3.985
1.050	-20.891	-3.988
1.045	-20.894	-3.995
1.042	-20.892	-4.003
1.042	-20.886	-4.010
[...]
         <CellData>
           <DataArray type="Float32" Name="combinedRootClassID" NumberOfComponents="1" format="ascii">
 -1.300e+01 -1.300e+01 -1.300e+01 -1.300e+01 -1.300e+01 -1.300e+01 -1.300e+01 -1.300e+01 -1.300e+01 -1.300e+01 -1.300e+01 -1.300e+01 -1.300e+01 -1.300e+01 -1.300e+01 -1.300e+01 -1.300e+01 -1.300e+01 -1.300e+01 -1.300e+01 -1.300e+01 -1.300e+01 -1.300e+01 -1.300e+01 -1.300e+01 -1.300e+01 -1.300e+01 -1.300e+01 -1.300e+01 -1.300e+01 -1.300e+01 -1.300e+01 -1.300e+01 -1.300e+01 -1.300e+01 -1.300e+01 -1.300e+01 -1.300e+01 -1.300e+01 -1.300e+01 -1.300e+01 -1.300e+01 -1.300e+01 -1.300e+01 -1.300e+01 -1.300e+01 -1.300e+01 -1.300e+01 -1.300e+01 -1.300e+01 -1.300e+01 -1.300e+01 -1.300e+01 -1.300e+01 -1.300e+01 -1.300e+01 -1.300e+01 -1.300e+01 -1.300e+01 -1.300e+01 -1.300e+01 -1.300e+01 -1.300e+01 -1.300e+01 -1.300e+01 -1.300e+01 -1.300e+01 -1.300e+01 -1.300e+01 -1.300e+01 -1.300e+01 -1.300e+01 -1.300e+01 -1.300e+01 -1.300e+01 -1.300e+01 -1.300e+01 -1.300e+01 -1.300e+01 -1.300e+01 -1.300e+01 -1.300e+01 -1.300e+01 -1.300e+01 -1.300e+01 -1.300e+01 -1.300e+01 -1.300e+01 -1.300e+01 -1.300e+01 -1.300e+01 -1.300e+01 -1.300e+01 -1.300e+01 -1.300e+01 -1.300e+01 -1.300e+01 -1.300e+01 -1.300e+01 -1.300e+01 -1.300e+01 -1.300e+01 -1.300e+01 -1.300e+01 -1.300e+01 -1.300e+01 -1.300e+01 -1.300e+01 -1.300e+01 -1.300e+01 -1.300e+01 -1.300e+01 -1.300e+01 -1.300e+01 -1.300e+01 -1.300e+01 -1.300e+01 -1.300e+01 -1.300e+01 -1.300e+01 -1.300e+01 -1.300e+01 -1.300e+01 -1.300e+01 -1.300e+01 -1.300e+01 -1.300e+01 -1.300e+01 -1.300e+01 -1.300e+01 -1.300e+01 -1.300e+01 -1.300e+01 -1.300e+01 -1.300e+01 -1.300e+01 -1.300e+01 -1.300e+01 -1.300e+01 -1.300e+01 -1.300e+01 -1.300e+01 -1.300e+01 -1.300e+01 -1.300e+01 -1.300e+01 -1.300e+01 -1.300e+01 -1.300e+01 -1.300e+01 -1.300e+01 -1.300e+01 -1.300e+01 -1.300e+01 -1.300e+01 -1.300e+01 -1.300e+01 -1.300e+01 -1.300e+01 -1.300e+01 -1.300e+01 -1.300e+01 -1.300e+01 -1.300e+01 -1.300e+01 -1.300e+01 -1.300e+01 -1.300e+01 -1.300e+01 -1.300e+01 -1.300e+01 -1.300e+01 -1.300e+01 -1.300e+01 -1.300e+01 -1.300e+01 -1.300e+01 -1.300e+01 -1.300e+01 -1.300e+01 -1.300e+01 -1.300e+01 -1.300e+01 -1.300e+01 -1.300e+01 -1.300e+01 -1.300e+01 -1.300e+01 -1.300e+01 -1.300e+01 -1.300e+01 -1.300e+01 -1.300e+01 -1.300e+01 -1.300e+01 -1.300e+01 -1.300e+01 -1.300e+01 -1.300e+01 -1.300e+01 -1.300e+01 -1.300e+01 -1.300e+01 -1.300e+01 -1.300e+01 -1.300e+01 -1.300e+01 -1.300e+01 -1.300e+01 -1.300e+01 -1.300e+01 -1.300e+01 -1.300e+01 -1.300e+01 -1.300e+01 -1.300e+01 -1.300e+01 -1.300e+01 -1.300e+01 -1.300e+01 -1.300e+01 -1.300e+01 -1.300e+01 -1.300e+01 -1.300e+01 -1.300e+01 -1.300e+01 -1.300e+01 -1.300e+01 -1.300e+01 -1.300e+01 -1.300e+01 -1.300e+01 -1.300e+01 -1.300e+01 -1.300e+01 -5.000e+00 -5.000e+00 -5.000e+00 -5.000e+00 -5.000e+00 -5.000e+00 -5.000e+00 -5.000e+00 -5.000e+00 -5.000e+00 -5.000e+00 -5.000e+00 -5.000e+00 -5.000e+00 -5.000e+00 -5.000e+00 -5.000e+00 -5.000e+00 -5.000e+00 -5.000e+00 -5.000e+00 -5.000e+00 -5.000e+00 -5.000e+00 -5.000e+00 -5.000e+00 -5.000e+00 -5.000e+00 -5.000e+00 -5.000e+00 -5.000e+00 -5.000e+00 -5.000e+00 -1.300e+01 -1.300e+01 -1.300e+01 -1.300e+01 -1.300e+01 -1.300e+01 -1.300e+01 -1.300e+01 -1.300e+01 -1.300e+01 -1.300e+01 -1.300e+01 -1.300e+01 -1.300e+01 -1.300e+01 -1.300e+01 -1.300e+01 -1.300e+01 -1.300e+01 -1.300e+01 -1.300e+01 -1.300e+01 -1.300e+01 -1.300e+01 -1.300e+01 -1.300e+01 -1.300e+01 -1.300e+01 -1.300e+01 -1.300e+01 -1.300e+01 -1.300e+01 -1.300e+01 -1.300e+01 -1.300e+01 -1.300e+01 -1.300e+01 -1.300e+01 -1.300e+01 -1.300e+01 -1.300e+01 -1.300e+01 -1.300e+01 -1.300e+01 -1.300e+01 -1.300e+01 -1.300e+01 -1.300e+01 -1.300e+01 -1.300e+01 -1.300e+01 -1.300e+01 -1.300e+01 -1.300e+01 -1.300e+01 -1.300e+01 -1.300e+01 -1.300e+01 -1.300e+01 -1.300e+01 -1.300e+01 -1.300e+01 -1.300e+01 -1.300e+01 -1.300e+01 -1.300e+01 -1.300e+01 -1.300e+01 -1.300e+01 -1.300e+01 -1.300e+01 -1.300e+01 -1.300e+01 -1.300e+01 -1.300e+01 -1.300e+01 -1.300e+01 -1.300e+01 -1.300e+01 -1.300e+01 -1.300e+01 -1.300e+01 -1.300e+01 -1.300e+01 -1.300e+01 -1.300e+01 -1.300e+01 -1.300e+01 -1.300e+01 -1.300e+01 -1.300e+01 -1.300e+01 -1.300e+01 -1.300e+01 -1.300e+01 -1.300e+01 -1.300e+01 -1.300e+01 -1.300e+01 -1.300e+01 -1.300e+01 -1.300e+01 -1.300e+01 -1.300e+01 -1.300e+01 -1.300e+01 -1.300e+01 -1.300e+01 -1.300e+01 -1.300e+01 -1.300e+01 -1.300e+01 -1.300e+01 -1.300e+01 -1.300e+01 -1.300e+01 -1.300e+01 -1.300e+01 -1.300e+01 -1.300e+01 -1.300e+01 -1.300e+01 -1.300e+01 -1.300e+01 -1.300e+01 -1.300e+01 -1.300e+01 -1.300e+01 -1.300e+01 -1.300e+01 -1.300e+01 -1.300e+01 -1.300e+01 -1.300e+01 -1.300e+01 -1.300e+01 -1.300e+01 -1.300e+01 -1.300e+01 -1.300e+01 -1.300e+01 -1.300e+01 -1.300e+01 -1.300e+01 -1.300e+01 -1.300e+01 -1.300e+01 -1.300e+01 -1.300e+01 -1.300e+01 -1.300e+01 -1.300e+01 -1.300e+01 -1.300e+01 -1.300e+01 -1.300e+01 -1.300e+01 -1.300e+01 -1.300e+01 -1.300e+01 -1.300e+01 -1.300e+01 -1.300e+01 -1.300e+01 -1.300e+01 -1.300e+01 -1.300e+01 -1.300e+01 -1.300e+01 -1.300e+01 -1.300e+01 -1.300e+01 -1.300e+01 -1.300e+01 -1.300e+01 -1.300e+01 -1.300e+01 -1.300e+01 -1.300e+01 -1.300e+01 -1.300e+01 -1.300e+01 -1.300e+01 -1.300e+01 -1.300e+01 -1.300e+01 -1.300e+01 -1.300e+01 -1.300e+01 -1.300e+01 -1.300e+01 -1.300e+01 -1.300e+01 -1.300e+01 -1.300e+01 -1.300e+01 -1.300e+01 -1.300e+01 -1.300e+01 -1.300e+01 -1.300e+01 -1.300e+01 -1.300e+01 -1.300e+01 -1.300e+01 -1.300e+01 -1.300e+01 -1.300e+01 -1.300e+01 -1.300e+01 -1.300e+01 -1.300e+01 -1.300e+01 -1.300e+01 -1.300e+01 -1.300e+01 -1.300e+01 -1.300e+01 -1.300e+01 -1.300e+01 -1.300e+01 -1.300e+01 -1.300e+01 -1.300e+01 -1.300e+01 -1.300e+01 -1.300e+01 -1.300e+01 -1.300e+01 -1.300e+01 -1.300e+01 -1.300e+01 -1.300e+01 -1.300e+01 -1.300e+01 -1.300e+01 -1.300e+01 -1.300e+01 -1.300e+01 -5.000e+00 -5.000e+00 -5.000e+00 -5.000e+00 -5.000e+00 -5.000e+00 -5.000e+00 -5.000e+00 -5.000e+00 -5.000e+00 -5.000e+00 -5.000e+00 -5.000e+00 -5.000e+00 -5.000e+00 -5.000e+00 -5.000e+00 -5.000e+00 -5.000e+00 -5.000e+00 -5.000e+00 -5.000e+00 -5.000e+00 -5.000e+00 -5.000e+00 -5.000e+00 -5.000e+00 -5.000e+00 -5.000e+00 -5.000e+00 -5.000e+00 -5.000e+00 -5.000e+00 -1.300e+01 -1.300e+01 -1.300e+01 -1.300e+01 -1.300e+01 -1.300e+01 -1.300e+01 -1.300e+01 -1.300e+01 -1.300e+01 -1.300e+01 -1.300e+01 -1.300e+01 -1.300e+01 -1.300e+01 -1.300e+01 -1.300e+01 -1.300e+01 -1.300e+01 -1.300e+01 -1.300e+01 -1.300e+01 -1.300e+01 -1.300e+01 -1.300e+01 -1.300e+01 -1.300e+01 -1.300e+01 -1.300e+01 -1.300e+01 -1.300e+01 -1.300e+01 -1.300e+01 -1.300e+01 -1.300e+01 -1.300e+01 -1.300e+01 -1.300e+01 -1.300e+01 -1.300e+01 -1.300e+01 -1.300e+01 -1.300e+01 -1.300e+01 -1.300e+01 -1.300e+01 -1.300e+01 -1.300e+01 -1.300e+01 -1.300e+01 -1.300e+01 -1.300e+01 -1.300e+01 -1.300e+01 -1.300e+01 -1.300e+01 -1.300e+01 -1.300e+01 -1.300e+01 -1.300e+01 -1.300e+01 -1.300e+01 -1.300e+01 -1.300e+01 -1.300e+01 -1.300e+01 -1.300e+01 -1.300e+01 -1.300e+01 -1.300e+01 -1.300e+01 -1.300e+01 -1.300e+01 -1.300e+01 -1.300e+01 -1.300e+01 -1.300e+01 -1.300e+01 -1.300e+01 -1.300e+01 -1.300e+01 -1.300e+01 -1.300e+01 -1.300e+01 -1.300e+01 -1.300e+01 -1.300e+01 -1.300e+01 -1.300e+01 -1.300e+01 -1.300e+01 -1.300e+01 -1.300e+01 -1.300e+01 -1.300e+01 -1.300e+01 -1.300e+01 -1.300e+01 -1.300e+01 -1.300e+01 -1.300e+01 -1.300e+01 -1.300e+01 -1.300e+01 -1.300e+01 -1.300e+01 -1.300e+01 -1.300e+01 -1.300e+01 -1.300e+01 -1.300e+01 -1.300e+01 -1.300e+01 -1.300e+01 -1.300e+01 -1.300e+01 -1.300e+01 -1.300e+01 -1.300e+01 -1.300e+01 -1.300e+01 -1.300e+01 -1.300e+01 -1.300e+01 -1.300e+01 -1.300e+01 -1.300e+01 -1.300e+01 -1.300e+01 -1.300e+01 -1.300e+01 -1.300e+01 -1.300e+01 -1.300e+01 -1.300e+01 -1.300e+01 -1.300e+01 -1.300e+01 -1.300e+01 -1.300e+01 -1.300e+01 -1.300e+01 -1.300e+01 -1.300e+01 -1.300e+01 -1.300e+01 -1.300e+01 -1.300e+01 -1.300e+01 -1.300e+01 -1.300e+01 -1.300e+01 -1.300e+01 -1.300e+01 -1.300e+01 -1.300e+01 -1.300e+01 -1.300e+01 -1.300e+01 -1.300e+01 -1.300e+01 -1.300e+01 -1.300e+01 -1.300e+01 -1.300e+01 -1.300e+01 -1.300e+01 -1.300e+01 -1.300e+01 -1.300e+01 -1.300e+01 -1.300e+01 -1.300e+01 -1.300e+01 -1.300e+01 -1.300e+01 -1.300e+01 -1.300e+01 -1.300e+01 -1.300e+01 -1.300e+01 -1.300e+01 -1.300e+01 -1.300e+01 -1.300e+01 -1.300e+01 -1.300e+01 -1.300e+01 -1.300e+01 -1.300e+01 -1.300e+01 -1.300e+01 -1.300e+01 -1.300e+01 -1.300e+01 -1.300e+01 -1.300e+01 -1.300e+01 -1.300e+01 -1.300e+01 -1.300e+01 -1.300e+01 -1.300e+01 -1.300e+01 -1.300e+01 -1.300e+01 -1.300e+01 -1.300e+01 -1.300e+01 -1.300e+01 -1.300e+01 -1.300e+01 -1.300e+01 -1.300e+01 -1.300e+01 -1.300e+01 -1.300e+01 -1.300e+01 -1.300e+01 -1.300e+01 -1.300e+01 -1.300e+01 -1.300e+01 -1.300e+01 -1.300e+01 -1.300e+01 -1.300e+01 -1.300e+01 -1.300e+01 -1.300e+01 -1.300e+01 -1.300e+01 -1.300e+01 -1.300e+01 -1.300e+01 -1.300e+01 -1.300e+01 -1.300e+01 -5.000e+00 -5.000e+00 -5.000e+00 -5.000e+00 -5.000e+00 -5.000e+00 -5.000e+00 -5.000e+00 -5.000e+00 -5.000e+00 -5.000e+00 -5.000e+00 -5.000e+00 -5.000e+00 -5.000e+00 -5.000e+00 -5.000e+00 -5.000e+00 -5.000e+00 -5.000e+00 -5.000e+00 -5.000e+00 -5.000e+00 -5.000e+00 -5.000e+00 -5.000e+00 -5.000e+00 -5.000e+00 -5.000e+00 -5.000e+00 -5.000e+00 -5.000e+00 -5.000e+00 -1.300e+01 -1.300e+01 -1.300e+01 -1.300e+01 -1.300e+01 -1.300e+01 -1.300e+01 -1.300e+01 -1.300e+01 -1.300e+01 -1.300e+01 -1.300e+01 -1.300e+01 -1.300e+01 -1.300e+01 -1.300e+01 -1.300e+01 -1.300e+01 -1.300e+01 -1.300e+01 -1.300e+01 -1.300e+01 -1.300e+01 -1.300e+01 -1.300e+01 -1.300e+01 -1.300e+01 -1.300e+01 -1.300e+01 -1.300e+01 -1.300e+01 -1.300e+01 -1.300e+01 -1.300e+01 -1.300e+01 -1.300e+01 -1.300e+01 -1.300e+01 -1.300e+01 -1.300e+01 -1.300e+01 -1.300e+01 -1.300e+01 -1.300e+01 -1.300e+01 -1.300e+01 -1.300e+01 -1.300e+01 -1.300e+01 -1.300e+01 -1.300e+01 -1.300e+01 -1.300e+01 -1.300e+01 -1.300e+01 -1.300e+01 -1.300e+01 -1.300e+01 -1.300e+01 -1.300e+01 -1.300e+01 -1.300e+01 -1.300e+01 -1.300e+01 -1.300e+01 -1.300e+01 -1.300e+01 -1.300e+01 -1.300e+01 -1.300e+01 -1.300e+01 -1.300e+01 -1.300e+01 -1.300e+01 -1.300e+01 -1.300e+01 -1.300e+01 -1.300e+01 -1.300e+01 -1.300e+01 -1.300e+01 -1.300e+01 -1.300e+01 -1.300e+01 -1.300e+01 -1.300e+01 -1.300e+01 -1.300e+01 -1.300e+01 -1.300e+01 -1.300e+01 -1.300e+01 -1.300e+01 -1.300e+01 -1.300e+01 -1.300e+01 -1.300e+01 -1.300e+01 -1.300e+01 -1.300e+01 -1.300e+01 -1.300e+01 -1.300e+01 -1.300e+01 -1.300e+01 -1.300e+01 -1.300e+01 -1.300e+01 -1.300e+01 -1.300e+01 -1.300e+01 -1.300e+01 -1.300e+01 -1.300e+01 -1.300e+01 -1.300e+01 -1.300e+01 -1.300e+01 -1.300e+01 -1.300e+01 -1.300e+01 -1.300e+01 -1.300e+01 -1.300e+01 -1.300e+01 -1.300e+01 -1.300e+01 -1.300e+01 -1.300e+01 -1.300e+01 -1.300e+01 -1.300e+01 -1.300e+01 -1.300e+01 -1.300e+01 -1.300e+01 -1.300e+01 -1.300e+01 -1.300e+01 -1.300e+01 -1.300e+01 -1.300e+01 -1.300e+01 -1.300e+01 -1.300e+01 -1.300e+01 -1.300e+01 -1.300e+01 -1.300e+01 -1.300e+01 -1.300e+01 -1.300e+01 -1.300e+01 -1.300e+01 -1.300e+01 -1.300e+01 -1.300e+01 -1.300e+01 -1.300e+01 -1.300e+01 -1.300e+01 -1.300e+01 -1.300e+01 -1.300e+01 -1.300e+01 -1.300e+01 -1.300e+01 -1.300e+01 -1.300e+01 -1.300e+01 -1.300e+01 -1.300e+01 -1.300e+01 -1.300e+01 -1.300e+01 -1.300e+01 -1.300e+01 -1.300e+01 -1.300e+01 -1.300e+01 -1.300e+01 -1.300e+01 -1.300e+01 -1.300e+01 -1.300e+01 -1.300e+01 -1.300e+01 -1.300e+01 -1.300e+01 -1.300e+01 -1.300e+01 -1.300e+01 -1.300e+01 -1.300e+01 -1.300e+01 -1.300e+01 -1.300e+01 -1.300e+01 -1.300e+01 -1.300e+01 -1.300e+01 -1.300e+01 -1.300e+01 -1.300e+01 -1.300e+01 -1.300e+01 -1.300e+01 -1.300e+01 -1.300e+01 -1.300e+01 -1.300e+01 -1.300e+01 -1.300e+01 -1.300e+01 -1.300e+01 -1.300e+01 -1.300e+01 -1.300e+01 -1.300e+01 -1.300e+01 -1.300e+01 -1.300e+01 -1.300e+01 -1.300e+01 -1.300e+01 -1.300e+01 -1.300e+01 -1.300e+01 -1.300e+01 -1.300e+01 -1.300e+01 -1.300e+01 -1.300e+01 -1.300e+01 -1.300e+01 -1.300e+01 -1.300e+01 -1.300e+01 -1.300e+01 -1.300e+01 -5.000e+00 -5.000e+00 -5.000e+00 -5.000e+00 -5.000e+00 -5.000e+00 -5.000e+00 -5.000e+00 -5.000e+00 -5.000e+00 -5.000e+00 -5.000e+00 -5.000e+00 -5.000e+00 -5.000e+00 -5.000e+00 -5.000e+00 -5.000e+00 -5.000e+00 -5.000e+00 -5.000e+00 -5.000e+00 -5.000e+00 -5.000e+00 -5.000e+00 -5.000e+00 -5.000e+00 -5.000e+00 -5.000e+00 -5.000e+00 -5.000e+00 -5.000e+00 -5.000e+00 -1.900e+01 -1.900e+01 -1.900e+01 -1.900e+01 -1.900e+01 -1.900e+01 -1.900e+01 -1.900e+01 -1.900e+01 -1.900e+01 -1.900e+01 -1.900e+01 -1.900e+01 -1.900e+01 -1.900e+01 -1.900e+01 -1.900e+01 -1.900e+01 -1.900e+01 -1.900e+01 -1.900e+01 -1.900e+01 -1.900e+01 -1.900e+01 -1.900e+01 -1.900e+01 -1.900e+01 -1.900e+01 -1.900e+01 -1.900e+01 -1.900e+01 -1.900e+01 -1.900e+01 -1.900e+01 -1.900e+01 -1.900e+01 -1.900e+01 -1.900e+01 -1.900e+01 -1.900e+01 -1.900e+01 -1.900e+01 -1.900e+01 -1.900e+01 -1.900e+01 -1.900e+01 -1.900e+01 -1.900e+01 -1.900e+01 -1.900e+01 -1.900e+01 -1.900e+01 -1.900e+01 -1.900e+01 -1.900e+01 -1.100e+01 -1.100e+01 -1.100e+01 -1.100e+01 -1.100e+01 -1.100e+01 -1.100e+01 -1.100e+01 -1.100e+01 -1.100e+01 -1.100e+01 -1.100e+01 -1.100e+01 -1.100e+01 -1.100e+01 -1.100e+01 -1.100e+01 -1.100e+01 -1.100e+01 -1.100e+01 -1.100e+01 -1.100e+01 -1.900e+01 -1.900e+01 -1.900e+01 -1.900e+01 -1.900e+01 -1.900e+01 -1.900e+01 -1.900e+01 -1.900e+01 -1.900e+01 -1.900e+01 -1.900e+01 -1.900e+01 -1.900e+01 -1.900e+01 -1.900e+01 -1.900e+01 -1.900e+01 -1.900e+01 -1.900e+01 -1.900e+01 -1.900e+01 -1.900e+01 -1.900e+01 -1.900e+01 -1.900e+01 -1.900e+01 -1.900e+01 -1.900e+01 -1.900e+01 -1.900e+01 -1.900e+01 -1.900e+01 -1.900e+01 -1.900e+01 -1.900e+01 -1.900e+01 -1.900e+01 -1.900e+01 -1.900e+01 -1.900e+01 -1.900e+01 -1.900e+01 -1.900e+01 -1.900e+01 -1.900e+01 -1.900e+01 -1.900e+01 -1.900e+01 -1.900e+01 -1.900e+01 -1.900e+01 -1.900e+01 -1.100e+01 -1.100e+01 -1.100e+01 -1.100e+01 -1.100e+01 -1.100e+01 -1.100e+01 -1.100e+01 -1.100e+01 -1.100e+01 -1.100e+01 -1.100e+01 -1.100e+01 -1.100e+01 -1.100e+01 -1.100e+01 -1.100e+01 -1.100e+01 -1.100e+01 -1.100e+01 -1.100e+01 -1.100e+01 -1.900e+01 -1.900e+01 -1.900e+01 -1.900e+01 -1.900e+01 -1.900e+01 -1.900e+01 -1.900e+01 -1.900e+01 -1.900e+01 -1.900e+01 -1.900e+01 -1.900e+01 -1.900e+01 -1.900e+01 -1.900e+01 -1.900e+01 -1.900e+01 -1.900e+01 -1.900e+01 -1.900e+01 -1.900e+01 -1.900e+01 -1.900e+01 -1.900e+01 -1.900e+01 -1.900e+01 -1.900e+01 -1.900e+01 -1.900e+01 -1.900e+01 -1.900e+01 -1.900e+01 -1.900e+01 -1.900e+01 -1.900e+01 -1.900e+01 -1.900e+01 -1.900e+01 -1.900e+01 -1.900e+01 -1.900e+01 -1.900e+01 -1.900e+01 -1.900e+01 -1.900e+01 -1.900e+01 -1.900e+01 -1.900e+01 -1.900e+01 -1.900e+01 -1.900e+01 -1.900e+01 -1.100e+01 -1.100e+01 -1.100e+01 -1.100e+01 -1.100e+01 -1.100e+01 -1.100e+01 -1.100e+01 -1.100e+01 -1.100e+01 -1.100e+01 -1.100e+01 -1.100e+01 -1.100e+01 -1.100e+01 -1.100e+01 -1.100e+01 -1.100e+01 -1.100e+01 -1.100e+01 -1.100e+01 -1.100e+01 -1.900e+01 -1.900e+01 -1.900e+01 -1.900e+01 -1.900e+01 -1.900e+01 -1.900e+01 -1.900e+01 -1.900e+01 -1.900e+01 -1.900e+01 -1.900e+01 -1.900e+01 -1.900e+01 -1.900e+01 -1.900e+01 -1.900e+01 -1.900e+01 -1.900e+01 -1.900e+01 -1.900e+01 -1.900e+01 -1.900e+01 -1.900e+01 -1.900e+01 -1.900e+01 -1.900e+01 -1.900e+01 -1.900e+01 -1.900e+01 -1.900e+01 -1.900e+01 -1.900e+01 -1.900e+01 -1.900e+01 -1.900e+01 -1.900e+01 -1.900e+01 -1.900e+01 -1.900e+01 -1.900e+01 -1.900e+01 -1.900e+01 -1.900e+01 -1.900e+01 -1.900e+01 -1.900e+01 -1.900e+01 -1.900e+01 -1.900e+01 -1.900e+01 -1.900e+01 -1.900e+01 -1.900e+01 -1.900e+01 -1.900e+01 -1.900e+01 -1.100e+01 -1.100e+01 -1.100e+01 -1.100e+01 -1.100e+01 -1.100e+01 -1.100e+01 -1.100e+01 -1.100e+01 -1.100e+01 -1.100e+01 -1.100e+01 -1.100e+01 -1.100e+01 -1.100e+01 -1.100e+01 -1.100e+01 -1.100e+01 -1.100e+01 -1.100e+01 -1.100e+01 -1.100e+01 -2.000e+01 -2.000e+01 -2.000e+01 -2.000e+01 -2.000e+01 -2.000e+01 -2.000e+01 -2.000e+01 -2.000e+01 -2.000e+01 -2.000e+01 -2.000e+01 -2.000e+01 -2.000e+01 -2.000e+01 -2.000e+01 -2.000e+01 -2.000e+01 -2.000e+01 -2.000e+01 -2.000e+01 -2.000e+01 -2.000e+01 -2.000e+01 -2.000e+01 -2.000e+01 -2.000e+00 -2.000e+00 -2.000e+00 -2.000e+00 -2.000e+00 -2.000e+00 -2.000e+00 -2.000e+00 -2.000e+00 -2.000e+00 -1.700e+01 -1.700e+01 -1.700e+01 -7.000e+00 -7.000e+00 -7.000e+00 -7.000e+00 -7.000e+00 -7.000e+00 -7.000e+00 -1.700e+01 -1.700e+01 -1.700e+01 -7.000e+00 -7.000e+00 -7.000e+00 -7.000e+00 -7.000e+00 -7.000e+00 -7.000e+00 -1.700e+01 -7.000e+00 -7.000e+00 -7.000e+00 -7.000e+00 -7.000e+00 -7.000e+00 -7.000e+00 -7.000e+00 -7.000e+00 -7.000e+00 -7.000e+00 -7.000e+00 -7.000e+00 -7.000e+00 -7.000e+00 -7.000e+00 -7.000e+00 -7.000e+00 -7.000e+00 -7.000e+00 -7.000e+00 -7.000e+00 -7.000e+00 -7.000e+00 -7.000e+00 -7.000e+00 -7.000e+00 -7.000e+00 -7.000e+00 -7.000e+00 -7.000e+00 -7.000e+00 -7.000e+00 -7.000e+00 -7.000e+00 -7.000e+00 -7.000e+00 -7.000e+00 -7.000e+00 -7.000e+00 -1.700e+01 -1.700e+01 -1.700e+01 -7.000e+00 -7.000e+00 -7.000e+00 -7.000e+00 -7.000e+00 -7.000e+00 -7.000e+00 -7.000e+00 -7.000e+00 -7.000e+00 -7.000e+00 -7.000e+00 -7.000e+00 -7.000e+00 -7.000e+00 -7.000e+00 -7.000e+00 -7.000e+00 -7.000e+00 -7.000e+00 -7.000e+00 -7.000e+00 -7.000e+00 -7.000e+00 -7.000e+00 -7.000e+00 -7.000e+00 -7.000e+00 -7.000e+00 -7.000e+00 -7.000e+00 -7.000e+00 -7.000e+00 -7.000e+00 -7.000e+00 -1.700e+01 -7.000e+00 -7.000e+00 -7.000e+00 -7.000e+00 -7.000e+00 -7.000e+00 -7.000e+00 -7.000e+00 -7.000e+00 -7.000e+00 -7.000e+00 -7.000e+00 -7.000e+00 -7.000e+00 -7.000e+00 -7.000e+00 -7.000e+00 -7.000e+00 -7.000e+00 -7.000e+00 -7.000e+00 -7.000e+00 -7.000e+00 -7.000e+00 -7.000e+00 -7.000e+00 -7.000e+00 -7.000e+00 -7.000e+00 -7.000e+00 -7.000e+00 -7.000e+00 -1.700e+01 -1.700e+01 -7.000e+00 -7.000e+00 -7.000e+00 -7.000e+00 -7.000e+00 -7.000e+00 -7.000e+00 -7.000e+00 -7.000e+00 -7.000e+00 -7.000e+00 -7.000e+00 -7.000e+00 -7.000e+00 -7.000e+00 -7.000e+00 -7.000e+00 -7.000e+00 -7.000e+00 -7.000e+00 -7.000e+00 -7.000e+00 -7.000e+00 -7.000e+00 -7.000e+00 -7.000e+00 -7.000e+00 -7.000e+00 -1.700e+01 -1.700e+01 -7.000e+00 -7.000e+00 -7.000e+00 -7.000e+00 -7.000e+00 -7.000e+00 -7.000e+00 -7.000e+00 -7.000e+00 -7.000e+00 -7.000e+00 -7.000e+00 -7.000e+00 -7.000e+00 -7.000e+00 -7.000e+00 -7.000e+00 -7.000e+00 -7.000e+00 -7.000e+00 -7.000e+00 -7.000e+00 -7.000e+00 -7.000e+00 -7.000e+00 -7.000e+00 -1.700e+01 -1.700e+01 -1.700e+01 -1.700e+01 -7.000e+00 -7.000e+00 -7.000e+00 -7.000e+00 -7.000e+00 -7.000e+00 -7.000e+00 -7.000e+00 -7.000e+00 -7.000e+00 -7.000e+00 -7.000e+00 -7.000e+00 -7.000e+00 -7.000e+00 -7.000e+00 -7.000e+00 -7.000e+00 -7.000e+00 -7.000e+00 -7.000e+00 -1.700e+01 -1.700e+01 -1.700e+01 -1.700e+01 -7.000e+00 -7.000e+00 -7.000e+00 -7.000e+00 -7.000e+00 -7.000e+00 -7.000e+00 -7.000e+00 -7.000e+00 -7.000e+00 -7.000e+00 -7.000e+00 -7.000e+00 -7.000e+00 -7.000e+00 -7.000e+00 -7.000e+00 -1.700e+01 -7.000e+00 -7.000e+00 -7.000e+00 -7.000e+00 -7.000e+00 -7.000e+00 -7.000e+00 -7.000e+00 -7.000e+00 -7.000e+00 -7.000e+00 -7.000e+00 -7.000e+00 -7.000e+00 -7.000e+00 -7.000e+00 -1.700e+01 -1.700e+01 -1.700e+01 -7.000e+00 -7.000e+00 -7.000e+00 -7.000e+00 -7.000e+00 -7.000e+00 -7.000e+00 -7.000e+00 -7.000e+00 -1.700e+01 -7.000e+00 -7.000e+00 -7.000e+00 -7.000e+00 -7.000e+00 -7.000e+00 -1.700e+01 -1.700e+01 -1.700e+01 -7.000e+00 -7.000e+00 -7.000e+00 -7.000e+00 -7.000e+00 -7.000e+00 -7.000e+00 -7.000e+00 -1.700e+01 -7.000e+00 -7.000e+00 -7.000e+00 -7.000e+00 -7.000e+00 -7.000e+00 -1.700e+01 -1.700e+01 -7.000e+00 -7.000e+00 -7.000e+00 -7.000e+00 -7.000e+00 -7.000e+00 -1.700e+01 -1.700e+01 -7.000e+00 -7.000e+00 -7.000e+00 -7.000e+00 -7.000e+00 -7.000e+00 -1.700e+01 -7.000e+00 -7.000e+00 -7.000e+00 -7.000e+00 -7.000e+00 -7.000e+00 -1.700e+01 -1.700e+01 -1.700e+01 -7.000e+00 -7.000e+00 -7.000e+00 -7.000e+00 -7.000e+00 -7.000e+00 -7.000e+00 -1.700e+01 -1.700e+01 -1.700e+01 -7.000e+00 -7.000e+00 -7.000e+00 -7.000e+00 -7.000e+00 -7.000e+00 -7.000e+00 -1.700e+01 -1.700e+01 -1.700e+01 -7.000e+00 -7.000e+00 -7.000e+00 -7.000e+00 -7.000e+00 -7.000e+00 -7.000e+00 -1.700e+01 -1.700e+01 -1.700e+01 -7.000e+00 -7.000e+00 -7.000e+00 -7.000e+00 -7.000e+00 -7.000e+00 -7.000e+00 -1.700e+01 -1.700e+01 -1.700e+01 -7.000e+00 -7.000e+00 -7.000e+00 -7.000e+00 -7.000e+00 -7.000e+00 -7.000e+00 -1.700e+01 -7.000e+00 -7.000e+00 -7.000e+00 -7.000e+00 -7.000e+00 -7.000e+00 -1.700e+01 -1.700e+01 -1.700e+01 -7.000e+00 -7.000e+00 -7.000e+00 -7.000e+00 -7.000e+00 -7.000e+00 -7.000e+00