<?xml version="1.0"?>
<VTKFile type="UnstructuredGrid" version="0.1" byte_order="LittleEndian">
   <UnstructuredGrid>
      <Piece NumberOfPoints="45900" NumberOfCells="3283">
         <Points>
            <DataArray type="Float32" Name="Position" NumberOfComponents="3" format="ascii">
0.036	-5.031	-0.153
0.041	-5.032	-0.144
0.039	-5.032	-0.135
0.033	-5.033	-0.129
0.024	-5.033	-0.127
0.015	-5.033	-0.131
0.011	-5.032	-0.139
0.012	-5.032	-0.148
0.019	-5.031	-0.155
0.028	-5.031	-0.157
0.030	-5.900	-0.201
0.035	-5.900	-0.193
0.034	-5.900	-0.183
0.027	-5.900	-0.177
0.018	-5.901	-0.175
0.010	-5.901	-0.179
0.005	-5.901	-0.187
0.007	-5.901	-0.196
0.013	-5.901	-0.203
0.022	-5.900	-0.205
0.129	-6.742	-0.155
0.133	-6.740	-0.147
0.131	-6.739	-0.138
0.125	-6.740	-0.131
0.116	-6.741	-0.129
0.108	-6.742	-0.133
0.104	-6.743	-0.142
0.105	-6.744	-0.151
0.111	-6.744	-0.157
0.120	-6.743	-0.159
0.245	-7.568	-0.031
0.248	-7.566	-0.023
0.247	-7.564	-0.014
0.240	-7.564	-0.007
0.231	-7.566	-0.006
0.223	-7.568	-0.010
0.219	-7.571	-0.018
0.221	-7.572	-0.027
0.228	-7.572	-0.033
0.237	-7.571	-0.035
0.375	-8.006	0.087
0.379	-8.002	0.095
0.378	-8.000	0.104
0.371	-8.001	0.111
0.362	-8.003	0.112
0.354	-8.006	0.109
0.351	-8.009	0.101
0.352	-8.011	0.092
0.359	-8.011	0.085
0.368	-8.009	0.084
0.051	-5.102	-0.266
0.048	-5.094	-0.262
0.046	-5.085	-0.264
0.047	-5.078	-0.271
0.049	-5.077	-0.280
0.052	-5.081	-0.288
0.055	-5.089	-0.291
0.056	-5.098	-0.289
0.056	-5.105	-0.282
0.054	-5.106	-0.273
-0.755	-5.283	-0.495
-0.758	-5.276	-0.491
-0.760	-5.267	-0.492
-0.760	-5.260	-0.498
-0.759	-5.258	-0.507
-0.756	-5.261	-0.515
-0.753	-5.269	-0.519
-0.751	-5.278	-0.518
-0.750	-5.285	-0.512
-0.752	-5.287	-0.503
-1.563	-5.546	-0.649
-1.567	-5.537	-0.648
-1.571	-5.530	-0.652
-1.571	-5.526	-0.661
-1.570	-5.527	-0.670
-1.566	-5.532	-0.676
-1.562	-5.541	-0.677
-1.558	-5.548	-0.673
-1.558	-5.552	-0.665
-1.559	-5.551	-0.656
-2.265	-6.037	-0.710
-2.271	-6.030	-0.711
-2.275	-6.025	-0.717
-2.276	-6.022	-0.726
-2.273	-6.025	-0.735
-2.267	-6.030	-0.740
-2.261	-6.037	-0.739
-2.257	-6.043	-0.733
-2.256	-6.045	-0.724
-2.259	-6.043	-0.715
-2.731	-6.578	-0.809
-2.733	-6.577	-0.800
-2.739	-6.573	-0.793
-2.746	-6.567	-0.793
-2.751	-6.561	-0.797
-2.754	-6.558	-0.806
-2.751	-6.559	-0.815
-2.746	-6.563	-0.821
-2.739	-6.569	-0.822
-2.733	-6.575	-0.817
0.304	-5.894	-1.331
0.304	-5.888	-1.324
0.302	-5.888	-1.315
0.300	-5.893	-1.307
0.297	-5.901	-1.304
0.296	-5.910	-1.307
0.296	-5.916	-1.314
0.298	-5.916	-1.324
0.300	-5.911	-1.331
0.302	-5.903	-1.334
1.139	-6.071	-1.173
1.139	-6.066	-1.165
1.137	-6.066	-1.156
1.135	-6.071	-1.149
1.133	-6.079	-1.146
1.131	-6.088	-1.149
1.132	-6.094	-1.156
1.133	-6.094	-1.165
1.135	-6.089	-1.173
1.138	-6.080	-1.175
2.008	-6.234	-1.043
2.008	-6.229	-1.035
2.007	-6.229	-1.026
2.005	-6.234	-1.019
2.003	-6.243	-1.016
2.002	-6.252	-1.019
2.002	-6.257	-1.026
2.003	-6.257	-1.035
2.005	-6.252	-1.043
2.007	-6.243	-1.045
2.876	-6.373	-0.902
2.875	-6.367	-0.894
2.873	-6.367	-0.885
2.871	-6.372	-0.878
2.869	-6.380	-0.875
2.868	-6.389	-0.878
2.868	-6.395	-0.885
2.870	-6.395	-0.894
2.873	-6.390	-0.901
2.875	-6.382	-0.904
3.264	-6.448	-0.801
3.263	-6.442	-0.794
3.261	-6.441	-0.785
3.258	-6.446	-0.778
3.256	-6.454	-0.775
3.255	-6.463	-0.777
3.256	-6.469	-0.784
3.258	-6.470	-0.793
3.261	-6.465	-0.801
3.263	-6.457	-0.804
1.292	-18.787	-4.051
1.295	-18.782	-4.044
1.296	-18.783	-4.035
1.294	-18.788	-4.027
1.290	-18.796	-4.025
1.285	-18.803	-4.028
1.282	-18.808	-4.035
1.282	-18.808	-4.044
1.284	-18.802	-4.052
1.288	-18.794	-4.055
2.061	-19.189	-4.106
2.064	-19.185	-4.099
2.064	-19.185	-4.090
2.062	-19.191	-4.082
2.058	-19.199	-4.080
2.054	-19.206	-4.083
2.051	-19.211	-4.090
2.050	-19.210	-4.100
2.052	-19.205	-4.107
2.056	-19.197	-4.110
2.112	-19.216	-4.114
2.115	-19.212	-4.106
2.116	-19.213	-4.097
2.114	-19.218	-4.090
2.111	-19.226	-4.087
2.106	-19.234	-4.091
2.103	-19.238	-4.098
2.102	-19.237	-4.107
2.104	-19.232	-4.115
2.107	-19.224	-4.117
1.259	-18.934	-4.035
1.267	-18.929	-4.038
1.276	-18.931	-4.040
1.283	-18.937	-4.040
1.285	-18.946	-4.039
1.281	-18.954	-4.037
1.273	-18.958	-4.034
1.264	-18.957	-4.032
1.258	-18.951	-4.032
1.256	-18.942	-4.033
1.066	-19.079	-4.839
1.073	-19.074	-4.842
1.082	-19.075	-4.844
1.089	-19.081	-4.845
1.091	-19.090	-4.845
1.088	-19.098	-4.843
1.081	-19.103	-4.840
1.072	-19.102	-4.838
1.065	-19.097	-4.837
1.062	-19.088	-4.837
1.030	-19.092	-4.958
1.037	-19.087	-4.961
1.046	-19.087	-4.963
1.053	-19.093	-4.965
1.056	-19.102	-4.965
1.053	-19.110	-4.963
1.046	-19.116	-4.960
1.037	-19.115	-4.958
1.030	-19.110	-4.956
1.027	-19.101	-4.956
1.263	-19.101	-4.036
1.266	-19.093	-4.033
1.264	-19.085	-4.030
1.256	-19.079	-4.028
1.247	-19.079	-4.027
1.239	-19.084	-4.029
1.236	-19.093	-4.032
1.239	-19.101	-4.035
1.246	-19.106	-4.037
1.256	-19.106	-4.038
1.293	-19.403	-3.230
1.296	-19.395	-3.227
1.293	-19.387	-3.222
1.285	-19.382	-3.219
1.276	-19.383	-3.219
1.269	-19.388	-3.220
1.266	-19.396	-3.224
1.269	-19.404	-3.228
1.276	-19.409	-3.231
1.286	-19.408	-3.232
1.318	-19.468	-3.120
1.320	-19.460	-3.116
1.317	-19.452	-3.111
1.309	-19.449	-3.107
1.300	-19.450	-3.106
1.293	-19.456	-3.107
1.291	-19.463	-3.112
1.294	-19.471	-3.117
1.301	-19.474	-3.120
1.310	-19.473	-3.122
1.237	-19.233	-4.043
1.237	-19.228	-4.035
1.236	-19.228	-4.026
1.234	-19.233	-4.019
1.231	-19.241	-4.016
1.229	-19.250	-4.019
1.229	-19.255	-4.027
1.230	-19.255	-4.036
1.232	-19.250	-4.043
1.235	-19.242	-4.046
2.085	-19.468	-3.938
2.086	-19.463	-3.931
2.084	-19.463	-3.921
2.082	-19.468	-3.914
2.079	-19.476	-3.911
2.077	-19.485	-3.914
2.077	-19.490	-3.922
2.078	-19.490	-3.931
2.080	-19.485	-3.938
2.083	-19.477	-3.941
1.205	-19.379	-4.031
1.213	-19.376	-4.033
1.222	-19.378	-4.034
1.228	-19.385	-4.034
1.229	-19.394	-4.032
1.225	-19.401	-4.029
1.217	-19.405	-4.027
1.208	-19.403	-4.026
1.201	-19.396	-4.026
1.200	-19.387	-4.028
1.070	-19.562	-4.775
1.078	-19.558	-4.777
1.087	-19.560	-4.778
1.093	-19.567	-4.778
1.095	-19.576	-4.776
1.090	-19.584	-4.773
1.082	-19.587	-4.771
1.073	-19.585	-4.770
1.067	-19.578	-4.770
1.066	-19.569	-4.772
1.188	-19.527	-4.032
1.197	-19.525	-4.033
1.205	-19.528	-4.032
1.211	-19.535	-4.030
1.211	-19.544	-4.028
1.205	-19.551	-4.026
1.196	-19.554	-4.025
1.188	-19.551	-4.025
1.182	-19.544	-4.027
1.182	-19.535	-4.030
1.178	-19.750	-4.866
1.187	-19.747	-4.866
1.196	-19.750	-4.866
1.201	-19.757	-4.864
1.201	-19.766	-4.862
1.196	-19.773	-4.860
1.187	-19.776	-4.859
1.178	-19.773	-4.859
1.173	-19.766	-4.861
1.173	-19.757	-4.864
1.181	-19.699	-4.017
1.180	-19.691	-4.013
1.179	-19.682	-4.014
1.178	-19.675	-4.020
1.178	-19.673	-4.029
1.178	-19.677	-4.037
1.179	-19.685	-4.042
1.180	-19.694	-4.041
1.181	-19.701	-4.035
1.181	-19.703	-4.026
0.342	-19.785	-4.027
0.341	-19.777	-4.022
0.340	-19.768	-4.023
0.339	-19.761	-4.029
0.339	-19.759	-4.038
0.340	-19.763	-4.047
0.341	-19.771	-4.051
0.342	-19.780	-4.050
0.342	-19.787	-4.044
0.342	-19.789	-4.035
1.175	-19.843	-4.032
1.177	-19.835	-4.029
1.174	-19.828	-4.025
1.166	-19.824	-4.021
1.157	-19.825	-4.019
1.150	-19.831	-4.020
1.148	-19.840	-4.023
1.151	-19.847	-4.027
1.159	-19.851	-4.031
1.168	-19.849	-4.033
1.364	-20.160	-3.360
1.366	-20.152	-3.357
1.363	-20.145	-3.352
1.355	-20.141	-3.348
1.346	-20.142	-3.347
1.340	-20.148	-3.348
1.337	-20.157	-3.351
1.341	-20.164	-3.355
1.348	-20.168	-3.359
1.357	-20.166	-3.361
1.137	-19.975	-4.028
1.145	-19.973	-4.031
1.154	-19.976	-4.032
1.159	-19.983	-4.030
1.160	-19.992	-4.027
1.155	-19.998	-4.022
1.146	-20.000	-4.019
1.138	-19.997	-4.018
1.132	-19.989	-4.019
1.132	-19.981	-4.023
0.944	-20.278	-4.673
0.953	-20.276	-4.676
0.961	-20.279	-4.677
0.967	-20.287	-4.675
0.967	-20.295	-4.672
0.962	-20.301	-4.667
0.953	-20.303	-4.664
0.945	-20.300	-4.663
0.939	-20.293	-4.664
0.939	-20.284	-4.668
1.127	-20.145	-4.013
1.126	-20.137	-4.010
1.125	-20.128	-4.012
1.127	-20.122	-4.019
1.129	-20.121	-4.028
1.131	-20.126	-4.036
1.132	-20.134	-4.039
1.133	-20.143	-4.036
1.132	-20.149	-4.029
1.130	-20.150	-4.020
0.450	-20.210	-4.167
0.449	-20.201	-4.164
0.448	-20.192	-4.166
0.450	-20.186	-4.173
0.452	-20.186	-4.182
0.454	-20.190	-4.190
0.455	-20.199	-4.193
0.456	-20.208	-4.191
0.455	-20.214	-4.184
0.453	-20.215	-4.175
0.332	-6.004	-1.430
0.331	-5.998	-1.423
0.329	-5.997	-1.414
0.327	-6.002	-1.406
0.325	-6.011	-1.403
0.324	-6.020	-1.406
0.325	-6.025	-1.413
0.327	-6.026	-1.422
0.329	-6.021	-1.429
0.331	-6.012	-1.432
1.171	-6.137	-1.238
1.170	-6.131	-1.232
1.167	-6.130	-1.223
1.164	-6.134	-1.215
1.162	-6.142	-1.212
1.162	-6.151	-1.214
1.163	-6.158	-1.221
1.166	-6.159	-1.230
1.169	-6.154	-1.237
1.171	-6.146	-1.240
1.965	-6.198	-0.906
1.962	-6.191	-0.900
1.958	-6.189	-0.892
1.954	-6.192	-0.885
1.951	-6.200	-0.881
1.951	-6.209	-0.881
1.953	-6.216	-0.887
1.957	-6.218	-0.895
1.961	-6.215	-0.902
1.964	-6.207	-0.906
2.681	-6.254	-0.440
2.679	-6.246	-0.435
2.674	-6.243	-0.427
2.670	-6.246	-0.420
2.667	-6.254	-0.415
2.666	-6.263	-0.416
2.668	-6.271	-0.421
2.673	-6.273	-0.429
2.677	-6.270	-0.436
2.680	-6.263	-0.440
2.964	-6.284	-0.263
2.972	-6.284	-0.258
2.981	-6.284	-0.260
2.988	-6.284	-0.266
2.989	-6.284	-0.276
2.985	-6.284	-0.284
2.977	-6.284	-0.288
2.968	-6.284	-0.287
2.961	-6.284	-0.280
2.960	-6.284	-0.271
1.124	-20.293	-4.027
1.127	-20.285	-4.023
1.125	-20.277	-4.019
1.117	-20.272	-4.017
1.108	-20.272	-4.017
1.100	-20.277	-4.019
1.097	-20.284	-4.024
1.100	-20.292	-4.028
1.108	-20.297	-4.030
1.117	-20.297	-4.030
1.112	-20.693	-3.270
1.115	-20.685	-3.265
1.112	-20.678	-3.261
1.105	-20.673	-3.259
1.096	-20.673	-3.259
1.088	-20.677	-3.262
1.085	-20.685	-3.266
1.088	-20.693	-3.270
1.095	-20.698	-3.272
1.105	-20.698	-3.272
1.109	-20.441	-4.024
1.111	-20.432	-4.022
1.108	-20.424	-4.019
1.101	-20.419	-4.016
1.092	-20.420	-4.014
1.085	-20.426	-4.014
1.082	-20.435	-4.016
1.086	-20.443	-4.019
1.093	-20.448	-4.022
1.102	-20.447	-4.024
1.300	-20.641	-3.265
1.302	-20.632	-3.264
1.299	-20.624	-3.261
1.291	-20.620	-3.258
1.282	-20.620	-3.256
1.275	-20.627	-3.256
1.273	-20.635	-3.257
1.276	-20.644	-3.260
1.284	-20.648	-3.263
1.293	-20.647	-3.265
[...]
         <CellData>
           <DataArray type="Float32" Name="combinedRootClassID" NumberOfComponents="1" format="ascii">
 -1.300e+01 -1.300e+01 -1.300e+01 -1.300e+01 -1.300e+01 -1.300e+01 -1.300e+01 -1.300e+01 -1.300e+01 -1.300e+01 -1.300e+01 -1.300e+01 -1.300e+01 -1.300e+01 -1.300e+01 -1.300e+01 -1.300e+01 -1.300e+01 -1.300e+01 -1.300e+01 -1.300e+01 -1.300e+01 -1.300e+01 -1.300e+01 -1.300e+01 -1.300e+01 -1.300e+01 -1.300e+01 -1.300e+01 -1.300e+01 -1.300e+01 -1.300e+01 -1.300e+01 -1.300e+01 -1.300e+01 -1.300e+01 -1.300e+01 -1.300e+01 -1.300e+01 -1.300e+01 -1.300e+01 -1.300e+01 -1.300e+01 -1.300e+01 -1.300e+01 -1.300e+01 -1.300e+01 -1.300e+01 -1.300e+01 -1.300e+01 -1.300e+01 -1.300e+01 -1.300e+01 -1.300e+01 -1.300e+01 -1.300e+01 -1.300e+01 -1.300e+01 -1.300e+01 -1.300e+01 -1.300e+01 -1.300e+01 -1.300e+01 -1.300e+01 -1.300e+01 -1.300e+01 -1.300e+01 -1.300e+01 -1.300e+01 -1.300e+01 -1.300e+01 -1.300e+01 -1.300e+01 -1.300e+01 -1.300e+01 -1.300e+01 -1.300e+01 -1.300e+01 -1.300e+01 -1.300e+01 -1.300e+01 -1.300e+01 -1.300e+01 -1.300e+01 -1.300e+01 -1.300e+01 -1.300e+01 -1.300e+01 -1.300e+01 -1.300e+01 -1.300e+01 -1.300e+01 -1.300e+01 -1.300e+01 -1.300e+01 -1.300e+01 -1.300e+01 -1.300e+01 -1.300e+01 -1.300e+01 -1.300e+01 -1.300e+01 -1.300e+01 -1.300e+01 -1.300e+01 -1.300e+01 -1.300e+01 -1.300e+01 -1.300e+01 -1.300e+01 -1.300e+01 -1.300e+01 -1.300e+01 -1.300e+01 -1.300e+01 -1.300e+01 -1.300e+01 -1.300e+01 -1.300e+01 -1.300e+01 -1.300e+01 -1.300e+01 -1.300e+01 -1.300e+01 -1.300e+01 -1.300e+01 -1.300e+01 -1.300e+01 -1.300e+01 -1.300e+01 -1.300e+01 -1.300e+01 -1.300e+01 -1.300e+01 -1.300e+01 -1.300e+01 -1.300e+01 -1.300e+01 -1.300e+01 -1.300e+01 -1.300e+01 -1.300e+01 -1.300e+01 -1.300e+01 -1.300e+01 -1.300e+01 -1.300e+01 -1.300e+01 -1.300e+01 -1.300e+01 -1.300e+01 -1.300e+01 -1.300e+01 -1.300e+01 -1.300e+01 -1.300e+01 -1.300e+01 -1.300e+01 -1.300e+01 -1.300e+01 -1.300e+01 -1.300e+01 -1.300e+01 -1.300e+01 -1.300e+01 -1.300e+01 -1.300e+01 -1.300e+01 -1.300e+01 -1.300e+01 -1.300e+01 -1.300e+01 -1.300e+01 -1.300e+01 -1.300e+01 -1.300e+01 -1.300e+01 -1.300e+01 -1.300e+01 -1.300e+01 -1.300e+01 -1.300e+01 -1.300e+01 -1.300e+01 -1.300e+01 -1.300e+01 -1.300e+01 -1.300e+01 -1.300e+01 -1.300e+01 -1.300e+01 -1.300e+01 -1.300e+01 -1.300e+01 -1.300e+01 -1.300e+01 -1.300e+01 -1.300e+01 -1.300e+01 -1.300e+01 -1.300e+01 -1.300e+01 -1.300e+01 -1.300e+01 -1.300e+01 -1.300e+01 -1.300e+01 -1.300e+01 -1.300e+01 -1.300e+01 -1.300e+01 -1.300e+01 -1.300e+01 -1.300e+01 -1.300e+01 -1.300e+01 -1.300e+01 -1.300e+01 -1.300e+01 -1.300e+01 -1.300e+01 -1.300e+01 -1.300e+01 -1.300e+01 -1.300e+01 -1.300e+01 -1.300e+01 -1.300e+01 -1.300e+01 -1.300e+01 -1.300e+01 -1.300e+01 -1.300e+01 -1.300e+01 -1.300e+01 -1.300e+01 -1.300e+01 -1.300e+01 -1.300e+01 -1.300e+01 -1.300e+01 -1.300e+01 -1.300e+01 -1.300e+01 -1.300e+01 -1.300e+01 -1.300e+01 -1.300e+01 -1.300e+01 -1.300e+01 -1.300e+01 -1.300e+01 -1.300e+01 -1.300e+01 -1.300e+01 -1.300e+01 -1.300e+01 -1.300e+01 -1.300e+01 -1.300e+01 -1.300e+01 -1.300e+01 -1.300e+01 -1.300e+01 -1.300e+01 -1.300e+01 -1.300e+01 -1.300e+01 -1.300e+01 -1.300e+01 -1.300e+01 -1.300e+01 -1.300e+01 -1.300e+01 -1.300e+01 -1.300e+01 -1.300e+01 -1.300e+01 -1.300e+01 -1.300e+01 -1.300e+01 -1.300e+01 -1.300e+01 -1.300e+01 -1.300e+01 -1.300e+01 -1.300e+01 -1.300e+01 -1.300e+01 -1.300e+01 -1.300e+01 -1.300e+01 -1.300e+01 -1.300e+01 -1.300e+01 -1.300e+01 -1.300e+01 -1.300e+01 -1.300e+01 -1.300e+01 -1.300e+01 -1.300e+01 -1.300e+01 -1.300e+01 -1.300e+01 -1.300e+01 -1.300e+01 -1.300e+01 -1.300e+01 -1.300e+01 -1.300e+01 -1.300e+01 -1.300e+01 -1.300e+01 -1.300e+01 -1.300e+01 -1.300e+01 -1.300e+01 -1.300e+01 -1.300e+01 -1.300e+01 -1.300e+01 -1.300e+01 -1.300e+01 -1.300e+01 -1.300e+01 -1.300e+01 -1.300e+01 -1.300e+01 -1.300e+01 -1.300e+01 -1.300e+01 -1.300e+01 -1.300e+01 -1.300e+01 -5.000e+00 -5.000e+00 -5.000e+00 -5.000e+00 -5.000e+00 -5.000e+00 -5.000e+00 -5.000e+00 -5.000e+00 -5.000e+00 -5.000e+00 -5.000e+00 -5.000e+00 -5.000e+00 -5.000e+00 -5.000e+00 -5.000e+00 -5.000e+00 -5.000e+00 -5.000e+00 -5.000e+00 -5.000e+00 -5.000e+00 -5.000e+00 -5.000e+00 -5.000e+00 -5.000e+00 -5.000e+00 -5.000e+00 -5.000e+00 -5.000e+00 -5.000e+00 -5.000e+00 -5.000e+00 -5.000e+00 -5.000e+00 -5.000e+00 -5.000e+00 -1.300e+01 -1.300e+01 -1.300e+01 -1.300e+01 -1.300e+01 -1.300e+01 -1.300e+01 -1.300e+01 -1.300e+01 -1.300e+01 -1.300e+01 -1.300e+01 -1.300e+01 -1.300e+01 -1.300e+01 -1.300e+01 -1.300e+01 -1.300e+01 -1.300e+01 -1.300e+01 -1.300e+01 -1.300e+01 -1.300e+01 -1.300e+01 -1.300e+01 -1.300e+01 -1.300e+01 -1.300e+01 -1.300e+01 -1.300e+01 -1.300e+01 -1.300e+01 -1.300e+01 -1.300e+01 -1.300e+01 -1.300e+01 -1.300e+01 -1.300e+01 -1.300e+01 -1.300e+01 -1.300e+01 -1.300e+01 -1.300e+01 -1.300e+01 -1.300e+01 -1.300e+01 -1.300e+01 -1.300e+01 -1.300e+01 -1.300e+01 -1.300e+01 -1.300e+01 -1.300e+01 -1.300e+01 -1.300e+01 -1.300e+01 -1.300e+01 -1.300e+01 -1.300e+01 -1.300e+01 -1.300e+01 -1.300e+01 -1.300e+01 -1.300e+01 -1.300e+01 -1.300e+01 -1.300e+01 -1.300e+01 -1.300e+01 -1.300e+01 -1.300e+01 -1.300e+01 -1.300e+01 -1.300e+01 -1.300e+01 -1.300e+01 -1.300e+01 -1.300e+01 -1.300e+01 -1.300e+01 -1.300e+01 -1.300e+01 -1.300e+01 -1.300e+01 -1.300e+01 -1.300e+01 -1.300e+01 -1.300e+01 -1.300e+01 -1.300e+01 -1.300e+01 -1.300e+01 -1.300e+01 -1.300e+01 -1.300e+01 -1.300e+01 -1.300e+01 -1.300e+01 -1.300e+01 -1.300e+01 -1.300e+01 -1.300e+01 -1.300e+01 -1.300e+01 -1.300e+01 -1.300e+01 -1.300e+01 -1.300e+01 -1.300e+01 -1.300e+01 -1.300e+01 -1.300e+01 -1.300e+01 -1.300e+01 -1.300e+01 -1.300e+01 -1.300e+01 -1.300e+01 -1.300e+01 -1.300e+01 -1.300e+01 -1.300e+01 -1.300e+01 -1.300e+01 -1.300e+01 -1.300e+01 -1.300e+01 -1.300e+01 -1.300e+01 -1.300e+01 -1.300e+01 -1.300e+01 -1.300e+01 -1.300e+01 -1.300e+01 -1.300e+01 -1.300e+01 -1.300e+01 -1.300e+01 -1.300e+01 -1.300e+01 -1.300e+01 -1.300e+01 -1.300e+01 -1.300e+01 -1.300e+01 -1.300e+01 -1.300e+01 -1.300e+01 -1.300e+01 -1.300e+01 -1.300e+01 -1.300e+01 -1.300e+01 -1.300e+01 -1.300e+01 -1.300e+01 -1.300e+01 -1.300e+01 -1.300e+01 -1.300e+01 -1.300e+01 -1.300e+01 -1.300e+01 -1.300e+01 -1.300e+01 -1.300e+01 -1.300e+01 -1.300e+01 -1.300e+01 -1.300e+01 -1.300e+01 -1.300e+01 -1.300e+01 -1.300e+01 -1.300e+01 -1.300e+01 -1.300e+01 -1.300e+01 -1.300e+01 -1.300e+01 -1.300e+01 -1.300e+01 -1.300e+01 -1.300e+01 -1.300e+01 -1.300e+01 -1.300e+01 -1.300e+01 -1.300e+01 -1.300e+01 -1.300e+01 -1.300e+01 -1.300e+01 -1.300e+01 -1.300e+01 -1.300e+01 -1.300e+01 -1.300e+01 -1.300e+01 -1.300e+01 -1.300e+01 -1.300e+01 -1.300e+01 -1.300e+01 -1.300e+01 -1.300e+01 -1.300e+01 -1.300e+01 -1.300e+01 -1.300e+01 -1.300e+01 -1.300e+01 -1.300e+01 -1.300e+01 -1.300e+01 -1.300e+01 -1.300e+01 -1.300e+01 -1.300e+01 -1.300e+01 -1.300e+01 -1.300e+01 -1.300e+01 -1.300e+01 -1.300e+01 -1.300e+01 -1.300e+01 -1.300e+01 -1.300e+01 -1.300e+01 -1.300e+01 -1.300e+01 -1.300e+01 -1.300e+01 -1.300e+01 -1.300e+01 -1.300e+01 -1.300e+01 -1.300e+01 -1.300e+01 -1.300e+01 -1.300e+01 -1.300e+01 -1.300e+01 -1.300e+01 -1.300e+01 -1.300e+01 -1.300e+01 -1.300e+01 -1.300e+01 -1.300e+01 -1.300e+01 -1.300e+01 -1.300e+01 -1.300e+01 -1.300e+01 -1.300e+01 -1.300e+01 -1.300e+01 -1.300e+01 -1.300e+01 -1.300e+01 -1.300e+01 -1.300e+01 -1.300e+01 -1.300e+01 -1.300e+01 -1.300e+01 -1.300e+01 -1.300e+01 -1.300e+01 -1.300e+01 -1.300e+01 -1.300e+01 -1.300e+01 -1.300e+01 -1.300e+01 -1.300e+01 -1.300e+01 -1.300e+01 -1.300e+01 -1.300e+01 -1.300e+01 -1.300e+01 -1.300e+01 -1.300e+01 -1.300e+01 -1.300e+01 -1.300e+01 -1.300e+01 -1.300e+01 -1.300e+01 -1.300e+01 -1.300e+01 -1.300e+01 -1.300e+01 -1.300e+01 -1.300e+01 -1.300e+01 -1.300e+01 -1.300e+01 -1.300e+01 -1.300e+01 -1.300e+01 -1.300e+01 -1.300e+01 -1.300e+01 -1.300e+01 -1.300e+01 -1.300e+01 -1.300e+01 -1.300e+01 -1.300e+01 -1.300e+01 -1.300e+01 -1.300e+01 -1.300e+01 -1.300e+01 -1.300e+01 -1.300e+01 -1.300e+01 -1.300e+01 -1.300e+01 -1.300e+01 -1.300e+01 -1.300e+01 -1.300e+01 -1.300e+01 -1.300e+01 -1.300e+01 -1.300e+01 -1.300e+01 -1.300e+01 -1.300e+01 -1.300e+01 -1.300e+01 -1.300e+01 -5.000e+00 -5.000e+00 -5.000e+00 -5.000e+00 -5.000e+00 -5.000e+00 -5.000e+00 -5.000e+00 -5.000e+00 -5.000e+00 -5.000e+00 -5.000e+00 -5.000e+00 -5.000e+00 -5.000e+00 -5.000e+00 -5.000e+00 -5.000e+00 -5.000e+00 -5.000e+00 -5.000e+00 -5.000e+00 -5.000e+00 -5.000e+00 -5.000e+00 -5.000e+00 -5.000e+00 -5.000e+00 -5.000e+00 -5.000e+00 -5.000e+00 -5.000e+00 -5.000e+00 -5.000e+00 -5.000e+00 -5.000e+00 -5.000e+00 -5.000e+00 -1.300e+01 -1.300e+01 -1.300e+01 -1.300e+01 -1.300e+01 -1.300e+01 -1.300e+01 -1.300e+01 -1.300e+01 -1.300e+01 -1.300e+01 -1.300e+01 -1.300e+01 -1.300e+01 -1.300e+01 -1.300e+01 -1.300e+01 -1.300e+01 -1.300e+01 -1.300e+01 -1.300e+01 -1.300e+01 -1.300e+01 -1.300e+01 -1.300e+01 -1.300e+01 -1.300e+01 -1.300e+01 -1.300e+01 -1.300e+01 -1.300e+01 -1.300e+01 -1.300e+01 -1.300e+01 -1.300e+01 -1.300e+01 -1.300e+01 -1.300e+01 -1.300e+01 -1.300e+01 -1.300e+01 -1.300e+01 -1.300e+01 -1.300e+01 -1.300e+01 -1.300e+01 -1.300e+01 -1.300e+01 -1.300e+01 -1.300e+01 -1.300e+01 -1.300e+01 -1.300e+01 -1.300e+01 -1.300e+01 -1.300e+01 -1.300e+01 -1.300e+01 -1.300e+01 -1.300e+01 -1.300e+01 -1.300e+01 -1.300e+01 -1.300e+01 -1.300e+01 -1.300e+01 -1.300e+01 -1.300e+01 -1.300e+01 -1.300e+01 -1.300e+01 -1.300e+01 -1.300e+01 -1.300e+01 -1.300e+01 -1.300e+01 -1.300e+01 -1.300e+01 -1.300e+01 -1.300e+01 -1.300e+01 -1.300e+01 -1.300e+01 -1.300e+01 -1.300e+01 -1.300e+01 -1.300e+01 -1.300e+01 -1.300e+01 -1.300e+01 -1.300e+01 -1.300e+01 -1.300e+01 -1.300e+01 -1.300e+01 -1.300e+01 -1.300e+01 -1.300e+01 -1.300e+01 -1.300e+01 -1.300e+01 -1.300e+01 -1.300e+01 -1.300e+01 -1.300e+01 -1.300e+01 -1.300e+01 -1.300e+01 -1.300e+01 -1.300e+01 -1.300e+01 -1.300e+01 -1.300e+01 -1.300e+01 -1.300e+01 -1.300e+01 -1.300e+01 -1.300e+01 -1.300e+01 -1.300e+01 -1.300e+01 -1.300e+01 -1.300e+01 -1.300e+01 -1.300e+01 -1.300e+01 -1.300e+01 -1.300e+01 -1.300e+01 -1.300e+01 -1.300e+01 -1.300e+01 -1.300e+01 -1.300e+01 -1.300e+01 -1.300e+01 -1.300e+01 -1.300e+01 -1.300e+01 -1.300e+01 -1.300e+01 -1.300e+01 -1.300e+01 -1.300e+01 -1.300e+01 -1.300e+01 -1.300e+01 -1.300e+01 -1.300e+01 -1.300e+01 -1.300e+01 -1.300e+01 -1.300e+01 -1.300e+01 -1.300e+01 -1.300e+01 -1.300e+01 -1.300e+01 -1.300e+01 -1.300e+01 -1.300e+01 -1.300e+01 -1.300e+01 -1.300e+01 -1.300e+01 -1.300e+01 -1.300e+01 -1.300e+01 -1.300e+01 -1.300e+01 -1.300e+01 -1.300e+01 -1.300e+01 -1.300e+01 -1.300e+01 -1.300e+01 -1.300e+01 -1.300e+01 -1.300e+01 -1.300e+01 -1.300e+01 -1.300e+01 -1.300e+01 -1.300e+01 -1.300e+01 -1.300e+01 -1.300e+01 -1.300e+01 -1.300e+01 -1.300e+01 -1.300e+01 -1.300e+01 -1.300e+01 -1.300e+01 -1.300e+01 -1.300e+01 -1.300e+01 -1.300e+01 -1.300e+01 -1.300e+01 -1.300e+01 -1.300e+01 -1.300e+01 -1.300e+01 -1.300e+01 -1.300e+01 -1.300e+01 -1.300e+01 -1.300e+01 -1.300e+01 -1.300e+01 -1.300e+01 -1.300e+01 -1.300e+01 -1.300e+01 -1.300e+01 -1.300e+01 -1.300e+01 -1.300e+01 -1.300e+01 -1.300e+01 -1.300e+01 -1.300e+01 -1.300e+01 -1.300e+01 -1.300e+01 -1.300e+01 -1.300e+01 -1.300e+01 -1.300e+01 -1.300e+01 -1.300e+01 -1.300e+01 -1.300e+01 -1.300e+01 -1.300e+01 -1.300e+01 -1.300e+01 -1.300e+01 -1.300e+01 -1.300e+01 -1.300e+01 -1.300e+01 -1.300e+01 -1.300e+01 -1.300e+01 -1.300e+01 -1.300e+01 -1.300e+01 -1.300e+01 -1.300e+01 -1.300e+01 -1.300e+01 -1.300e+01 -1.300e+01 -1.300e+01 -1.300e+01 -1.300e+01 -1.300e+01 -1.300e+01 -1.300e+01 -1.300e+01 -1.300e+01 -1.300e+01 -1.300e+01 -1.300e+01 -1.300e+01 -1.300e+01 -1.300e+01 -1.300e+01 -1.300e+01 -1.300e+01 -1.300e+01 -1.300e+01 -1.300e+01 -1.300e+01 -1.300e+01 -1.300e+01 -1.300e+01 -1.300e+01 -1.300e+01 -1.300e+01 -1.300e+01 -1.300e+01 -1.300e+01 -1.300e+01 -1.300e+01 -1.300e+01 -1.300e+01 -1.300e+01 -1.300e+01 -1.300e+01 -1.300e+01 -1.300e+01 -1.300e+01 -1.300e+01 -1.300e+01 -1.300e+01 -1.300e+01 -1.300e+01 -1.300e+01 -1.300e+01 -1.300e+01 -1.300e+01 -1.300e+01 -1.300e+01 -1.300e+01 -1.300e+01 -1.300e+01 -1.300e+01 -1.300e+01 -1.300e+01 -1.300e+01 -1.300e+01 -1.300e+01 -1.300e+01 -1.300e+01 -1.300e+01 -1.300e+01 -1.300e+01 -1.300e+01 -1.300e+01 -1.300e+01 -1.300e+01 -1.300e+01 -1.300e+01 -1.300e+01 -1.300e+01 -1.300e+01 -1.300e+01 -1.300e+01 -1.300e+01 -1.300e+01 -1.300e+01 -1.300e+01 -5.000e+00 -5.000e+00 -5.000e+00 -5.000e+00 -5.000e+00 -5.000e+00 -5.000e+00 -5.000e+00 -5.000e+00 -5.000e+00 -5.000e+00 -5.000e+00 -5.000e+00 -5.000e+00 -5.000e+00 -5.000e+00 -5.000e+00 -5.000e+00 -5.000e+00 -5.000e+00 -5.000e+00 -5.000e+00 -5.000e+00 -5.000e+00 -5.000e+00 -5.000e+00 -5.000e+00 -5.000e+00 -5.000e+00 -5.000e+00 -5.000e+00 -5.000e+00 -5.000e+00 -5.000e+00 -5.000e+00 -5.000e+00 -5.000e+00 -5.000e+00 -1.300e+01 -1.300e+01 -1.300e+01 -1.300e+01 -1.300e+01 -1.300e+01 -1.300e+01 -1.300e+01 -1.300e+01 -1.300e+01 -1.300e+01 -1.300e+01 -1.300e+01 -1.300e+01 -1.300e+01 -1.300e+01 -1.300e+01 -1.300e+01 -1.300e+01 -1.300e+01 -1.300e+01 -1.300e+01 -1.300e+01 -1.300e+01 -1.300e+01 -1.300e+01 -1.300e+01 -1.300e+01 -1.300e+01 -1.300e+01 -1.300e+01 -1.300e+01 -1.300e+01 -1.300e+01 -1.300e+01 -1.300e+01 -1.300e+01 -1.300e+01 -1.300e+01 -1.300e+01 -1.300e+01 -1.300e+01 -1.300e+01 -1.300e+01 -1.300e+01 -1.300e+01 -1.300e+01 -1.300e+01 -1.300e+01 -1.300e+01 -1.300e+01 -1.300e+01 -1.300e+01 -1.300e+01 -1.300e+01 -1.300e+01 -1.300e+01 -1.300e+01 -1.300e+01 -1.300e+01 -1.300e+01 -1.300e+01 -1.300e+01 -1.300e+01 -1.300e+01 -1.300e+01 -1.300e+01 -1.300e+01 -1.300e+01 -1.300e+01 -1.300e+01 -1.300e+01 -1.300e+01 -1.300e+01 -1.300e+01 -1.300e+01 -1.300e+01 -1.300e+01 -1.300e+01 -1.300e+01 -1.300e+01 -1.300e+01 -1.300e+01 -1.300e+01 -1.300e+01 -1.300e+01 -1.300e+01 -1.300e+01 -1.300e+01 -1.300e+01 -1.300e+01 -1.300e+01 -1.300e+01 -1.300e+01 -1.300e+01 -1.300e+01 -1.300e+01 -1.300e+01 -1.300e+01 -1.300e+01 -1.300e+01 -1.300e+01 -1.300e+01 -1.300e+01 -1.300e+01 -1.300e+01 -1.300e+01 -1.300e+01 -1.300e+01 -1.300e+01 -1.300e+01 -1.300e+01 -1.300e+01 -1.300e+01 -1.300e+01 -1.300e+01 -1.300e+01 -1.300e+01 -1.300e+01 -1.300e+01 -1.300e+01 -1.300e+01 -1.300e+01 -1.300e+01 -1.300e+01 -1.300e+01 -1.300e+01 -1.300e+01 -1.300e+01 -1.300e+01 -1.300e+01 -1.300e+01 -1.300e+01 -1.300e+01 -1.300e+01 -1.300e+01 -1.300e+01 -1.300e+01 -1.300e+01 -1.300e+01 -1.300e+01 -1.300e+01 -1.300e+01 -1.300e+01 -1.300e+01 -1.300e+01 -1.300e+01 -1.300e+01 -1.300e+01 -1.300e+01 -1.300e+01 -1.300e+01 -1.300e+01 -1.300e+01 -1.300e+01 -1.300e+01 -1.300e+01 -1.300e+01 -1.300e+01 -1.300e+01 -1.300e+01 -1.300e+01 -1.300e+01 -1.300e+01 -1.300e+01 -1.300e+01 -1.300e+01 -1.300e+01 -1.300e+01 -1.300e+01 -1.300e+01 -1.300e+01 -1.300e+01 -1.300e+01 -1.300e+01 -1.300e+01 -1.300e+01 -1.300e+01 -1.300e+01 -1.300e+01 -1.300e+01 -1.300e+01 -1.300e+01 -1.300e+01 -1.300e+01 -1.300e+01 -1.300e+01 -1.300e+01 -1.300e+01 -1.300e+01 -1.300e+01 -1.300e+01 -1.300e+01 -1.300e+01 -1.300e+01 -1.300e+01 -1.300e+01 -1.300e+01 -1.300e+01 -1.300e+01 -1.300e+01 -1.300e+01 -1.300e+01 -1.300e+01 -1.300e+01 -1.300e+01 -1.300e+01 -1.300e+01 -1.300e+01 -1.300e+01 -1.300e+01 -1.300e+01 -1.300e+01 -1.300e+01 -1.300e+01 -1.300e+01 -1.300e+01 -1.300e+01 -1.300e+01 -1.300e+01 -1.300e+01 -1.300e+01 -1.300e+01 -1.300e+01 -1.300e+01 -1.300e+01 -1.300e+01 -1.300e+01 -1.300e+01 -1.300e+01 -1.300e+01 -1.300e+01 -1.300e+01 -1.300e+01 -1.300e+01 -1.300e+01 -1.300e+01 -1.300e+01 -1.300e+01 -1.300e+01 -1.300e+01 -1.300e+01 -1.300e+01 -1.300e+01 -1.300e+01 -1.300e+01 -1.300e+01 -1.300e+01 -1.300e+01 -1.300e+01 -1.300e+01 -1.300e+01 -1.300e+01 -1.300e+01 -1.300e+01 -1.300e+01 -1.300e+01 -1.300e+01 -1.300e+01 -1.300e+01 -1.300e+01 -1.300e+01 -1.300e+01 -1.300e+01 -1.300e+01 -1.300e+01 -1.300e+01 -1.300e+01 -1.300e+01 -1.300e+01 -1.300e+01 -1.300e+01 -1.300e+01 -1.300e+01 -1.300e+01 -1.300e+01 -1.300e+01 -1.300e+01 -1.300e+01 -1.300e+01 -1.300e+01 -1.300e+01 -1.300e+01 -1.300e+01 -1.300e+01 -1.300e+01 -1.300e+01 -1.300e+01 -1.300e+01 -1.300e+01 -1.300e+01 -1.300e+01 -1.300e+01 -1.300e+01 -1.300e+01 -1.300e+01 -1.300e+01 -1.300e+01 -1.300e+01 -1.300e+01 -1.300e+01 -1.300e+01 -1.300e+01 -1.300e+01 -1.300e+01 -1.300e+01 -1.300e+01 -1.300e+01 -1.300e+01 -1.300e+01 -1.300e+01 -1.300e+01 -1.300e+01 -1.300e+01 -1.300e+01 -1.300e+01 -1.300e+01 -1.300e+01 -1.300e+01 -1.300e+01 -1.300e+01 -1.300e+01 -1.300e+01 -1.300e+01 -1.300e+01 -1.300e+01 -1.300e+01 -1.300e+01 -1.300e+01 -1.300e+01 -1.300e+01 -5.000e+00 -5.000e+00 -5.000e+00 -5.000e+00 -5.000e+00 -5.000e+00 -5.000e+00 -5.000e+00 -5.000e+00 -5.000e+00 -5.000e+00 -5.000e+00 -5.000e+00 -5.000e+00 -5.000e+00 -5.000e+00 -5.000e+00 -5.000e+00 -5.000e+00 -5.000e+00 -5.000e+00 -5.000e+00 -5.000e+00 -5.000e+00 -5.000e+00 -5.000e+00 -5.000e+00 -5.000e+00 -5.000e+00 -5.000e+00 -5.000e+00 -5.000e+00 -5.000e+00 -5.000e+00 -5.000e+00 -5.000e+00 -5.000e+00 -5.000e+00 -1.900e+01 -1.900e+01 -1.900e+01 -1.900e+01 -1.900e+01 -1.900e+01 -1.900e+01 -1.900e+01 -1.900e+01 -1.900e+01 -1.900e+01 -1.900e+01 -1.900e+01 -1.900e+01 -1.900e+01 -1.900e+01 -1.900e+01 -1.900e+01 -1.900e+01 -1.900e+01 -1.900e+01 -1.900e+01 -1.900e+01 -1.900e+01 -1.900e+01 -1.900e+01 -1.900e+01 -1.900e+01 -1.900e+01 -1.900e+01 -1.900e+01 -1.900e+01 -1.900e+01 -1.900e+01 -1.900e+01 -1.900e+01 -1.900e+01 -1.900e+01 -1.900e+01 -1.900e+01 -1.900e+01 -1.900e+01 -1.900e+01 -1.900e+01 -1.900e+01 -1.900e+01 -1.900e+01 -1.900e+01 -1.900e+01 -1.900e+01 -1.900e+01 -1.900e+01 -1.900e+01 -1.900e+01 -1.900e+01 -1.900e+01 -1.900e+01 -1.900e+01 -1.900e+01 -1.900e+01 -1.900e+01 -1.900e+01 -1.900e+01 -1.900e+01 -1.900e+01 -1.900e+01 -1.900e+01 -1.900e+01 -1.900e+01 -1.900e+01 -1.900e+01 -1.900e+01 -1.900e+01 -1.900e+01 -1.900e+01 -1.900e+01 -1.900e+01 -1.900e+01 -1.900e+01 -1.900e+01 -1.900e+01 -1.900e+01 -1.900e+01 -1.900e+01 -1.900e+01 -1.900e+01 -1.900e+01 -1.900e+01 -1.900e+01 -1.900e+01 -1.900e+01 -1.900e+01 -1.900e+01 -1.900e+01 -1.900e+01 -1.900e+01 -1.900e+01 -1.900e+01 -1.900e+01 -1.900e+01 -1.900e+01 -1.900e+01 -1.900e+01 -1.900e+01 -1.900e+01 -1.900e+01 -1.900e+01 -1.900e+01 -1.900e+01 -1.900e+01 -1.900e+01 -1.900e+01 -1.900e+01 -1.100e+01 -1.100e+01 -1.100e+01 -1.100e+01 -1.100e+01 -1.100e+01 -1.100e+01 -1.100e+01 -1.100e+01 -1.100e+01 -1.100e+01 -1.100e+01 -1.100e+01 -1.100e+01 -1.100e+01 -1.100e+01 -1.100e+01 -1.100e+01 -1.100e+01 -1.100e+01 -1.100e+01 -1.100e+01 -1.100e+01 -1.100e+01 -1.100e+01 -1.100e+01 -1.100e+01 -1.900e+01 -1.900e+01 -1.900e+01 -1.900e+01 -1.900e+01 -1.900e+01 -1.900e+01 -1.900e+01 -1.900e+01 -1.900e+01 -1.900e+01 -1.900e+01 -1.900e+01 -1.900e+01 -1.900e+01 -1.900e+01 -1.900e+01 -1.900e+01 -1.900e+01 -1.900e+01 -1.900e+01 -1.900e+01 -1.900e+01 -1.900e+01 -1.900e+01 -1.900e+01 -1.900e+01 -1.900e+01 -1.900e+01 -1.900e+01 -1.900e+01 -1.900e+01 -1.900e+01 -1.900e+01 -1.900e+01 -1.900e+01 -1.900e+01 -1.900e+01 -1.900e+01 -1.900e+01 -1.900e+01 -1.900e+01 -1.900e+01 -1.900e+01 -1.900e+01 -1.900e+01 -1.900e+01 -1.900e+01 -1.900e+01 -1.900e+01 -1.900e+01 -1.900e+01 -1.900e+01 -1.900e+01 -1.900e+01 -1.900e+01 -1.900e+01 -1.900e+01 -1.900e+01 -1.900e+01 -1.900e+01 -1.900e+01 -1.900e+01 -1.900e+01 -1.900e+01 -1.900e+01 -1.900e+01 -1.900e+01 -1.900e+01 -1.900e+01 -1.900e+01 -1.900e+01 -1.900e+01 -1.900e+01 -1.900e+01 -1.900e+01 -1.900e+01 -1.900e+01 -1.900e+01 -1.900e+01 -1.900e+01 -1.900e+01 -1.900e+01 -1.900e+01 -1.900e+01 -1.900e+01 -1.900e+01 -1.900e+01 -1.900e+01 -1.900e+01 -1.900e+01 -1.900e+01 -1.900e+01 -1.900e+01 -1.900e+01 -1.900e+01 -1.900e+01 -1.900e+01 -1.900e+01 -1.900e+01 -1.900e+01 -1.900e+01 -1.900e+01 -1.900e+01 -1.900e+01 -1.900e+01 -1.900e+01 -1.900e+01 -1.900e+01 -1.900e+01 -1.900e+01 -1.900e+01 -1.100e+01 -1.100e+01 -1.100e+01 -1.100e+01 -1.100e+01 -1.100e+01 -1.100e+01 -1.100e+01 -1.100e+01 -1.100e+01 -1.100e+01 -1.100e+01 -1.100e+01 -1.100e+01 -1.100e+01 -1.100e+01 -1.100e+01 -1.100e+01 -1.100e+01 -1.100e+01 -1.100e+01 -1.100e+01 -1.100e+01 -1.100e+01 -1.100e+01 -1.100e+01 -1.100e+01 -1.900e+01 -1.900e+01 -1.900e+01 -1.900e+01 -1.900e+01 -1.900e+01 -1.900e+01 -1.900e+01 -1.900e+01 -1.900e+01 -1.900e+01 -1.900e+01 -1.900e+01 -1.900e+01 -1.900e+01 -1.900e+01 -1.900e+01 -1.900e+01 -1.900e+01 -1.900e+01 -1.900e+01 -1.900e+01 -1.900e+01 -1.900e+01 -1.900e+01 -1.900e+01 -1.900e+01 -1.900e+01 -1.900e+01 -1.900e+01 -1.900e+01 -1.900e+01 -1.900e+01 -1.900e+01 -1.900e+01 -1.900e+01 -1.900e+01