<?xml version="1.0"?>
<VTKFile type="UnstructuredGrid" version="0.1" byte_order="LittleEndian">
   <UnstructuredGrid>
      <Piece NumberOfPoints="60230" NumberOfCells="4376">
         <Points>
            <DataArray type="Float32" Name="Position" NumberOfComponents="3" format="ascii">
0.036	-5.031	-0.153
0.041	-5.032	-0.144
0.039	-5.032	-0.135
0.033	-5.033	-0.129
0.024	-5.033	-0.127
0.015	-5.033	-0.131
0.011	-5.032	-0.139
0.012	-5.032	-0.148
0.019	-5.031	-0.155
0.028	-5.031	-0.157
0.030	-5.900	-0.201
0.035	-5.900	-0.193
0.034	-5.900	-0.183
0.027	-5.900	-0.177
0.018	-5.901	-0.175
0.010	-5.901	-0.179
0.005	-5.901	-0.187
0.007	-5.901	-0.196
0.013	-5.901	-0.203
0.022	-5.900	-0.205
0.129	-6.742	-0.155
0.133	-6.740	-0.147
0.131	-6.739	-0.138
0.125	-6.740	-0.131
0.116	-6.741	-0.129
0.108	-6.742	-0.133
0.104	-6.743	-0.142
0.105	-6.744	-0.151
0.111	-6.744	-0.157
0.120	-6.743	-0.159
0.245	-7.568	-0.031
0.248	-7.565	-0.023
0.247	-7.564	-0.014
0.240	-7.564	-0.007
0.231	-7.565	-0.006
0.223	-7.568	-0.010
0.220	-7.571	-0.018
0.221	-7.573	-0.026
0.228	-7.573	-0.033
0.237	-7.571	-0.035
0.462	-8.176	0.194
0.462	-8.168	0.198
0.462	-8.159	0.197
0.462	-8.152	0.190
0.462	-8.151	0.181
0.462	-8.155	0.173
0.462	-8.163	0.168
0.462	-8.172	0.170
0.462	-8.179	0.176
0.462	-8.180	0.186
0.051	-5.102	-0.266
0.048	-5.094	-0.262
0.046	-5.085	-0.264
0.047	-5.078	-0.271
0.049	-5.077	-0.280
0.052	-5.081	-0.288
0.055	-5.089	-0.291
0.056	-5.098	-0.289
0.056	-5.105	-0.282
0.054	-5.106	-0.273
-0.755	-5.283	-0.495
-0.758	-5.276	-0.491
-0.760	-5.267	-0.492
-0.760	-5.260	-0.498
-0.759	-5.258	-0.507
-0.756	-5.261	-0.515
-0.753	-5.269	-0.519
-0.751	-5.278	-0.518
-0.750	-5.285	-0.512
-0.752	-5.287	-0.503
-1.563	-5.546	-0.649
-1.567	-5.537	-0.648
-1.571	-5.530	-0.652
-1.571	-5.526	-0.661
-1.570	-5.527	-0.670
-1.566	-5.532	-0.676
-1.562	-5.541	-0.677
-1.558	-5.548	-0.673
-1.558	-5.552	-0.665
-1.559	-5.551	-0.656
-2.264	-6.037	-0.711
-2.270	-6.030	-0.711
-2.275	-6.025	-0.717
-2.276	-6.023	-0.726
-2.273	-6.025	-0.735
-2.267	-6.030	-0.740
-2.261	-6.037	-0.739
-2.257	-6.043	-0.733
-2.256	-6.045	-0.724
-2.258	-6.043	-0.716
-2.824	-6.709	-0.775
-2.831	-6.703	-0.775
-2.837	-6.698	-0.779
-2.840	-6.696	-0.788
-2.839	-6.698	-0.797
-2.834	-6.703	-0.803
-2.827	-6.709	-0.804
-2.821	-6.714	-0.799
-2.818	-6.716	-0.790
-2.819	-6.714	-0.781
-2.864	-6.756	-0.787
-2.860	-6.756	-0.779
-2.862	-6.756	-0.770
-2.868	-6.756	-0.763
-2.877	-6.756	-0.762
-2.886	-6.756	-0.766
-2.890	-6.756	-0.774
-2.888	-6.756	-0.784
-2.882	-6.756	-0.790
-2.873	-6.756	-0.792
0.304	-5.894	-1.331
0.304	-5.888	-1.324
0.302	-5.888	-1.315
0.300	-5.893	-1.307
0.297	-5.901	-1.304
0.296	-5.910	-1.307
0.296	-5.916	-1.314
0.298	-5.916	-1.324
0.300	-5.911	-1.331
0.302	-5.903	-1.334
1.139	-6.071	-1.173
1.139	-6.066	-1.165
1.137	-6.066	-1.156
1.135	-6.071	-1.149
1.133	-6.079	-1.146
1.131	-6.088	-1.149
1.132	-6.094	-1.156
1.133	-6.094	-1.165
1.135	-6.089	-1.173
1.138	-6.080	-1.175
2.008	-6.234	-1.043
2.008	-6.229	-1.035
2.007	-6.229	-1.026
2.005	-6.234	-1.019
2.003	-6.243	-1.016
2.002	-6.252	-1.019
2.002	-6.257	-1.026
2.003	-6.257	-1.035
2.005	-6.252	-1.043
2.007	-6.243	-1.045
2.875	-6.372	-0.902
2.875	-6.367	-0.894
2.873	-6.367	-0.885
2.871	-6.372	-0.878
2.869	-6.381	-0.875
2.869	-6.389	-0.878
2.869	-6.395	-0.885
2.870	-6.395	-0.894
2.872	-6.390	-0.902
2.874	-6.381	-0.904
3.557	-6.470	-0.788
3.556	-6.465	-0.781
3.555	-6.465	-0.772
3.553	-6.470	-0.764
3.551	-6.479	-0.762
3.550	-6.487	-0.765
3.551	-6.493	-0.772
3.552	-6.493	-0.781
3.554	-6.488	-0.789
3.556	-6.479	-0.791
1.292	-18.787	-4.051
1.295	-18.782	-4.044
1.296	-18.783	-4.035
1.294	-18.788	-4.027
1.290	-18.796	-4.025
1.285	-18.803	-4.028
1.282	-18.808	-4.035
1.282	-18.808	-4.044
1.284	-18.802	-4.052
1.288	-18.794	-4.055
2.059	-19.188	-4.106
2.063	-19.184	-4.098
2.064	-19.185	-4.089
2.063	-19.191	-4.082
2.060	-19.200	-4.080
2.055	-19.207	-4.083
2.052	-19.211	-4.091
2.050	-19.210	-4.100
2.052	-19.204	-4.107
2.055	-19.196	-4.109
2.638	-19.423	-4.309
2.642	-19.423	-4.301
2.640	-19.423	-4.291
2.634	-19.423	-4.285
2.625	-19.423	-4.283
2.616	-19.423	-4.288
2.612	-19.423	-4.296
2.614	-19.423	-4.305
2.620	-19.423	-4.312
2.629	-19.423	-4.313
1.259	-18.934	-4.035
1.267	-18.929	-4.038
1.276	-18.931	-4.040
1.283	-18.937	-4.040
1.285	-18.946	-4.039
1.281	-18.954	-4.037
1.273	-18.958	-4.034
1.264	-18.957	-4.032
1.258	-18.951	-4.032
1.256	-18.942	-4.033
1.066	-19.078	-4.841
1.074	-19.074	-4.843
1.083	-19.076	-4.844
1.090	-19.082	-4.844
1.092	-19.091	-4.843
1.088	-19.099	-4.841
1.080	-19.103	-4.839
1.071	-19.102	-4.838
1.064	-19.096	-4.838
1.062	-19.087	-4.839
0.981	-19.167	-5.580
0.989	-19.163	-5.582
0.998	-19.165	-5.582
1.005	-19.171	-5.582
1.006	-19.181	-5.581
1.002	-19.189	-5.580
0.994	-19.193	-5.579
0.985	-19.191	-5.578
0.978	-19.185	-5.578
0.977	-19.176	-5.579
1.263	-19.101	-4.036
1.266	-19.093	-4.033
1.264	-19.085	-4.030
1.256	-19.079	-4.028
1.247	-19.079	-4.027
1.239	-19.084	-4.029
1.236	-19.093	-4.032
1.239	-19.101	-4.035
1.246	-19.106	-4.037
1.256	-19.106	-4.038
1.293	-19.402	-3.231
1.296	-19.394	-3.227
1.293	-19.386	-3.223
1.285	-19.382	-3.219
1.276	-19.383	-3.218
1.269	-19.389	-3.219
1.266	-19.397	-3.223
1.269	-19.404	-3.228
1.277	-19.408	-3.231
1.286	-19.407	-3.232
1.528	-19.827	-2.621
1.532	-19.827	-2.613
1.530	-19.827	-2.604
1.524	-19.827	-2.597
1.515	-19.827	-2.596
1.506	-19.827	-2.600
1.502	-19.827	-2.608
1.504	-19.827	-2.618
1.510	-19.827	-2.624
1.519	-19.827	-2.626
1.237	-19.233	-4.043
1.237	-19.228	-4.035
1.236	-19.228	-4.026
1.234	-19.233	-4.019
1.231	-19.241	-4.016
1.229	-19.250	-4.019
1.229	-19.255	-4.027
1.230	-19.255	-4.036
1.232	-19.250	-4.043
1.235	-19.242	-4.046
2.085	-19.469	-3.938
2.087	-19.463	-3.931
2.086	-19.463	-3.922
2.083	-19.468	-3.914
2.080	-19.476	-3.911
2.077	-19.484	-3.914
2.076	-19.490	-3.922
2.077	-19.490	-3.931
2.079	-19.485	-3.938
2.083	-19.477	-3.941
2.627	-19.721	-3.892
2.629	-19.716	-3.885
2.628	-19.716	-3.876
2.626	-19.721	-3.868
2.622	-19.728	-3.865
2.618	-19.737	-3.868
2.616	-19.742	-3.876
2.617	-19.742	-3.885
2.620	-19.737	-3.892
2.624	-19.729	-3.895
1.204	-19.380	-4.030
1.212	-19.376	-4.033
1.221	-19.378	-4.035
1.228	-19.385	-4.034
1.229	-19.393	-4.032
1.225	-19.401	-4.029
1.217	-19.405	-4.027
1.208	-19.403	-4.025
1.202	-19.396	-4.026
1.200	-19.387	-4.027
1.021	-19.594	-4.867
1.029	-19.590	-4.871
1.037	-19.592	-4.873
1.044	-19.598	-4.874
1.047	-19.607	-4.872
1.043	-19.615	-4.868
1.036	-19.619	-4.864
1.027	-19.617	-4.862
1.020	-19.611	-4.861
1.018	-19.602	-4.863
0.827	-19.733	-5.232
0.833	-19.728	-5.237
0.842	-19.728	-5.241
0.849	-19.734	-5.243
0.852	-19.742	-5.242
0.851	-19.750	-5.238
0.845	-19.755	-5.233
0.836	-19.755	-5.229
0.829	-19.749	-5.227
0.826	-19.741	-5.228
1.188	-19.527	-4.032
1.197	-19.525	-4.033
1.205	-19.528	-4.032
1.211	-19.535	-4.030
1.211	-19.544	-4.028
1.205	-19.551	-4.026
1.196	-19.554	-4.025
1.188	-19.551	-4.025
1.182	-19.544	-4.027
1.182	-19.535	-4.030
1.178	-19.750	-4.865
1.187	-19.747	-4.867
1.196	-19.750	-4.866
1.201	-19.757	-4.864
1.202	-19.766	-4.862
1.196	-19.773	-4.860
1.187	-19.776	-4.859
1.179	-19.773	-4.859
1.173	-19.766	-4.861
1.173	-19.757	-4.863
1.153	-19.921	-5.468
1.157	-19.921	-5.459
1.156	-19.921	-5.450
1.149	-19.921	-5.444
1.140	-19.921	-5.442
1.132	-19.921	-5.446
1.128	-19.921	-5.455
1.129	-19.921	-5.464
1.136	-19.921	-5.470
1.145	-19.921	-5.472
1.181	-19.699	-4.017
1.180	-19.691	-4.013
1.179	-19.682	-4.014
1.178	-19.675	-4.020
1.178	-19.673	-4.029
1.178	-19.677	-4.037
1.179	-19.685	-4.042
1.180	-19.694	-4.041
1.181	-19.701	-4.035
1.181	-19.703	-4.026
0.342	-19.785	-4.027
0.340	-19.777	-4.022
0.338	-19.768	-4.023
0.338	-19.761	-4.030
0.338	-19.759	-4.039
0.340	-19.763	-4.047
0.342	-19.771	-4.051
0.343	-19.780	-4.050
0.344	-19.787	-4.044
0.343	-19.789	-4.035
-0.251	-19.933	-4.156
-0.254	-19.925	-4.152
-0.256	-19.916	-4.153
-0.257	-19.909	-4.160
-0.255	-19.908	-4.168
-0.252	-19.911	-4.177
-0.249	-19.919	-4.181
-0.248	-19.928	-4.179
-0.247	-19.935	-4.173
-0.249	-19.937	-4.164
1.175	-19.843	-4.032
1.177	-19.835	-4.029
1.174	-19.827	-4.025
1.166	-19.824	-4.021
1.157	-19.825	-4.019
1.150	-19.831	-4.020
1.148	-19.840	-4.023
1.151	-19.847	-4.027
1.159	-19.851	-4.031
1.168	-19.849	-4.033
1.406	-20.198	-3.258
1.407	-20.189	-3.256
1.404	-20.182	-3.251
1.396	-20.179	-3.247
1.388	-20.181	-3.245
1.381	-20.187	-3.245
1.379	-20.196	-3.248
1.383	-20.203	-3.252
1.390	-20.207	-3.256
1.399	-20.205	-3.259
1.593	-20.331	-2.855
1.595	-20.322	-2.852
1.591	-20.315	-2.848
1.583	-20.312	-2.844
1.575	-20.314	-2.841
1.569	-20.321	-2.840
1.568	-20.330	-2.842
1.571	-20.337	-2.847
1.579	-20.340	-2.851
1.587	-20.338	-2.854
1.137	-19.975	-4.028
1.146	-19.973	-4.032
1.154	-19.976	-4.032
1.159	-19.984	-4.030
1.159	-19.992	-4.026
1.154	-19.998	-4.022
1.146	-20.000	-4.018
1.137	-19.996	-4.017
1.132	-19.989	-4.019
1.132	-19.981	-4.024
0.914	-20.340	-4.767
0.922	-20.338	-4.770
0.930	-20.341	-4.771
0.936	-20.349	-4.769
0.936	-20.357	-4.765
0.931	-20.363	-4.761
0.923	-20.365	-4.757
0.914	-20.361	-4.756
0.909	-20.354	-4.758
0.909	-20.346	-4.762
0.774	-20.541	-5.162
0.782	-20.539	-5.166
0.791	-20.542	-5.167
0.796	-20.549	-5.165
0.797	-20.558	-5.161
0.792	-20.564	-5.156
0.784	-20.566	-5.152
0.775	-20.562	-5.151
0.770	-20.555	-5.153
0.769	-20.547	-5.157
1.127	-20.145	-4.013
1.126	-20.137	-4.010
1.125	-20.128	-4.012
1.126	-20.122	-4.019
1.128	-20.121	-4.028
1.131	-20.126	-4.036
1.132	-20.134	-4.039
1.133	-20.143	-4.036
1.132	-20.149	-4.029
1.130	-20.150	-4.020
0.288	-20.230	-4.209
0.286	-20.222	-4.205
0.285	-20.213	-4.208
0.286	-20.207	-4.215
0.288	-20.206	-4.224
0.291	-20.210	-4.231
0.293	-20.219	-4.235
0.293	-20.228	-4.232
0.293	-20.234	-4.225
0.291	-20.235	-4.216
-0.087	-20.299	-4.304
-0.090	-20.291	-4.300
-0.091	-20.282	-4.302
-0.090	-20.275	-4.309
-0.088	-20.274	-4.318
-0.085	-20.279	-4.326
-0.083	-20.287	-4.329
-0.082	-20.296	-4.327
-0.082	-20.302	-4.320
-0.085	-20.303	-4.312
0.332	-6.004	-1.430
0.331	-5.998	-1.423
0.329	-5.997	-1.414
0.327	-6.002	-1.406
0.325	-6.011	-1.403
0.324	-6.020	-1.406
0.325	-6.025	-1.413
[...]
         <CellData>
           <DataArray type="Float32" Name="combinedRootClassID" NumberOfComponents="1" format="ascii">
 -1.300e+01 -1.300e+01 -1.300e+01 -1.300e+01 -1.300e+01 -1.300e+01 -1.300e+01 -1.300e+01 -1.300e+01 -1.300e+01 -1.300e+01 -1.300e+01 -1.300e+01 -1.300e+01 -1.300e+01 -1.300e+01 -1.300e+01 -1.300e+01 -1.300e+01 -1.300e+01 -1.300e+01 -1.300e+01 -1.300e+01 -1.300e+01 -1.300e+01 -1.300e+01 -1.300e+01 -1.300e+01 -1.300e+01 -1.300e+01 -1.300e+01 -1.300e+01 -1.300e+01 -1.300e+01 -1.300e+01 -1.300e+01 -1.300e+01 -1.300e+01 -1.300e+01 -1.300e+01 -1.300e+01 -1.300e+01 -1.300e+01 -1.300e+01 -1.300e+01 -1.300e+01 -1.300e+01 -1.300e+01 -1.300e+01 -1.300e+01 -1.300e+01 -1.300e+01 -1.300e+01 -1.300e+01 -1.300e+01 -1.300e+01 -1.300e+01 -1.300e+01 -1.300e+01 -1.300e+01 -1.300e+01 -1.300e+01 -1.300e+01 -1.300e+01 -1.300e+01 -1.300e+01 -1.300e+01 -1.300e+01 -1.300e+01 -1.300e+01 -1.300e+01 -1.300e+01 -1.300e+01 -1.300e+01 -1.300e+01 -1.300e+01 -1.300e+01 -1.300e+01 -1.300e+01 -1.300e+01 -1.300e+01 -1.300e+01 -1.300e+01 -1.300e+01 -1.300e+01 -1.300e+01 -1.300e+01 -1.300e+01 -1.300e+01 -1.300e+01 -1.300e+01 -1.300e+01 -1.300e+01 -1.300e+01 -1.300e+01 -1.300e+01 -1.300e+01 -1.300e+01 -1.300e+01 -1.300e+01 -1.300e+01 -1.300e+01 -1.300e+01 -1.300e+01 -1.300e+01 -1.300e+01 -1.300e+01 -1.300e+01 -1.300e+01 -1.300e+01 -1.300e+01 -1.300e+01 -1.300e+01 -1.300e+01 -1.300e+01 -1.300e+01 -1.300e+01 -1.300e+01 -1.300e+01 -1.300e+01 -1.300e+01 -1.300e+01 -1.300e+01 -1.300e+01 -1.300e+01 -1.300e+01 -1.300e+01 -1.300e+01 -1.300e+01 -1.300e+01 -1.300e+01 -1.300e+01 -1.300e+01 -1.300e+01 -1.300e+01 -1.300e+01 -1.300e+01 -1.300e+01 -1.300e+01 -1.300e+01 -1.300e+01 -1.300e+01 -1.300e+01 -1.300e+01 -1.300e+01 -1.300e+01 -1.300e+01 -1.300e+01 -1.300e+01 -1.300e+01 -1.300e+01 -1.300e+01 -1.300e+01 -1.300e+01 -1.300e+01 -1.300e+01 -1.300e+01 -1.300e+01 -1.300e+01 -1.300e+01 -1.300e+01 -1.300e+01 -1.300e+01 -1.300e+01 -1.300e+01 -1.300e+01 -1.300e+01 -1.300e+01 -1.300e+01 -1.300e+01 -1.300e+01 -1.300e+01 -1.300e+01 -1.300e+01 -1.300e+01 -1.300e+01 -1.300e+01 -1.300e+01 -1.300e+01 -1.300e+01 -1.300e+01 -1.300e+01 -1.300e+01 -1.300e+01 -1.300e+01 -1.300e+01 -1.300e+01 -1.300e+01 -1.300e+01 -1.300e+01 -1.300e+01 -1.300e+01 -1.300e+01 -1.300e+01 -1.300e+01 -1.300e+01 -1.300e+01 -1.300e+01 -1.300e+01 -1.300e+01 -1.300e+01 -1.300e+01 -1.300e+01 -1.300e+01 -1.300e+01 -1.300e+01 -1.300e+01 -1.300e+01 -1.300e+01 -1.300e+01 -1.300e+01 -1.300e+01 -1.300e+01 -1.300e+01 -1.300e+01 -1.300e+01 -1.300e+01 -1.300e+01 -1.300e+01 -1.300e+01 -1.300e+01 -1.300e+01 -1.300e+01 -1.300e+01 -1.300e+01 -1.300e+01 -1.300e+01 -1.300e+01 -1.300e+01 -1.300e+01 -1.300e+01 -1.300e+01 -1.300e+01 -1.300e+01 -1.300e+01 -1.300e+01 -1.300e+01 -1.300e+01 -1.300e+01 -1.300e+01 -1.300e+01 -1.300e+01 -1.300e+01 -1.300e+01 -1.300e+01 -1.300e+01 -1.300e+01 -1.300e+01 -1.300e+01 -1.300e+01 -1.300e+01 -1.300e+01 -1.300e+01 -1.300e+01 -1.300e+01 -1.300e+01 -1.300e+01 -1.300e+01 -1.300e+01 -1.300e+01 -1.300e+01 -1.300e+01 -1.300e+01 -1.300e+01 -1.300e+01 -1.300e+01 -1.300e+01 -1.300e+01 -1.300e+01 -1.300e+01 -1.300e+01 -1.300e+01 -1.300e+01 -1.300e+01 -1.300e+01 -1.300e+01 -1.300e+01 -1.300e+01 -1.300e+01 -1.300e+01 -1.300e+01 -1.300e+01 -1.300e+01 -1.300e+01 -1.300e+01 -1.300e+01 -1.300e+01 -1.300e+01 -1.300e+01 -1.300e+01 -1.300e+01 -1.300e+01 -1.300e+01 -1.300e+01 -1.300e+01 -1.300e+01 -1.300e+01 -1.300e+01 -1.300e+01 -1.300e+01 -1.300e+01 -1.300e+01 -1.300e+01 -1.300e+01 -1.300e+01 -1.300e+01 -1.300e+01 -1.300e+01 -1.300e+01 -1.300e+01 -1.300e+01 -1.300e+01 -1.300e+01 -1.300e+01 -1.300e+01 -1.300e+01 -1.300e+01 -1.300e+01 -1.300e+01 -1.300e+01 -1.300e+01 -1.300e+01 -1.300e+01 -1.300e+01 -1.300e+01 -1.300e+01 -1.300e+01 -1.300e+01 -1.300e+01 -1.300e+01 -1.300e+01 -1.300e+01 -1.300e+01 -1.300e+01 -1.300e+01 -1.300e+01 -1.300e+01 -1.300e+01 -1.300e+01 -1.300e+01 -1.300e+01 -1.300e+01 -1.300e+01 -1.300e+01 -1.300e+01 -1.300e+01 -1.300e+01 -1.300e+01 -1.300e+01 -1.300e+01 -1.300e+01 -1.300e+01 -1.300e+01 -1.300e+01 -1.300e+01 -1.300e+01 -1.300e+01 -1.300e+01 -1.300e+01 -1.300e+01 -1.300e+01 -1.300e+01 -1.300e+01 -1.300e+01 -1.300e+01 -1.300e+01 -1.300e+01 -1.300e+01 -1.300e+01 -1.300e+01 -1.300e+01 -1.300e+01 -1.300e+01 -1.300e+01 -1.300e+01 -1.300e+01 -1.300e+01 -1.300e+01 -1.300e+01 -1.300e+01 -1.300e+01 -1.300e+01 -1.300e+01 -1.300e+01 -1.300e+01 -1.300e+01 -1.300e+01 -1.300e+01 -1.300e+01 -1.300e+01 -1.300e+01 -1.300e+01 -1.300e+01 -1.300e+01 -1.300e+01 -1.300e+01 -1.300e+01 -1.300e+01 -1.300e+01 -1.300e+01 -1.300e+01 -1.300e+01 -1.300e+01 -1.300e+01 -1.300e+01 -1.300e+01 -1.300e+01 -1.300e+01 -1.300e+01 -1.300e+01 -1.300e+01 -1.300e+01 -1.300e+01 -1.300e+01 -1.300e+01 -1.300e+01 -1.300e+01 -1.300e+01 -1.300e+01 -1.300e+01 -1.300e+01 -1.300e+01 -1.300e+01 -1.300e+01 -1.300e+01 -1.300e+01 -1.300e+01 -1.300e+01 -1.300e+01 -1.300e+01 -1.300e+01 -1.300e+01 -1.300e+01 -1.300e+01 -1.300e+01 -1.300e+01 -1.300e+01 -1.300e+01 -1.300e+01 -1.300e+01 -1.300e+01 -1.300e+01 -1.300e+01 -1.300e+01 -1.300e+01 -1.300e+01 -1.300e+01 -1.300e+01 -5.000e+00 -5.000e+00 -5.000e+00 -5.000e+00 -5.000e+00 -5.000e+00 -5.000e+00 -5.000e+00 -5.000e+00 -5.000e+00 -5.000e+00 -5.000e+00 -5.000e+00 -5.000e+00 -5.000e+00 -5.000e+00 -5.000e+00 -5.000e+00 -5.000e+00 -5.000e+00 -5.000e+00 -5.000e+00 -5.000e+00 -5.000e+00 -5.000e+00 -5.000e+00 -5.000e+00 -5.000e+00 -5.000e+00 -5.000e+00 -5.000e+00 -5.000e+00 -5.000e+00 -5.000e+00 -5.000e+00 -5.000e+00 -5.000e+00 -5.000e+00 -5.000e+00 -5.000e+00 -5.000e+00 -5.000e+00 -5.000e+00 -1.300e+01 -1.300e+01 -1.300e+01 -1.300e+01 -1.300e+01 -1.300e+01 -1.300e+01 -1.300e+01 -1.300e+01 -1.300e+01 -1.300e+01 -1.300e+01 -1.300e+01 -1.300e+01 -1.300e+01 -1.300e+01 -1.300e+01 -1.300e+01 -1.300e+01 -1.300e+01 -1.300e+01 -1.300e+01 -1.300e+01 -1.300e+01 -1.300e+01 -1.300e+01 -1.300e+01 -1.300e+01 -1.300e+01 -1.300e+01 -1.300e+01 -1.300e+01 -1.300e+01 -1.300e+01 -1.300e+01 -1.300e+01 -1.300e+01 -1.300e+01 -1.300e+01 -1.300e+01 -1.300e+01 -1.300e+01 -1.300e+01 -1.300e+01 -1.300e+01 -1.300e+01 -1.300e+01 -1.300e+01 -1.300e+01 -1.300e+01 -1.300e+01 -1.300e+01 -1.300e+01 -1.300e+01 -1.300e+01 -1.300e+01 -1.300e+01 -1.300e+01 -1.300e+01 -1.300e+01 -1.300e+01 -1.300e+01 -1.300e+01 -1.300e+01 -1.300e+01 -1.300e+01 -1.300e+01 -1.300e+01 -1.300e+01 -1.300e+01 -1.300e+01 -1.300e+01 -1.300e+01 -1.300e+01 -1.300e+01 -1.300e+01 -1.300e+01 -1.300e+01 -1.300e+01 -1.300e+01 -1.300e+01 -1.300e+01 -1.300e+01 -1.300e+01 -1.300e+01 -1.300e+01 -1.300e+01 -1.300e+01 -1.300e+01 -1.300e+01 -1.300e+01 -1.300e+01 -1.300e+01 -1.300e+01 -1.300e+01 -1.300e+01 -1.300e+01 -1.300e+01 -1.300e+01 -1.300e+01 -1.300e+01 -1.300e+01 -1.300e+01 -1.300e+01 -1.300e+01 -1.300e+01 -1.300e+01 -1.300e+01 -1.300e+01 -1.300e+01 -1.300e+01 -1.300e+01 -1.300e+01 -1.300e+01 -1.300e+01 -1.300e+01 -1.300e+01 -1.300e+01 -1.300e+01 -1.300e+01 -1.300e+01 -1.300e+01 -1.300e+01 -1.300e+01 -1.300e+01 -1.300e+01 -1.300e+01 -1.300e+01 -1.300e+01 -1.300e+01 -1.300e+01 -1.300e+01 -1.300e+01 -1.300e+01 -1.300e+01 -1.300e+01 -1.300e+01 -1.300e+01 -1.300e+01 -1.300e+01 -1.300e+01 -1.300e+01 -1.300e+01 -1.300e+01 -1.300e+01 -1.300e+01 -1.300e+01 -1.300e+01 -1.300e+01 -1.300e+01 -1.300e+01 -1.300e+01 -1.300e+01 -1.300e+01 -1.300e+01 -1.300e+01 -1.300e+01 -1.300e+01 -1.300e+01 -1.300e+01 -1.300e+01 -1.300e+01 -1.300e+01 -1.300e+01 -1.300e+01 -1.300e+01 -1.300e+01 -1.300e+01 -1.300e+01 -1.300e+01 -1.300e+01 -1.300e+01 -1.300e+01 -1.300e+01 -1.300e+01 -1.300e+01 -1.300e+01 -1.300e+01 -1.300e+01 -1.300e+01 -1.300e+01 -1.300e+01 -1.300e+01 -1.300e+01 -1.300e+01 -1.300e+01 -1.300e+01 -1.300e+01 -1.300e+01 -1.300e+01 -1.300e+01 -1.300e+01 -1.300e+01 -1.300e+01 -1.300e+01 -1.300e+01 -1.300e+01 -1.300e+01 -1.300e+01 -1.300e+01 -1.300e+01 -1.300e+01 -1.300e+01 -1.300e+01 -1.300e+01 -1.300e+01 -1.300e+01 -1.300e+01 -1.300e+01 -1.300e+01 -1.300e+01 -1.300e+01 -1.300e+01 -1.300e+01 -1.300e+01 -1.300e+01 -1.300e+01 -1.300e+01 -1.300e+01 -1.300e+01 -1.300e+01 -1.300e+01 -1.300e+01 -1.300e+01 -1.300e+01 -1.300e+01 -1.300e+01 -1.300e+01 -1.300e+01 -1.300e+01 -1.300e+01 -1.300e+01 -1.300e+01 -1.300e+01 -1.300e+01 -1.300e+01 -1.300e+01 -1.300e+01 -1.300e+01 -1.300e+01 -1.300e+01 -1.300e+01 -1.300e+01 -1.300e+01 -1.300e+01 -1.300e+01 -1.300e+01 -1.300e+01 -1.300e+01 -1.300e+01 -1.300e+01 -1.300e+01 -1.300e+01 -1.300e+01 -1.300e+01 -1.300e+01 -1.300e+01 -1.300e+01 -1.300e+01 -1.300e+01 -1.300e+01 -1.300e+01 -1.300e+01 -1.300e+01 -1.300e+01 -1.300e+01 -1.300e+01 -1.300e+01 -1.300e+01 -1.300e+01 -1.300e+01 -1.300e+01 -1.300e+01 -1.300e+01 -1.300e+01 -1.300e+01 -1.300e+01 -1.300e+01 -1.300e+01 -1.300e+01 -1.300e+01 -1.300e+01 -1.300e+01 -1.300e+01 -1.300e+01 -1.300e+01 -1.300e+01 -1.300e+01 -1.300e+01 -1.300e+01 -1.300e+01 -1.300e+01 -1.300e+01 -1.300e+01 -1.300e+01 -1.300e+01 -1.300e+01 -1.300e+01 -1.300e+01 -1.300e+01 -1.300e+01 -1.300e+01 -1.300e+01 -1.300e+01 -1.300e+01 -1.300e+01 -1.300e+01 -1.300e+01 -1.300e+01 -1.300e+01 -1.300e+01 -1.300e+01 -1.300e+01 -1.300e+01 -1.300e+01 -1.300e+01 -1.300e+01 -1.300e+01 -1.300e+01 -1.300e+01 -1.300e+01 -1.300e+01 -1.300e+01 -1.300e+01 -1.300e+01 -1.300e+01 -1.300e+01 -1.300e+01 -1.300e+01 -1.300e+01 -1.300e+01 -1.300e+01 -1.300e+01 -1.300e+01 -1.300e+01 -1.300e+01 -1.300e+01 -1.300e+01 -1.300e+01 -1.300e+01 -1.300e+01 -1.300e+01 -1.300e+01 -1.300e+01 -1.300e+01 -1.300e+01 -1.300e+01 -1.300e+01 -1.300e+01 -1.300e+01 -1.300e+01 -1.300e+01 -1.300e+01 -1.300e+01 -1.300e+01 -1.300e+01 -1.300e+01 -1.300e+01 -1.300e+01 -1.300e+01 -1.300e+01 -1.300e+01 -1.300e+01 -1.300e+01 -1.300e+01 -1.300e+01 -1.300e+01 -1.300e+01 -1.300e+01 -1.300e+01 -1.300e+01 -1.300e+01 -1.300e+01 -1.300e+01 -1.300e+01 -1.300e+01 -1.300e+01 -1.300e+01 -1.300e+01 -1.300e+01 -1.300e+01 -1.300e+01 -1.300e+01 -1.300e+01 -1.300e+01 -1.300e+01 -1.300e+01 -1.300e+01 -1.300e+01 -1.300e+01 -1.300e+01 -1.300e+01 -1.300e+01 -1.300e+01 -1.300e+01 -1.300e+01 -1.300e+01 -1.300e+01 -1.300e+01 -1.300e+01 -1.300e+01 -1.300e+01 -1.300e+01 -1.300e+01 -1.300e+01 -1.300e+01 -1.300e+01 -1.300e+01 -1.300e+01 -1.300e+01 -1.300e+01 -1.300e+01 -1.300e+01 -1.300e+01 -1.300e+01 -1.300e+01 -1.300e+01 -1.300e+01 -1.300e+01 -1.300e+01 -1.300e+01 -1.300e+01 -1.300e+01 -1.300e+01 -1.300e+01 -1.300e+01 -1.300e+01 -1.300e+01 -1.300e+01 -1.300e+01 -1.300e+01 -1.300e+01 -1.300e+01 -1.300e+01 -1.300e+01 -1.300e+01 -1.300e+01 -1.300e+01 -1.300e+01 -1.300e+01 -1.300e+01 -5.000e+00 -5.000e+00 -5.000e+00 -5.000e+00 -5.000e+00 -5.000e+00 -5.000e+00 -5.000e+00 -5.000e+00 -5.000e+00 -5.000e+00 -5.000e+00 -5.000e+00 -5.000e+00 -5.000e+00 -5.000e+00 -5.000e+00 -5.000e+00 -5.000e+00 -5.000e+00 -5.000e+00 -5.000e+00 -5.000e+00 -5.000e+00 -5.000e+00 -5.000e+00 -5.000e+00 -5.000e+00 -5.000e+00 -5.000e+00 -5.000e+00 -5.000e+00 -5.000e+00 -5.000e+00 -5.000e+00 -5.000e+00 -5.000e+00 -5.000e+00 -5.000e+00 -5.000e+00 -5.000e+00 -5.000e+00 -5.000e+00 -1.300e+01 -1.300e+01 -1.300e+01 -1.300e+01 -1.300e+01 -1.300e+01 -1.300e+01 -1.300e+01 -1.300e+01 -1.300e+01 -1.300e+01 -1.300e+01 -1.300e+01 -1.300e+01 -1.300e+01 -1.300e+01 -1.300e+01 -1.300e+01 -1.300e+01 -1.300e+01 -1.300e+01 -1.300e+01 -1.300e+01 -1.300e+01 -1.300e+01 -1.300e+01 -1.300e+01 -1.300e+01 -1.300e+01 -1.300e+01 -1.300e+01 -1.300e+01 -1.300e+01 -1.300e+01 -1.300e+01 -1.300e+01 -1.300e+01 -1.300e+01 -1.300e+01 -1.300e+01 -1.300e+01 -1.300e+01 -1.300e+01 -1.300e+01 -1.300e+01 -1.300e+01 -1.300e+01 -1.300e+01 -1.300e+01 -1.300e+01 -1.300e+01 -1.300e+01 -1.300e+01 -1.300e+01 -1.300e+01 -1.300e+01 -1.300e+01 -1.300e+01 -1.300e+01 -1.300e+01 -1.300e+01 -1.300e+01 -1.300e+01 -1.300e+01 -1.300e+01 -1.300e+01 -1.300e+01 -1.300e+01 -1.300e+01 -1.300e+01 -1.300e+01 -1.300e+01 -1.300e+01 -1.300e+01 -1.300e+01 -1.300e+01 -1.300e+01 -1.300e+01 -1.300e+01 -1.300e+01 -1.300e+01 -1.300e+01 -1.300e+01 -1.300e+01 -1.300e+01 -1.300e+01 -1.300e+01 -1.300e+01 -1.300e+01 -1.300e+01 -1.300e+01 -1.300e+01 -1.300e+01 -1.300e+01 -1.300e+01 -1.300e+01 -1.300e+01 -1.300e+01 -1.300e+01 -1.300e+01 -1.300e+01 -1.300e+01 -1.300e+01 -1.300e+01 -1.300e+01 -1.300e+01 -1.300e+01 -1.300e+01 -1.300e+01 -1.300e+01 -1.300e+01 -1.300e+01 -1.300e+01 -1.300e+01 -1.300e+01 -1.300e+01 -1.300e+01 -1.300e+01 -1.300e+01 -1.300e+01 -1.300e+01 -1.300e+01 -1.300e+01 -1.300e+01 -1.300e+01 -1.300e+01 -1.300e+01 -1.300e+01 -1.300e+01 -1.300e+01 -1.300e+01 -1.300e+01 -1.300e+01 -1.300e+01 -1.300e+01 -1.300e+01 -1.300e+01 -1.300e+01 -1.300e+01 -1.300e+01 -1.300e+01 -1.300e+01 -1.300e+01 -1.300e+01 -1.300e+01 -1.300e+01 -1.300e+01 -1.300e+01 -1.300e+01 -1.300e+01 -1.300e+01 -1.300e+01 -1.300e+01 -1.300e+01 -1.300e+01 -1.300e+01 -1.300e+01 -1.300e+01 -1.300e+01 -1.300e+01 -1.300e+01 -1.300e+01 -1.300e+01 -1.300e+01 -1.300e+01 -1.300e+01 -1.300e+01 -1.300e+01 -1.300e+01 -1.300e+01 -1.300e+01 -1.300e+01 -1.300e+01 -1.300e+01 -1.300e+01 -1.300e+01 -1.300e+01 -1.300e+01 -1.300e+01 -1.300e+01 -1.300e+01 -1.300e+01 -1.300e+01 -1.300e+01 -1.300e+01 -1.300e+01 -1.300e+01 -1.300e+01 -1.300e+01 -1.300e+01 -1.300e+01 -1.300e+01 -1.300e+01 -1.300e+01 -1.300e+01 -1.300e+01 -1.300e+01 -1.300e+01 -1.300e+01 -1.300e+01 -1.300e+01 -1.300e+01 -1.300e+01 -1.300e+01 -1.300e+01 -1.300e+01 -1.300e+01 -1.300e+01 -1.300e+01 -1.300e+01 -1.300e+01 -1.300e+01 -1.300e+01 -1.300e+01 -1.300e+01 -1.300e+01 -1.300e+01 -1.300e+01 -1.300e+01 -1.300e+01 -1.300e+01 -1.300e+01 -1.300e+01 -1.300e+01 -1.300e+01 -1.300e+01 -1.300e+01 -1.300e+01 -1.300e+01 -1.300e+01 -1.300e+01 -1.300e+01 -1.300e+01 -1.300e+01 -1.300e+01 -1.300e+01 -1.300e+01 -1.300e+01 -1.300e+01 -1.300e+01 -1.300e+01 -1.300e+01 -1.300e+01 -1.300e+01 -1.300e+01 -1.300e+01 -1.300e+01 -1.300e+01 -1.300e+01 -1.300e+01 -1.300e+01 -1.300e+01 -1.300e+01 -1.300e+01 -1.300e+01 -1.300e+01 -1.300e+01 -1.300e+01 -1.300e+01 -1.300e+01 -1.300e+01 -1.300e+01 -1.300e+01 -1.300e+01 -1.300e+01 -1.300e+01 -1.300e+01 -1.300e+01 -1.300e+01 -1.300e+01 -1.300e+01 -1.300e+01 -1.300e+01 -1.300e+01 -1.300e+01 -1.300e+01 -1.300e+01 -1.300e+01 -1.300e+01 -1.300e+01 -1.300e+01 -1.300e+01 -1.300e+01 -1.300e+01 -1.300e+01 -1.300e+01 -1.300e+01 -1.300e+01 -1.300e+01 -1.300e+01 -1.300e+01 -1.300e+01 -1.300e+01 -1.300e+01 -1.300e+01 -1.300e+01 -1.300e+01 -1.300e+01 -1.300e+01 -1.300e+01 -1.300e+01 -1.300e+01 -1.300e+01 -1.300e+01 -1.300e+01 -1.300e+01 -1.300e+01 -1.300e+01 -1.300e+01 -1.300e+01 -1.300e+01 -1.300e+01 -1.300e+01 -1.300e+01 -1.300e+01 -1.300e+01 -1.300e+01 -1.300e+01 -1.300e+01 -1.300e+01 -1.300e+01 -1.300e+01 -1.300e+01 -1.300e+01 -1.300e+01 -1.300e+01 -1.300e+01 -1.300e+01 -1.300e+01 -1.300e+01 -1.300e+01 -1.300e+01 -1.300e+01 -1.300e+01 -1.300e+01 -1.300e+01 -1.300e+01 -1.300e+01 -1.300e+01 -1.300e+01 -1.300e+01 -1.300e+01 -1.300e+01 -1.300e+01 -1.300e+01 -1.300e+01 -1.300e+01 -1.300e+01 -1.300e+01 -1.300e+01 -1.300e+01 -1.300e+01 -1.300e+01 -1.300e+01 -1.300e+01 -1.300e+01 -1.300e+01 -1.300e+01 -1.300e+01 -1.300e+01 -1.300e+01 -1.300e+01 -1.300e+01 -1.300e+01 -1.300e+01 -1.300e+01 -1.300e+01 -1.300e+01 -1.300e+01 -1.300e+01 -1.300e+01 -1.300e+01 -1.300e+01 -1.300e+01 -1.300e+01 -1.300e+01 -1.300e+01 -1.300e+01 -1.300e+01 -1.300e+01 -1.300e+01 -1.300e+01 -1.300e+01 -1.300e+01 -1.300e+01 -1.300e+01 -1.300e+01 -1.300e+01 -1.300e+01 -1.300e+01 -1.300e+01 -1.300e+01 -1.300e+01 -1.300e+01 -1.300e+01 -1.300e+01 -1.300e+01 -1.300e+01 -1.300e+01 -1.300e+01 -1.300e+01 -1.300e+01 -1.300e+01 -1.300e+01 -1.300e+01 -1.300e+01 -1.300e+01 -1.300e+01 -1.300e+01 -1.300e+01 -1.300e+01 -1.300e+01 -1.300e+01 -1.300e+01 -1.300e+01 -1.300e+01 -1.300e+01 -1.300e+01 -1.300e+01 -1.300e+01 -1.300e+01 -1.300e+01 -1.300e+01 -1.300e+01 -1.300e+01 -1.300e+01 -1.300e+01 -1.300e+01 -1.300e+01 -1.300e+01 -1.300e+01 -1.300e+01 -1.300e+01 -1.300e+01 -1.300e+01 -1.300e+01 -1.300e+01 -1.300e+01 -1.300e+01 -1.300e+01 -1.300e+01 -1.300e+01 -1.300e+01 -1.300e+01 -1.300e+01 -1.300e+01 -1.300e+01 -1.300e+01 -1.300e+01 -5.000e+00 -5.000e+00 -5.000e+00 -5.000e+00 -5.000e+00 -5.000e+00 -5.000e+00 -5.000e+00 -5.000e+00 -5.000e+00 -5.000e+00 -5.000e+00 -5.000e+00 -5.000e+00 -5.000e+00 -5.000e+00 -5.000e+00 -5.000e+00 -5.000e+00 -5.000e+00 -5.000e+00 -5.000e+00 -5.000e+00 -5.000e+00 -5.000e+00 -5.000e+00 -5.000e+00 -5.000e+00 -5.000e+00 -5.000e+00 -5.000e+00 -5.000e+00 -5.000e+00 -5.000e+00 -5.000e+00 -5.000e+00 -5.000e+00 -5.000e+00 -5.000e+00 -5.000e+00 -5.000e+00 -5.000e+00 -5.000e+00 -1.300e+01 -1.300e+01 -1.300e+01 -1.300e+01 -1.300e+01 -1.300e+01 -1.300e+01 -1.300e+01 -1.300e+01 -1.300e+01 -1.300e+01 -1.300e+01 -1.300e+01 -1.300e+01 -1.300e+01 -1.300e+01 -1.300e+01 -1.300e+01 -1.300e+01 -1.300e+01 -1.300e+01 -1.300e+01 -1.300e+01 -1.300e+01 -1.300e+01 -1.300e+01 -1.300e+01 -1.300e+01 -1.300e+01 -1.300e+01 -1.300e+01 -1.300e+01 -1.300e+01 -1.300e+01 -1.300e+01 -1.300e+01 -1.300e+01 -1.300e+01 -1.300e+01 -1.300e+01 -1.300e+01 -1.300e+01 -1.300e+01 -1.300e+01 -1.300e+01 -1.300e+01 -1.300e+01 -1.300e+01 -1.300e+01 -1.300e+01 -1.300e+01 -1.300e+01 -1.300e+01 -1.300e+01 -1.300e+01 -1.300e+01 -1.300e+01 -1.300e+01 -1.300e+01 -1.300e+01 -1.300e+01 -1.300e+01 -1.300e+01 -1.300e+01 -1.300e+01 -1.300e+01 -1.300e+01 -1.300e+01 -1.300e+01 -1.300e+01 -1.300e+01 -1.300e+01 -1.300e+01 -1.300e+01 -1.300e+01 -1.300e+01 -1.300e+01 -1.300e+01 -1.300e+01 -1.300e+01 -1.300e+01 -1.300e+01 -1.300e+01 -1.300e+01 -1.300e+01 -1.300e+01 -1.300e+01 -1.300e+01 -1.300e+01 -1.300e+01 -1.300e+01 -1.300e+01 -1.300e+01 -1.300e+01 -1.300e+01 -1.300e+01 -1.300e+01 -1.300e+01 -1.300e+01 -1.300e+01 -1.300e+01 -1.300e+01 -1.300e+01 -1.300e+01 -1.300e+01 -1.300e+01 -1.300e+01 -1.300e+01 -1.300e+01 -1.300e+01 -1.300e+01 -1.300e+01 -1.300e+01 -1.300e+01 -1.300e+01 -1.300e+01 -1.300e+01 -1.300e+01 -1.300e+01 -1.300e+01 -1.300e+01 -1.300e+01 -1.300e+01 -1.300e+01 -1.300e+01 -1.300e+01 -1.300e+01 -1.300e+01 -1.300e+01 -1.300e+01 -1.300e+01 -1.300e+01 -1.300e+01 -1.300e+01 -1.300e+01 -1.300e+01 -1.300e+01 -1.300e+01 -1.300e+01 -1.300e+01 -1.300e+01 -1.300e+01 -1.300e+01 -1.300e+01 -1.300e+01 -1.300e+01 -1.300e+01 -1.300e+01 -1.300e+01 -1.300e+01 -1.300e+01 -1.300e+01 -1.300e+01 -1.300e+01 -1.300e+01 -1.300e+01 -1.300e+01 -1.300e+01 -1.300e+01 -1.300e+01 -1.300e+01 -1.300e+01 -1.300e+01 -1.300e+01 -1.300e+01 -1.300e+01 -1.300e+01 -1.300e+01 -1.300e+01 -1.300e+01 -1.300e+01 -1.300e+01 -1.300e+01 -1.300e+01 -1.300e+01 -1.300e+01 -1.300e+01 -1.300e+01 -1.300e+01 -1.300e+01 -1.300e+01 -1.300e+01 -1.300e+01 -1.300e+01 -1.300e+01 -1.300e+01 -1.300e+01 -1.300e+01 -1.300e+01 -1.300e+01 -1.300e+01 -1.300e+01 -1.300e+01 -1.300e+01 -1.300e+01 -1.300e+01 -1.300e+01 -1.300e+01 -1.300e+01 -1.300e+01 -1.300e+01 -1.300e+01 -1.300e+01 -1.300e+01 -1.300e+01 -1.300e+01 -1.300e+01 -1.300e+01 -1.300e+01 -1.300e+01 -1.300e+01 -1.300e+01 -1.300e+01 -1.300e+01 -1.300e+01 -1.300e+01 -1.300e+01 -1.300e+01 -1.300e+01 -1.300e+01 -1.300e+01 -1.300e+01 -1.300e+01 -1.300e+01 -1.300e+01 -1.300e+01 -1.300e+01 -1.300e+01 -1.300e+01 -1.300e+01 -1.300e+01 -1.300e+01 -1.300e+01 -1.300e+01 -1.300e+01 -1.300e+01 -1.300e+01 -1.300e+01 -1.300e+01 -1.300e+01 -1.300e+01 -1.300e+01 -1.300e+01 -1.300e+01 -1.300e+01 -1.300e+01 -1.300e+01 -1.300e+01 -1.300e+01 -1.300e+01 -1.300e+01 -1.300e+01 -1.300e+01 -1.300e+01 -1.300e+01 -1.300e+01 -1.300e+01 -1.300e+01 -1.300e+01 -1.300e+01 -1.300e+01 -1.300e+01 -1.300e+01 -1.300e+01 -1.300e+01 -1.300e+01 -1.300e+01 -1.300e+01 -1.300e+01 -1.300e+01 -1.300e+01 -1.300e+01 -1.300e+01 -1.300e+01 -1.300e+01 -1.300e+01 -1.300e+01 -1.300e+01 -1.300e+01 -1.300e+01 -1.300e+01 -1.300e+01 -1.300e+01 -1.300e+01 -1.300e+01 -1.300e+01 -1.300e+01 -1.300e+01 -1.300e+01 -1.300e+01 -1.300e+01 -1.300e+01 -1.300e+01 -1.300e+01 -1.300e+01 -1.300e+01 -1.300e+01 -1.300e+01 -1.300e+01 -1.300e+01 -1.300e+01 -1.300e+01 -1.300e+01 -1.300e+01 -1.300e+01 -1.300e+01 -1.300e+01 -1.300e+01 -1.300e+01 -1.300e+01 -1.300e+01 -1.300e+01 -1.300e+01 -1.300e+01 -1.300e+01 -1.300e+01 -1.300e+01 -1.300e+01 -1.300e+01 -1.300e+01 -1.300e+01 -1.300e+01 -1.300e+01 -1.300e+01 -1.300e+01 -1.300e+01 -1.300e+01 -1.300e+01 -1.300e+01 -1.300e+01 -1.300e+01 -1.300e+01 -1.300e+01 -1.300e+01 -1.300e+01 -1.300e+01 -1.300e+01 -1.300e+01 -1.300e+01 -1.300e+01