<?xml version="1.0"?>
<VTKFile type="UnstructuredGrid" version="0.1" byte_order="LittleEndian">
   <UnstructuredGrid>
      <Piece NumberOfPoints="22370" NumberOfCells="1567">
         <Points>
            <DataArray type="Float32" Name="Position" NumberOfComponents="3" format="ascii">
0.036	-5.031	-0.153
0.041	-5.032	-0.144
0.039	-5.032	-0.135
0.033	-5.033	-0.129
0.024	-5.033	-0.127
0.015	-5.033	-0.131
0.011	-5.032	-0.139
0.012	-5.032	-0.148
0.019	-5.031	-0.155
0.028	-5.031	-0.157
0.030	-5.900	-0.201
0.035	-5.900	-0.193
0.034	-5.900	-0.183
0.027	-5.900	-0.177
0.018	-5.901	-0.175
0.010	-5.901	-0.179
0.005	-5.901	-0.187
0.007	-5.901	-0.196
0.013	-5.901	-0.203
0.022	-5.900	-0.205
0.129	-6.742	-0.155
0.133	-6.741	-0.147
0.131	-6.740	-0.137
0.125	-6.740	-0.131
0.116	-6.740	-0.129
0.108	-6.742	-0.134
0.103	-6.743	-0.142
0.105	-6.744	-0.151
0.112	-6.744	-0.157
0.121	-6.743	-0.159
0.160	-7.040	-0.103
0.164	-7.038	-0.094
0.162	-7.037	-0.085
0.155	-7.037	-0.079
0.146	-7.037	-0.078
0.138	-7.039	-0.082
0.134	-7.041	-0.090
0.136	-7.042	-0.099
0.142	-7.042	-0.106
0.152	-7.042	-0.107
0.051	-5.102	-0.266
0.048	-5.094	-0.262
0.046	-5.085	-0.264
0.047	-5.078	-0.271
0.049	-5.077	-0.280
0.052	-5.081	-0.288
0.055	-5.089	-0.291
0.056	-5.098	-0.289
0.056	-5.105	-0.282
0.054	-5.106	-0.273
-0.755	-5.283	-0.495
-0.758	-5.276	-0.491
-0.760	-5.267	-0.492
-0.760	-5.260	-0.498
-0.759	-5.258	-0.507
-0.756	-5.261	-0.515
-0.753	-5.269	-0.519
-0.751	-5.278	-0.518
-0.750	-5.285	-0.512
-0.752	-5.287	-0.503
-1.560	-5.551	-0.655
-1.564	-5.545	-0.649
-1.568	-5.536	-0.648
-1.571	-5.529	-0.653
-1.571	-5.525	-0.662
-1.569	-5.527	-0.671
-1.565	-5.533	-0.677
-1.561	-5.541	-0.677
-1.558	-5.549	-0.672
-1.558	-5.553	-0.664
-1.971	-5.776	-0.711
-1.963	-5.777	-0.708
-1.954	-5.776	-0.711
-1.948	-5.774	-0.718
-1.948	-5.772	-0.727
-1.954	-5.770	-0.735
-1.963	-5.769	-0.737
-1.971	-5.770	-0.735
-1.977	-5.772	-0.727
-1.977	-5.774	-0.718
0.304	-5.894	-1.331
0.304	-5.888	-1.324
0.302	-5.888	-1.315
0.300	-5.893	-1.307
0.297	-5.901	-1.304
0.296	-5.910	-1.307
0.296	-5.916	-1.314
0.298	-5.916	-1.324
0.300	-5.911	-1.331
0.302	-5.903	-1.334
1.139	-6.071	-1.173
1.139	-6.066	-1.165
1.137	-6.066	-1.156
1.135	-6.071	-1.149
1.133	-6.079	-1.146
1.131	-6.088	-1.149
1.132	-6.094	-1.156
1.133	-6.094	-1.165
1.135	-6.089	-1.173
1.138	-6.080	-1.175
2.008	-6.234	-1.042
2.007	-6.229	-1.035
2.006	-6.229	-1.026
2.004	-6.235	-1.018
2.003	-6.243	-1.016
2.002	-6.252	-1.019
2.003	-6.257	-1.027
2.004	-6.257	-1.036
2.006	-6.251	-1.043
2.007	-6.243	-1.045
2.134	-6.236	-1.025
2.133	-6.231	-1.017
2.132	-6.231	-1.008
2.131	-6.237	-1.001
2.130	-6.246	-0.998
2.130	-6.255	-1.002
2.131	-6.260	-1.010
2.133	-6.259	-1.019
2.134	-6.253	-1.026
2.134	-6.244	-1.028
0.332	-6.004	-1.430
0.331	-5.998	-1.423
0.329	-5.997	-1.414
0.327	-6.002	-1.406
0.325	-6.011	-1.403
0.324	-6.020	-1.406
0.325	-6.025	-1.413
0.327	-6.026	-1.422
0.329	-6.021	-1.429
0.331	-6.012	-1.432
1.171	-6.137	-1.238
1.170	-6.131	-1.232
1.167	-6.130	-1.223
1.164	-6.134	-1.215
1.162	-6.142	-1.212
1.162	-6.151	-1.214
1.163	-6.158	-1.221
1.166	-6.159	-1.230
1.169	-6.154	-1.237
1.171	-6.146	-1.240
1.965	-6.199	-0.906
1.963	-6.191	-0.901
1.959	-6.189	-0.893
1.954	-6.191	-0.885
1.951	-6.199	-0.881
1.950	-6.208	-0.881
1.953	-6.216	-0.886
1.957	-6.218	-0.894
1.962	-6.216	-0.901
1.965	-6.208	-0.906
2.015	-6.205	-0.867
2.013	-6.197	-0.863
2.008	-6.192	-0.857
2.003	-6.194	-0.850
1.998	-6.200	-0.845
1.997	-6.209	-0.844
1.999	-6.218	-0.847
2.004	-6.222	-0.854
2.010	-6.220	-0.861
2.014	-6.214	-0.866
0.349	-6.132	-1.502
0.347	-6.124	-1.500
0.347	-6.115	-1.504
0.349	-6.110	-1.511
0.353	-6.110	-1.520
0.357	-6.116	-1.526
0.359	-6.124	-1.528
0.359	-6.133	-1.524
0.357	-6.138	-1.517
0.353	-6.138	-1.508
-0.441	-6.298	-1.858
-0.446	-6.290	-1.856
-0.448	-6.281	-1.858
-0.447	-6.275	-1.865
-0.444	-6.274	-1.874
-0.439	-6.278	-1.881
-0.435	-6.286	-1.883
-0.432	-6.294	-1.881
-0.433	-6.300	-1.874
-0.437	-6.302	-1.865
-1.098	-6.688	-2.171
-1.103	-6.682	-2.166
-1.108	-6.674	-2.167
-1.109	-6.667	-2.172
-1.107	-6.664	-2.181
-1.103	-6.665	-2.189
-1.097	-6.671	-2.193
-1.093	-6.679	-2.192
-1.091	-6.686	-2.187
-1.093	-6.690	-2.179
0.365	-6.228	-1.609
0.374	-6.225	-1.609
0.383	-6.227	-1.607
0.389	-6.234	-1.605
0.389	-6.244	-1.604
0.384	-6.251	-1.604
0.375	-6.255	-1.605
0.366	-6.252	-1.607
0.361	-6.245	-1.609
0.360	-6.236	-1.609
0.495	-6.313	-2.451
0.504	-6.310	-2.449
0.512	-6.313	-2.447
0.517	-6.321	-2.445
0.517	-6.330	-2.444
0.512	-6.337	-2.444
0.503	-6.340	-2.445
0.495	-6.338	-2.448
0.489	-6.330	-2.450
0.490	-6.321	-2.451
0.687	-6.432	-3.136
0.696	-6.429	-3.134
0.704	-6.432	-3.132
0.709	-6.439	-3.129
0.708	-6.449	-3.127
0.703	-6.456	-3.128
0.694	-6.459	-3.130
0.686	-6.456	-3.133
0.681	-6.448	-3.135
0.681	-6.439	-3.137
0.410	-6.371	-1.694
0.412	-6.364	-1.687
0.409	-6.357	-1.682
0.402	-6.351	-1.681
0.394	-6.349	-1.684
0.387	-6.352	-1.689
0.384	-6.358	-1.696
0.387	-6.366	-1.700
0.394	-6.371	-1.702
0.403	-6.373	-1.699
0.116	-6.875	-1.076
0.119	-6.868	-1.070
0.116	-6.860	-1.066
0.109	-6.854	-1.065
0.101	-6.852	-1.068
0.094	-6.854	-1.074
0.091	-6.861	-1.080
0.094	-6.869	-1.084
0.101	-6.875	-1.085
0.109	-6.877	-1.081
-0.240	-7.189	-0.520
-0.238	-7.182	-0.514
-0.240	-7.173	-0.511
-0.246	-7.167	-0.511
-0.254	-7.164	-0.515
-0.261	-7.167	-0.521
-0.264	-7.174	-0.526
-0.262	-7.182	-0.530
-0.255	-7.189	-0.529
-0.247	-7.191	-0.525
0.424	-6.476	-1.785
0.425	-6.471	-1.777
0.424	-6.471	-1.768
0.422	-6.476	-1.761
0.420	-6.485	-1.758
0.419	-6.494	-1.761
0.419	-6.499	-1.769
0.420	-6.499	-1.778
0.422	-6.493	-1.786
0.423	-6.484	-1.788
1.288	-6.616	-1.699
1.289	-6.611	-1.692
1.288	-6.611	-1.683
1.286	-6.617	-1.675
1.284	-6.626	-1.673
1.283	-6.634	-1.676
1.282	-6.639	-1.684
1.283	-6.639	-1.693
1.285	-6.634	-1.700
1.287	-6.625	-1.703
2.040	-6.824	-1.636
2.044	-6.824	-1.627
2.042	-6.824	-1.618
2.036	-6.824	-1.612
2.027	-6.824	-1.610
2.018	-6.824	-1.614
2.014	-6.824	-1.623
2.016	-6.824	-1.632
2.022	-6.824	-1.638
2.031	-6.824	-1.640
0.445	-6.601	-1.863
0.446	-6.596	-1.855
0.446	-6.597	-1.846
0.445	-6.603	-1.839
0.444	-6.612	-1.837
0.442	-6.621	-1.840
0.442	-6.625	-1.848
0.442	-6.624	-1.857
0.442	-6.618	-1.864
0.444	-6.609	-1.866
1.284	-6.734	-1.875
1.286	-6.730	-1.867
1.286	-6.731	-1.858
1.286	-6.738	-1.851
1.285	-6.747	-1.850
1.284	-6.755	-1.854
1.282	-6.759	-1.862
1.282	-6.758	-1.871
1.282	-6.751	-1.878
1.283	-6.742	-1.879
2.040	-6.810	-2.018
2.042	-6.806	-2.010
2.044	-6.808	-2.001
2.044	-6.814	-1.994
2.043	-6.824	-1.993
2.042	-6.832	-1.997
2.040	-6.835	-2.006
2.038	-6.834	-2.015
2.038	-6.827	-2.021
2.038	-6.818	-2.022
0.469	-6.749	-1.920
0.463	-6.744	-1.915
0.459	-6.736	-1.915
0.457	-6.728	-1.921
0.458	-6.724	-1.929
0.462	-6.726	-1.937
0.468	-6.731	-1.942
0.472	-6.739	-1.942
0.474	-6.747	-1.937
0.473	-6.750	-1.928
-0.243	-7.165	-2.225
-0.249	-7.159	-2.221
-0.255	-7.152	-2.222
-0.258	-7.146	-2.229
-0.257	-7.144	-2.238
-0.253	-7.146	-2.246
-0.247	-7.152	-2.250
-0.241	-7.160	-2.248
-0.238	-7.165	-2.241
-0.239	-7.168	-2.232
-0.834	-7.817	-2.278
-0.841	-7.811	-2.277
-0.847	-7.806	-2.282
-0.850	-7.804	-2.290
-0.849	-7.805	-2.299
-0.844	-7.810	-2.306
-0.837	-7.816	-2.307
-0.830	-7.821	-2.302
-0.827	-7.823	-2.294
-0.828	-7.822	-2.285
-0.987	-7.976	-2.264
-0.979	-7.972	-2.264
-0.970	-7.974	-2.264
-0.964	-7.980	-2.264
-0.962	-7.989	-2.264
-0.966	-7.998	-2.264
-0.975	-8.002	-2.264
-0.984	-8.000	-2.264
-0.990	-7.994	-2.264
-0.992	-7.985	-2.264
0.477	-6.854	-2.006
0.486	-6.850	-2.006
0.495	-6.852	-2.005
0.501	-6.859	-2.004
0.502	-6.868	-2.004
0.497	-6.876	-2.003
0.489	-6.880	-2.004
0.480	-6.878	-2.004
0.473	-6.871	-2.005
0.473	-6.862	-2.006
0.531	-6.915	-2.878
0.539	-6.911	-2.879
0.548	-6.912	-2.880
0.555	-6.918	-2.881
0.556	-6.928	-2.880
0.552	-6.936	-2.879
0.544	-6.940	-2.878
0.535	-6.939	-2.877
0.528	-6.932	-2.877
0.527	-6.923	-2.877
0.390	-6.958	-3.387
0.397	-6.953	-3.389
0.406	-6.953	-3.392
0.413	-6.959	-3.393
0.416	-6.968	-3.393
0.413	-6.977	-3.392
0.406	-6.982	-3.389
0.397	-6.981	-3.387
0.389	-6.976	-3.385
0.387	-6.967	-3.385
0.521	-7.002	-2.081
0.524	-6.998	-2.074
0.520	-6.992	-2.067
0.513	-6.987	-2.065
0.504	-6.985	-2.067
0.497	-6.987	-2.073
0.495	-6.991	-2.081
0.498	-6.997	-2.087
0.506	-7.002	-2.089
0.515	-7.004	-2.087
0.270	-7.637	-1.604
0.271	-7.632	-1.597
0.268	-7.626	-1.591
0.261	-7.620	-1.590
0.253	-7.617	-1.594
0.247	-7.618	-1.600
0.245	-7.623	-1.608
0.249	-7.630	-1.614
0.256	-7.636	-1.615
0.264	-7.639	-1.611
-0.185	-8.045	-1.263
-0.181	-8.045	-1.254
-0.182	-8.045	-1.245
-0.189	-8.045	-1.239
-0.198	-8.045	-1.237
-0.206	-8.045	-1.242
-0.210	-8.045	-1.250
-0.209	-8.045	-1.259
-0.202	-8.045	-1.266
-0.193	-8.045	-1.267
0.087	-5.166	-0.415
0.091	-5.165	-0.407
0.089	-5.165	-0.398
0.082	-5.164	-0.392
0.073	-5.164	-0.390
0.065	-5.165	-0.395
0.061	-5.166	-0.403
0.063	-5.166	-0.412
0.069	-5.167	-0.418
0.079	-5.166	-0.420
0.105	-6.001	-0.354
0.109	-6.001	-0.345
0.107	-6.001	-0.336
0.101	-6.000	-0.330
0.091	-6.000	-0.328
0.083	-6.000	-0.333
0.079	-6.000	-0.341
0.081	-6.000	-0.350
0.088	-6.001	-0.357
0.097	-6.001	-0.358
0.041	-6.860	-0.390
0.045	-6.861	-0.382
0.043	-6.861	-0.373
0.036	-6.861	-0.367
0.027	-6.860	-0.365
0.019	-6.859	-0.370
0.015	-6.858	-0.378
0.017	-6.858	-0.387
0.023	-6.858	-0.394
0.033	-6.859	-0.395
-0.006	-7.325	-0.417
-0.002	-7.326	-0.408
-0.003	-7.326	-0.399
-0.010	-7.326	-0.393
-0.019	-7.325	-0.392
-0.027	-7.324	-0.396
-0.031	-7.323	-0.404
-0.030	-7.323	-0.414
-0.023	-7.323	-0.420
-0.014	-7.324	-0.421
0.537	-7.118	-2.160
0.538	-7.112	-2.153
0.536	-7.111	-2.144
0.533	-7.115	-2.137
0.529	-7.123	-2.133
0.526	-7.131	-2.136
0.526	-7.137	-2.143
0.528	-7.139	-2.152
0.531	-7.134	-2.159
0.535	-7.127	-2.163
1.315	-7.415	-1.967
1.316	-7.409	-1.960
1.315	-7.408	-1.950
1.312	-7.413	-1.943
1.308	-7.420	-1.940
1.304	-7.429	-1.942
1.303	-7.434	-1.949
1.305	-7.435	-1.959
1.308	-7.431	-1.966
1.312	-7.424	-1.969
2.082	-7.798	-1.838
2.084	-7.793	-1.831
2.082	-7.792	-1.822
2.079	-7.796	-1.814
2.075	-7.803	-1.811
2.071	-7.812	-1.814
2.070	-7.817	-1.821
2.071	-7.818	-1.830
2.074	-7.814	-1.838
2.078	-7.806	-1.841
[...]
         <CellData>
           <DataArray type="Float32" Name="combinedRootClassID" NumberOfComponents="1" format="ascii">
 -1.300e+01 -1.300e+01 -1.300e+01 -1.300e+01 -1.300e+01 -1.300e+01 -1.300e+01 -1.300e+01 -1.300e+01 -1.300e+01 -1.300e+01 -1.300e+01 -1.300e+01 -1.300e+01 -1.300e+01 -1.300e+01 -1.300e+01 -1.300e+01 -1.300e+01 -1.300e+01 -1.300e+01 -1.300e+01 -1.300e+01 -1.300e+01 -1.300e+01 -1.300e+01 -1.300e+01 -1.300e+01 -1.300e+01 -1.300e+01 -1.300e+01 -1.300e+01 -1.300e+01 -1.300e+01 -1.300e+01 -1.300e+01 -1.300e+01 -1.300e+01 -1.300e+01 -1.300e+01 -1.300e+01 -1.300e+01 -1.300e+01 -1.300e+01 -1.300e+01 -1.300e+01 -1.300e+01 -1.300e+01 -1.300e+01 -1.300e+01 -1.300e+01 -1.300e+01 -1.300e+01 -1.300e+01 -1.300e+01 -1.300e+01 -1.300e+01 -1.300e+01 -1.300e+01 -1.300e+01 -1.300e+01 -1.300e+01 -1.300e+01 -1.300e+01 -1.300e+01 -1.300e+01 -1.300e+01 -1.300e+01 -1.300e+01 -1.300e+01 -1.300e+01 -1.300e+01 -1.300e+01 -1.300e+01 -1.300e+01 -1.300e+01 -1.300e+01 -1.300e+01 -1.300e+01 -1.300e+01 -1.300e+01 -1.300e+01 -1.300e+01 -1.300e+01 -1.300e+01 -1.300e+01 -1.300e+01 -1.300e+01 -1.300e+01 -1.300e+01 -1.300e+01 -1.300e+01 -1.300e+01 -1.300e+01 -1.300e+01 -1.300e+01 -1.300e+01 -1.300e+01 -1.300e+01 -1.300e+01 -1.300e+01 -1.300e+01 -1.300e+01 -1.300e+01 -1.300e+01 -1.300e+01 -1.300e+01 -1.300e+01 -1.300e+01 -1.300e+01 -1.300e+01 -1.300e+01 -1.300e+01 -1.300e+01 -1.300e+01 -1.300e+01 -1.300e+01 -1.300e+01 -1.300e+01 -1.300e+01 -1.300e+01 -1.300e+01 -1.300e+01 -1.300e+01 -1.300e+01 -1.300e+01 -1.300e+01 -1.300e+01 -1.300e+01 -1.300e+01 -1.300e+01 -1.300e+01 -1.300e+01 -1.300e+01 -1.300e+01 -1.300e+01 -1.300e+01 -1.300e+01 -1.300e+01 -1.300e+01 -1.300e+01 -1.300e+01 -1.300e+01 -1.300e+01 -1.300e+01 -1.300e+01 -1.300e+01 -1.300e+01 -1.300e+01 -1.300e+01 -1.300e+01 -1.300e+01 -5.000e+00 -5.000e+00 -5.000e+00 -5.000e+00 -5.000e+00 -5.000e+00 -5.000e+00 -5.000e+00 -5.000e+00 -5.000e+00 -5.000e+00 -5.000e+00 -5.000e+00 -5.000e+00 -5.000e+00 -5.000e+00 -5.000e+00 -5.000e+00 -5.000e+00 -5.000e+00 -5.000e+00 -5.000e+00 -5.000e+00 -5.000e+00 -5.000e+00 -5.000e+00 -5.000e+00 -5.000e+00 -1.300e+01 -1.300e+01 -1.300e+01 -1.300e+01 -1.300e+01 -1.300e+01 -1.300e+01 -1.300e+01 -1.300e+01 -1.300e+01 -1.300e+01 -1.300e+01 -1.300e+01 -1.300e+01 -1.300e+01 -1.300e+01 -1.300e+01 -1.300e+01 -1.300e+01 -1.300e+01 -1.300e+01 -1.300e+01 -1.300e+01 -1.300e+01 -1.300e+01 -1.300e+01 -1.300e+01 -1.300e+01 -1.300e+01 -1.300e+01 -1.300e+01 -1.300e+01 -1.300e+01 -1.300e+01 -1.300e+01 -1.300e+01 -1.300e+01 -1.300e+01 -1.300e+01 -1.300e+01 -1.300e+01 -1.300e+01 -1.300e+01 -1.300e+01 -1.300e+01 -1.300e+01 -1.300e+01 -1.300e+01 -1.300e+01 -1.300e+01 -1.300e+01 -1.300e+01 -1.300e+01 -1.300e+01 -1.300e+01 -1.300e+01 -1.300e+01 -1.300e+01 -1.300e+01 -1.300e+01 -1.300e+01 -1.300e+01 -1.300e+01 -1.300e+01 -1.300e+01 -1.300e+01 -1.300e+01 -1.300e+01 -1.300e+01 -1.300e+01 -1.300e+01 -1.300e+01 -1.300e+01 -1.300e+01 -1.300e+01 -1.300e+01 -1.300e+01 -1.300e+01 -1.300e+01 -1.300e+01 -1.300e+01 -1.300e+01 -1.300e+01 -1.300e+01 -1.300e+01 -1.300e+01 -1.300e+01 -1.300e+01 -1.300e+01 -1.300e+01 -1.300e+01 -1.300e+01 -1.300e+01 -1.300e+01 -1.300e+01 -1.300e+01 -1.300e+01 -1.300e+01 -1.300e+01 -1.300e+01 -1.300e+01 -1.300e+01 -1.300e+01 -1.300e+01 -1.300e+01 -1.300e+01 -1.300e+01 -1.300e+01 -1.300e+01 -1.300e+01 -1.300e+01 -1.300e+01 -1.300e+01 -1.300e+01 -1.300e+01 -1.300e+01 -1.300e+01 -1.300e+01 -1.300e+01 -1.300e+01 -1.300e+01 -1.300e+01 -1.300e+01 -1.300e+01 -1.300e+01 -1.300e+01 -1.300e+01 -1.300e+01 -1.300e+01 -1.300e+01 -1.300e+01 -1.300e+01 -1.300e+01 -1.300e+01 -1.300e+01 -1.300e+01 -1.300e+01 -1.300e+01 -1.300e+01 -1.300e+01 -1.300e+01 -1.300e+01 -1.300e+01 -1.300e+01 -1.300e+01 -1.300e+01 -1.300e+01 -1.300e+01 -1.300e+01 -1.300e+01 -1.300e+01 -1.300e+01 -1.300e+01 -1.300e+01 -5.000e+00 -5.000e+00 -5.000e+00 -5.000e+00 -5.000e+00 -5.000e+00 -5.000e+00 -5.000e+00 -5.000e+00 -5.000e+00 -5.000e+00 -5.000e+00 -5.000e+00 -5.000e+00 -5.000e+00 -5.000e+00 -5.000e+00 -5.000e+00 -5.000e+00 -5.000e+00 -5.000e+00 -5.000e+00 -5.000e+00 -5.000e+00 -5.000e+00 -5.000e+00 -5.000e+00 -5.000e+00 -1.300e+01 -1.300e+01 -1.300e+01 -1.300e+01 -1.300e+01 -1.300e+01 -1.300e+01 -1.300e+01 -1.300e+01 -1.300e+01 -1.300e+01 -1.300e+01 -1.300e+01 -1.300e+01 -1.300e+01 -1.300e+01 -1.300e+01 -1.300e+01 -1.300e+01 -1.300e+01 -1.300e+01 -1.300e+01 -1.300e+01 -1.300e+01 -1.300e+01 -1.300e+01 -1.300e+01 -1.300e+01 -1.300e+01 -1.300e+01 -1.300e+01 -1.300e+01 -1.300e+01 -1.300e+01 -1.300e+01 -1.300e+01 -1.300e+01 -1.300e+01 -1.300e+01 -1.300e+01 -1.300e+01 -1.300e+01 -1.300e+01 -1.300e+01 -1.300e+01 -1.300e+01 -1.300e+01 -1.300e+01 -1.300e+01 -1.300e+01 -1.300e+01 -1.300e+01 -1.300e+01 -1.300e+01 -1.300e+01 -1.300e+01 -1.300e+01 -1.300e+01 -1.300e+01 -1.300e+01 -1.300e+01 -1.300e+01 -1.300e+01 -1.300e+01 -1.300e+01 -1.300e+01 -1.300e+01 -1.300e+01 -1.300e+01 -1.300e+01 -1.300e+01 -1.300e+01 -1.300e+01 -1.300e+01 -1.300e+01 -1.300e+01 -1.300e+01 -1.300e+01 -1.300e+01 -1.300e+01 -1.300e+01 -1.300e+01 -1.300e+01 -1.300e+01 -1.300e+01 -1.300e+01 -1.300e+01 -1.300e+01 -1.300e+01 -1.300e+01 -1.300e+01 -1.300e+01 -1.300e+01 -1.300e+01 -1.300e+01 -1.300e+01 -1.300e+01 -1.300e+01 -1.300e+01 -1.300e+01 -1.300e+01 -1.300e+01 -1.300e+01 -1.300e+01 -1.300e+01 -1.300e+01 -1.300e+01 -1.300e+01 -1.300e+01 -1.300e+01 -1.300e+01 -1.300e+01 -1.300e+01 -1.300e+01 -1.300e+01 -1.300e+01 -1.300e+01 -1.300e+01 -1.300e+01 -1.300e+01 -1.300e+01 -1.300e+01 -1.300e+01 -1.300e+01 -1.300e+01 -1.300e+01 -1.300e+01 -1.300e+01 -1.300e+01 -1.300e+01 -1.300e+01 -1.300e+01 -1.300e+01 -1.300e+01 -1.300e+01 -1.300e+01 -1.300e+01 -1.300e+01 -1.300e+01 -1.300e+01 -1.300e+01 -1.300e+01 -1.300e+01 -1.300e+01 -1.300e+01 -1.300e+01 -1.300e+01 -1.300e+01 -1.300e+01 -1.300e+01 -1.300e+01 -5.000e+00 -5.000e+00 -5.000e+00 -5.000e+00 -5.000e+00 -5.000e+00 -5.000e+00 -5.000e+00 -5.000e+00 -5.000e+00 -5.000e+00 -5.000e+00 -5.000e+00 -5.000e+00 -5.000e+00 -5.000e+00 -5.000e+00 -5.000e+00 -5.000e+00 -5.000e+00 -5.000e+00 -5.000e+00 -5.000e+00 -5.000e+00 -5.000e+00 -5.000e+00 -5.000e+00 -5.000e+00 -1.300e+01 -1.300e+01 -1.300e+01 -1.300e+01 -1.300e+01 -1.300e+01 -1.300e+01 -1.300e+01 -1.300e+01 -1.300e+01 -1.300e+01 -1.300e+01 -1.300e+01 -1.300e+01 -1.300e+01 -1.300e+01 -1.300e+01 -1.300e+01 -1.300e+01 -1.300e+01 -1.300e+01 -1.300e+01 -1.300e+01 -1.300e+01 -1.300e+01 -1.300e+01 -1.300e+01 -1.300e+01 -1.300e+01 -1.300e+01 -1.300e+01 -1.300e+01 -1.300e+01 -1.300e+01 -1.300e+01 -1.300e+01 -1.300e+01 -1.300e+01 -1.300e+01 -1.300e+01 -1.300e+01 -1.300e+01 -1.300e+01 -1.300e+01 -1.300e+01 -1.300e+01 -1.300e+01 -1.300e+01 -1.300e+01 -1.300e+01 -1.300e+01 -1.300e+01 -1.300e+01 -1.300e+01 -1.300e+01 -1.300e+01 -1.300e+01 -1.300e+01 -1.300e+01 -1.300e+01 -1.300e+01 -1.300e+01 -1.300e+01 -1.300e+01 -1.300e+01 -1.300e+01 -1.300e+01 -1.300e+01 -1.300e+01 -1.300e+01 -1.300e+01 -1.300e+01 -1.300e+01 -1.300e+01 -1.300e+01 -1.300e+01 -1.300e+01 -1.300e+01 -1.300e+01 -1.300e+01 -1.300e+01 -1.300e+01 -1.300e+01 -1.300e+01 -1.300e+01 -1.300e+01 -1.300e+01 -1.300e+01 -1.300e+01 -1.300e+01 -1.300e+01 -1.300e+01 -1.300e+01 -1.300e+01 -1.300e+01 -1.300e+01 -1.300e+01 -1.300e+01 -1.300e+01 -1.300e+01 -1.300e+01 -1.300e+01 -1.300e+01 -1.300e+01 -1.300e+01 -1.300e+01 -1.300e+01 -1.300e+01 -1.300e+01 -1.300e+01 -1.300e+01 -1.300e+01 -1.300e+01 -1.300e+01 -1.300e+01 -1.300e+01 -1.300e+01 -1.300e+01 -1.300e+01 -1.300e+01 -1.300e+01 -1.300e+01 -1.300e+01 -1.300e+01 -1.300e+01 -1.300e+01 -1.300e+01 -1.300e+01 -1.300e+01 -1.300e+01 -1.300e+01 -1.300e+01 -1.300e+01 -1.300e+01 -1.300e+01 -1.300e+01 -1.300e+01 -1.300e+01 -1.300e+01 -1.300e+01 -1.300e+01 -1.300e+01 -1.300e+01 -1.300e+01 -1.300e+01 -1.300e+01 -1.300e+01 -1.300e+01 -1.300e+01 -1.300e+01 -1.300e+01 -1.300e+01 -5.000e+00 -5.000e+00 -5.000e+00 -5.000e+00 -5.000e+00 -5.000e+00 -5.000e+00 -5.000e+00 -5.000e+00 -5.000e+00 -5.000e+00 -5.000e+00 -5.000e+00 -5.000e+00 -5.000e+00 -5.000e+00 -5.000e+00 -5.000e+00 -5.000e+00 -5.000e+00 -5.000e+00 -5.000e+00 -5.000e+00 -5.000e+00 -5.000e+00 -5.000e+00 -5.000e+00 -5.000e+00 -1.900e+01 -1.900e+01 -1.900e+01 -1.900e+01 -1.900e+01 -1.900e+01 -1.900e+01 -1.900e+01 -1.900e+01 -1.900e+01 -1.900e+01 -1.900e+01 -1.900e+01 -1.900e+01 -1.900e+01 -1.900e+01 -1.900e+01 -1.900e+01 -1.900e+01 -1.900e+01 -1.100e+01 -1.100e+01 -1.100e+01 -1.100e+01 -1.100e+01 -1.100e+01 -1.100e+01 -1.100e+01 -1.100e+01 -1.100e+01 -1.100e+01 -1.100e+01 -1.100e+01 -1.100e+01 -1.100e+01 -1.100e+01 -1.100e+01 -1.900e+01 -1.900e+01 -1.900e+01 -1.900e+01 -1.900e+01 -1.900e+01 -1.900e+01 -1.900e+01 -1.900e+01 -1.900e+01 -1.900e+01 -1.900e+01 -1.900e+01 -1.900e+01 -1.900e+01 -1.900e+01 -1.900e+01 -1.900e+01 -1.900e+01 -1.900e+01 -1.100e+01 -1.100e+01 -1.100e+01 -1.100e+01 -1.100e+01 -1.100e+01 -1.100e+01 -1.100e+01 -1.100e+01 -1.100e+01 -1.100e+01 -1.100e+01 -1.100e+01 -1.100e+01 -1.100e+01 -1.100e+01 -1.100e+01 -1.900e+01 -1.900e+01 -1.900e+01 -1.900e+01 -1.900e+01 -1.900e+01 -1.900e+01 -1.900e+01 -1.900e+01 -1.900e+01 -1.900e+01 -1.900e+01 -1.900e+01 -1.900e+01 -1.900e+01 -1.900e+01 -1.900e+01 -1.900e+01 -1.900e+01 -1.900e+01 -1.100e+01 -1.100e+01 -1.100e+01 -1.100e+01 -1.100e+01 -1.100e+01 -1.100e+01 -1.100e+01 -1.100e+01 -1.100e+01 -1.100e+01 -1.100e+01 -1.100e+01 -1.100e+01 -1.100e+01 -1.100e+01 -1.100e+01 -1.900e+01 -1.900e+01 -1.900e+01 -1.900e+01 -1.900e+01 -1.900e+01 -1.900e+01 -1.900e+01 -1.900e+01 -1.900e+01 -1.900e+01 -1.900e+01 -1.900e+01 -1.900e+01 -1.900e+01 -1.900e+01 -1.900e+01 -1.900e+01 -1.900e+01 -1.900e+01 -1.100e+01 -1.100e+01 -1.100e+01 -1.100e+01 -1.100e+01 -1.100e+01 -1.100e+01 -1.100e+01 -1.100e+01 -1.100e+01 -1.100e+01 -1.100e+01 -1.100e+01 -1.100e+01 -1.100e+01 -1.100e+01 -1.100e+01 -2.000e+01 -2.000e+01 -2.000e+01 -2.000e+01 -2.000e+01 -2.000e+01 -2.000e+01 -2.000e+01 -2.000e+01 -2.000e+01 -2.000e+01 -2.000e+01 -2.000e+01 -2.000e+01 -2.000e+01 -2.000e+01 -2.000e+00 -2.000e+00 -2.000e+00 -2.000e+00 -2.000e+00 -2.000e+00 -2.000e+00 -2.000e+00 -2.000e+00 -2.000e+00 -1.700e+01 -1.700e+01 -7.000e+00 -7.000e+00 -7.000e+00 -7.000e+00 -7.000e+00 -7.000e+00 -1.700e+01 -1.700e+01 -7.000e+00 -7.000e+00 -7.000e+00 -7.000e+00 -7.000e+00 -7.000e+00 -7.000e+00 -7.000e+00 -7.000e+00 -7.000e+00 -7.000e+00 -7.000e+00 -7.000e+00 -7.000e+00 -7.000e+00 -7.000e+00 -7.000e+00 -7.000e+00 -7.000e+00 -7.000e+00 -7.000e+00 -7.000e+00 -7.000e+00 -7.000e+00 -7.000e+00 -7.000e+00 -7.000e+00 -7.000e+00 -7.000e+00 -7.000e+00 -7.000e+00 -7.000e+00 -7.000e+00 -7.000e+00 -7.000e+00 -7.000e+00 -1.700e+01 -1.700e+01 -7.000e+00 -7.000e+00 -7.000e+00 -7.000e+00 -7.000e+00 -7.000e+00 -7.000e+00 -7.000e+00 -7.000e+00 -7.000e+00 -7.000e+00 -7.000e+00 -7.000e+00 -7.000e+00 -7.000e+00 -7.000e+00 -7.000e+00 -7.000e+00 -7.000e+00 -7.000e+00 -7.000e+00 -7.000e+00 -7.000e+00 -7.000e+00 -7.000e+00 -7.000e+00 -7.000e+00 -7.000e+00 -7.000e+00 -7.000e+00 -7.000e+00 -7.000e+00 -7.000e+00 -7.000e+00 -7.000e+00 -7.000e+00 -7.000e+00 -7.000e+00 -7.000e+00 -7.000e+00 -7.000e+00 -7.000e+00 -7.000e+00 -7.000e+00 -7.000e+00 -7.000e+00 -7.000e+00 -7.000e+00 -7.000e+00 -7.000e+00 -7.000e+00 -1.700e+01 -7.000e+00 -7.000e+00 -7.000e+00 -7.000e+00 -7.000e+00 -7.000e+00 -7.000e+00 -7.000e+00 -7.000e+00 -7.000e+00 -7.000e+00 -7.000e+00 -7.000e+00 -7.000e+00 -7.000e+00 -7.000e+00 -7.000e+00 -1.700e+01 -7.000e+00 -7.000e+00 -7.000e+00 -7.000e+00 -7.000e+00 -7.000e+00 -7.000e+00 -7.000e+00 -7.000e+00 -7.000e+00 -7.000e+00 -7.000e+00 -7.000e+00 -7.000e+00 -7.000e+00 -7.000e+00 -1.700e+01 -1.700e+01 -1.700e+01 -7.000e+00 -7.000e+00 -7.000e+00 -7.000e+00 -7.000e+00 -7.000e+00 -7.000e+00 -7.000e+00 -7.000e+00 -7.000e+00 -7.000e+00 -7.000e+00 -7.000e+00 -7.000e+00 -7.000e+00 -7.000e+00 -1.700e+01 -1.700e+01 -7.000e+00 -7.000e+00 -7.000e+00 -7.000e+00 -7.000e+00 -7.000e+00 -7.000e+00 -7.000e+00 -7.000e+00 -7.000e+00 -7.000e+00 -1.700e+01 -7.000e+00 -7.000e+00 -7.000e+00 -7.000e+00 -7.000e+00 -7.000e+00 -7.000e+00 -7.000e+00 -7.000e+00 -7.000e+00 -7.000e+00 -1.700e+01 -1.700e+01 -7.000e+00 -7.000e+00 -7.000e+00 -7.000e+00 -7.000e+00 -7.000e+00 -7.000e+00 -7.000e+00 -7.000e+00 -7.000e+00 -7.000e+00 -7.000e+00 -7.000e+00 -7.000e+00 -7.000e+00 -7.000e+00 -7.000e+00 -7.000e+00 -7.000e+00 -7.000e+00 -7.000e+00 -7.000e+00 -7.000e+00 -7.000e+00 -7.000e+00 -7.000e+00 -7.000e+00 -1.700e+01 -7.000e+00 -7.000e+00 -7.000e+00 -7.000e+00 -7.000e+00 -7.000e+00 -1.700e+01 -7.000e+00 -7.000e+00 -7.000e+00 -7.000e+00 -7.000e+00 -7.000e+00 -1.700e+01 -1.700e+01 -7.000e+00 -7.000e+00 -7.000e+00 -7.000e+00 -7.000e+00 -7.000e+00 -1.700e+01 -1.700e+01 -7.000e+00 -7.000e+00 -7.000e+00 -7.000e+00 -7.000e+00 -7.000e+00 -1.700e+01 -7.000e+00 -7.000e+00 -7.000e+00 -7.000e+00 -7.000e+00 -7.000e+00 -7.000e+00 -7.000e+00 -7.000e+00 -7.000e+00 -7.000e+00 -1.700e+01 -1.700e+01 -7.000e+00 -7.000e+00 -7.000e+00 -7.000e+00 -7.000e+00 -7.000e+00 -1.700e+01 -7.000e+00 -7.000e+00 -7.000e+00 -7.000e+00 -7.000e+00 -7.000e+00 -1.700e+01 -7.000e+00 -7.000e+00 -7.000e+00 -7.000e+00 -7.000e+00 -7.000e+00 -7.000e+00 -7.000e+00 -7.000e+00 -7.000e+00 -7.000e+00 -7.000e+00 -7.000e+00 -7.000e+00 -7.000e+00 -7.000e+00 -1.700e+01 -7.000e+00 -7.000e+00 -7.000e+00 -7.000e+00 -7.000e+00 -7.000e+00 -7.000e+00 -7.000e+00 -7.000e+00 -7.000e+00 -7.000e+00 -7.000e+00 -7.000e+00 -7.000e+00 -7.000e+00 -7.000e+00 -7.000e+00 -7.000e+00 -7.000e+00 -7.000e+00 -7.000e+00 -7.000e+00 -7.000e+00 -7.000e+00 -7.000e+00 -7.000e+00 -7.000e+00 -7.000e+00 -7.000e+00 -7.000e+00 -7.000e+00 -7.000e+00 -1.700e+01 -7.000e+00 -7.000e+00 -7.000e+00 -7.000e+00 -7.000e+00 -7.000e+00 -7.000e+00 -7.000e+00 -7.000e+00 -7.000e+00 -7.000e+00 -7.000e+00 -7.000e+00 -7.000e+00 -7.000e+00 -7.000e+00 -7.000e+00 -7.000e+00 -7.000e+00 -7.000e+00 -7.000e+00 -7.000e+00 -7.000e+00 -7.000e+00 -7.000e+00 -7.000e+00 -7.000e+00 -7.000e+00 -7.000e+00 -7.000e+00 -7.000e+00 -7.000e+00 -7.000e+00 -7.000e+00 -7.000e+00 -7.000e+00 -7.000e+00 -7.000e+00 -7.000e+00 -7.000e+00 -7.000e+00 -7.000e+00 -7.000e+00 -7.000e+00 -7.000e+00 -7.000e+00 -7.000e+00 -7.000e+00 -7.000e+00 -7.000e+00 -7.000e+00 -7.000e+00 -7.000e+00 -7.000e+00 -1.700e+01 -7.000e+00 -7.000e+00 -7.000e+00 -7.000e+00 -7.000e+00 -7.000e+00 -7.000e+00 -7.000e+00 -7.000e+00 -7.000e+00 -7.000e+00 -7.000e+00 -7.000e+00 -7.000e+00 -7.000e+00 -7.000e+00 -7.000e+00 -7.000e+00 -7.000e+00 -7.000e+00 -7.000e+00 -7.000e+00 -7.000e+00 -7.000e+00 -7.000e+00 -7.000e+00 -7.000e+00 -7.000e+00 -7.000e+00 -7.000e+00 -7.000e+00 -7.000e+00 -7.000e+00 -7.000e+00 -7.000e+00 -7.000e+00 -7.000e+00 -7.000e+00 -7.000e+00 -7.000e+00 -7.000e+00 -7.000e+00 -7.000e+00 -7.000e+00 -7.000e+00 -7.000e+00 -7.000e+00 -7.000e+00 -7.000e+00 -7.000e+00 -7.000e+00 -7.000e+00 -7.000e+00 -7.000e+00 -7.000e+00 -7.000e+00 -7.000e+00 -7.000e+00 -7.000e+00 -7.000e+00 -7.000e+00 -7.000e+00 -7.000e+00 -7.000e+00 -7.000e+00 -7.000e+00 -7.000e+00 -7.000e+00 -7.000e+00 -7.000e+00 -7.000e+00 -7.000e+00 -7.000e+00 -7.000e+00 -7.000e+00 -7.000e+00 -7.000e+00 -7.000e+00 -7.000e+00 -7.000e+00 -7.000e+00 -7.000e+00 -7.000e+00 -7.000e+00 -7.000e+00 -7.000e+00 -7.000e+00 -7.000e+00 -7.000e+00 -7.000e+00 -7.000e+00 -7.000e+00 -7.000e+00 -1.700e+01 -7.000e+00 -7.000e+00 -7.000e+00 -7.000e+00 -7.000e+00 -7.000e+00 -7.000e+00 -7.000e+00 -7.000e+00 -7.000e+00 -7.000e+00 -7.000e+00 -7.000e+00 -7.000e+00 -7.000e+00 -7.000e+00 -7.000e+00 -7.000e+00 -7.000e+00 -7.000e+00 -7.000e+00 -7.000e+00 -7.000e+00 -7.000e+00 -7.000e+00 -7.000e+00 -7.000e+00 -7.000e+00 -7.000e+00 -7.000e+00 -7.000e+00 -7.000e+00 -7.000e+00 -7.000e+00 -7.000e+00 -7.000e+00 -7.000e+00 -7.000e+00 -7.000e+00 -7.000e+00 -7.000e+00 -1.700e+01 -1.700e+01 -7.000e+00 -7.000e+00 -7.000e+00 -7.000e+00 -7.000e+00 -7.000e+00 -7.000e+00 -7.000e+00 -7.000e+00 -7.000e+00 -7.000e+00 -7.000e+00 -7.000e+00 -7.000e+00 -7.000e+00 -7.000e+00 -7.000e+00 -7.000e+00 -7.000e+00 -7.000e+00 -7.000e+00 -7.000e+00 -7.000e+00 -7.000e+00 -7.000e+00 -7.000e+00 -7.000e+00 -7.000e+00 -7.000e+00 -7.000e+00 -7.000e+00 -7.000e+00 -7.000e+00 -7.000e+00 -7.000e+00 -7.000e+00 -7.000e+00 -7.000e+00 -7.000e+00 -7.000e+00 -1.700e+01 -1.700e+01 -7.000e+00 -7.000e+00 -7.000e+00 -7.000e+00 -7.000e+00 -7.000e+00 -7.000e+00 -7.000e+00 -7.000e+00 -7.000e+00 -7.000e+00 -7.000e+00 -7.000e+00 -7.000e+00 -7.000e+00 -7.000e+00 -7.000e+00 -7.000e+00 -7.000e+00 -7.000e+00 -7.000e+00 -7.000e+00 -7.000e+00 -7.000e+00 -7.000e+00 -7.000e+00 -7.000e+00 -7.000e+00 -7.000e+00 -7.000e+00 -7.000e+00 -7.000e+00 -7.000e+00 -7.000e+00 -7.000e+00 -1.500e+01 -1.500e+01 -1.500e+01 -1.500e+01 -1.500e+01 -1.500e+01 -1.500e+01 -1.500e+01 -1.500e+01 -1.500e+01 -1.500e+01 -9.000e+00 -9.000e+00 -9.000e+00 -9.000e+00 -9.000e+00 -9.000e+00 -9.000e+00 -9.000e+00 -9.000e+00 -9.000e+00 -1.500e+01 -1.500e+01 -1.500e+01 -1.500e+01 -9.000e+00 -9.000e+00 -9.000e+00 -9.000e+00 -9.000e+00 -9.000e+00 -9.000e+00 -9.000e+00 -9.000e+00 -9.000e+00 -9.000e+00 -9.000e+00 -9.000e+00 -9.000e+00 -9.000e+00 -9.000e+00 -9.000e+00 -9.000e+00 -9.000e+00 -9.000e+00 -9.000e+00 -9.000e+00 -9.000e+00 -9.000e+00 -9.000e+00 -9.000e+00 -9.000e+00 -4.000e+00 -4.000e+00 -4.000e+00 -4.000e+00 -4.000e+00 -4.000e+00 -4.000e+00 -4.000e+00 -4.000e+00 -4.000e+00 -4.000e+00 -4.000e+00 -4.000e+00 -4.000e+00 -4.000e+00 -4.000e+00 -4.000e+00 -4.000e+00 -4.000e+00 -4.000e+00 -4.000e+00 -4.000e+00 -4.000e+00 -4.000e+00 -4.000e+00 -4.000e+00 -4.000e+00 -4.000e+00 -4.000e+00 -4.000e+00 -4.000e+00 -4.000e+00 -4.000e+00 -4.000e+00 -4.000e+00 -4.000e+00
           </DataArray>
           <DataArray type="Float32" Name="nitrate/Cmin" NumberOfComponents="1" format="ascii">