<?xml version="1.0"?>
<VTKFile type="UnstructuredGrid" version="0.1" byte_order="LittleEndian">
   <UnstructuredGrid>
      <Piece NumberOfPoints="4720" NumberOfCells="335">
         <Points>
            <DataArray type="Float32" Name="Position" NumberOfComponents="3" format="ascii">
0.122	-5.023	0.058
0.129	-5.020	0.064
0.135	-5.023	0.070
0.139	-5.031	0.074
0.138	-5.040	0.074
0.134	-5.047	0.071
0.127	-5.050	0.065
0.121	-5.047	0.059
0.117	-5.039	0.055
0.118	-5.030	0.054
0.245	-5.037	-0.072
0.251	-5.034	-0.066
0.257	-5.037	-0.060
0.261	-5.045	-0.056
0.260	-5.054	-0.055
0.256	-5.062	-0.059
0.249	-5.064	-0.065
0.243	-5.061	-0.071
0.239	-5.054	-0.075
0.240	-5.044	-0.075
0.255	-5.091	0.118
0.253	-5.084	0.123
0.248	-5.081	0.130
0.244	-5.084	0.138
0.241	-5.092	0.142
0.241	-5.101	0.142
0.244	-5.108	0.137
0.248	-5.111	0.129
0.253	-5.108	0.122
0.255	-5.100	0.117
0.452	-5.095	0.230
0.449	-5.088	0.235
0.445	-5.085	0.242
0.441	-5.089	0.250
0.438	-5.096	0.254
0.438	-5.105	0.254
0.441	-5.113	0.249
0.445	-5.115	0.241
0.449	-5.112	0.234
0.452	-5.104	0.229
0.359	-5.152	0.188
0.366	-5.150	0.193
0.373	-5.153	0.199
0.376	-5.160	0.203
0.375	-5.169	0.204
0.370	-5.177	0.201
0.364	-5.179	0.195
0.357	-5.176	0.189
0.354	-5.169	0.185
0.355	-5.160	0.185
0.488	-5.175	0.040
0.495	-5.172	0.046
0.501	-5.175	0.052
0.505	-5.183	0.056
0.504	-5.192	0.057
0.499	-5.199	0.054
0.492	-5.202	0.048
0.486	-5.199	0.042
0.482	-5.191	0.038
0.483	-5.182	0.037
0.488	-5.244	0.243
0.492	-5.246	0.252
0.490	-5.247	0.261
0.484	-5.247	0.267
0.475	-5.246	0.269
0.467	-5.244	0.265
0.463	-5.242	0.257
0.464	-5.240	0.248
0.471	-5.240	0.241
0.480	-5.241	0.240
0.470	-5.347	0.225
0.474	-5.349	0.233
0.473	-5.350	0.242
0.466	-5.350	0.249
0.457	-5.349	0.250
0.449	-5.347	0.246
0.445	-5.345	0.238
0.447	-5.344	0.229
0.453	-5.343	0.223
0.462	-5.345	0.221
0.598	-5.334	0.299
0.600	-5.337	0.308
0.597	-5.337	0.316
0.590	-5.336	0.322
0.581	-5.333	0.322
0.574	-5.329	0.317
0.572	-5.327	0.309
0.575	-5.326	0.300
0.582	-5.328	0.294
0.591	-5.331	0.294
0.562	-5.433	0.280
0.564	-5.435	0.289
0.561	-5.436	0.298
0.554	-5.434	0.303
0.546	-5.431	0.304
0.539	-5.428	0.299
0.536	-5.425	0.290
0.539	-5.425	0.281
0.546	-5.426	0.276
0.555	-5.429	0.275
0.689	-5.410	0.352
0.696	-5.407	0.358
0.703	-5.410	0.364
0.706	-5.418	0.368
0.705	-5.427	0.369
0.700	-5.434	0.366
0.693	-5.437	0.361
0.686	-5.434	0.355
0.683	-5.426	0.350
0.684	-5.417	0.349
0.735	-5.420	0.299
0.742	-5.417	0.304
0.748	-5.421	0.310
0.751	-5.428	0.315
0.750	-5.437	0.316
0.745	-5.445	0.313
0.738	-5.447	0.307
0.732	-5.444	0.301
0.729	-5.437	0.297
0.730	-5.427	0.296
0.794	-5.504	0.405
0.801	-5.501	0.410
0.807	-5.504	0.416
0.810	-5.512	0.421
0.809	-5.521	0.422
0.803	-5.528	0.419
0.796	-5.531	0.414
0.790	-5.527	0.408
0.787	-5.520	0.404
0.788	-5.511	0.402
0.831	-5.517	0.359
0.839	-5.514	0.364
0.845	-5.517	0.370
0.848	-5.525	0.374
0.847	-5.534	0.376
0.841	-5.541	0.373
0.834	-5.543	0.368
0.828	-5.540	0.362
0.825	-5.533	0.358
0.826	-5.524	0.356
0.909	-5.615	0.456
0.912	-5.619	0.463
0.910	-5.621	0.472
0.903	-5.621	0.479
0.894	-5.618	0.480
0.887	-5.614	0.476
0.884	-5.610	0.469
0.886	-5.607	0.460
0.893	-5.608	0.453
0.902	-5.611	0.452
0.893	-5.655	0.441
0.896	-5.659	0.449
0.894	-5.661	0.458
0.887	-5.661	0.464
0.879	-5.658	0.466
0.871	-5.654	0.462
0.868	-5.650	0.454
0.870	-5.648	0.445
0.877	-5.648	0.439
0.886	-5.651	0.438
1.002	-5.712	0.505
0.999	-5.704	0.511
0.995	-5.702	0.518
0.991	-5.705	0.526
0.988	-5.713	0.530
0.988	-5.722	0.530
0.990	-5.729	0.524
0.994	-5.732	0.517
0.998	-5.729	0.509
1.001	-5.721	0.505
1.018	-5.713	0.514
1.015	-5.705	0.519
1.011	-5.703	0.527
1.007	-5.706	0.535
1.004	-5.714	0.539
1.004	-5.723	0.538
1.006	-5.730	0.533
1.010	-5.733	0.525
1.014	-5.730	0.518
1.017	-5.722	0.513
0.020	-4.982	-0.027
0.021	-4.966	-0.013
0.015	-4.960	0.006
0.004	-4.965	0.023
-0.009	-4.979	0.031
-0.019	-4.998	0.027
-0.020	-5.014	0.013
-0.014	-5.020	-0.006
-0.002	-5.015	-0.023
0.010	-5.001	-0.031
0.639	-5.352	0.298
0.643	-5.338	0.313
0.638	-5.332	0.332
0.626	-5.336	0.349
0.611	-5.350	0.356
0.600	-5.367	0.352
0.597	-5.381	0.337
0.602	-5.387	0.317
0.614	-5.383	0.301
0.628	-5.370	0.293
1.224	-5.945	0.595
1.230	-5.933	0.611
1.226	-5.928	0.631
1.214	-5.932	0.648
1.197	-5.943	0.654
1.183	-5.957	0.648
1.177	-5.970	0.632
1.181	-5.975	0.612
1.193	-5.971	0.596
1.210	-5.960	0.590
1.616	-6.475	0.786
1.624	-6.465	0.803
1.621	-6.461	0.823
1.608	-6.464	0.839
1.591	-6.474	0.845
1.575	-6.487	0.839
1.567	-6.497	0.822
1.571	-6.501	0.802
1.583	-6.497	0.785
1.601	-6.487	0.779
2.023	-7.148	0.948
2.032	-7.140	0.966
2.030	-7.137	0.986
2.017	-7.140	1.003
1.999	-7.149	1.008
1.982	-7.159	1.001
1.973	-7.167	0.984
1.975	-7.170	0.963
1.988	-7.167	0.947
2.007	-7.158	0.941
2.271	-7.689	1.033
2.281	-7.682	1.051
2.279	-7.680	1.071
2.266	-7.683	1.088
2.246	-7.690	1.093
2.229	-7.699	1.085
2.219	-7.706	1.068
2.221	-7.708	1.047
2.234	-7.705	1.031
2.254	-7.698	1.026
2.503	-8.294	1.121
2.512	-8.288	1.139
2.510	-8.285	1.160
2.496	-8.288	1.176
2.477	-8.294	1.181
2.459	-8.302	1.173
2.449	-8.308	1.155
2.452	-8.310	1.135
2.465	-8.308	1.119
2.485	-8.302	1.114
2.735	-8.951	1.232
2.745	-8.944	1.250
2.742	-8.942	1.271
2.728	-8.944	1.286
2.709	-8.949	1.291
2.691	-8.957	1.283
2.681	-8.963	1.266
2.684	-8.966	1.245
2.698	-8.964	1.229
2.717	-8.958	1.224
2.969	-9.659	1.359
2.978	-9.653	1.377
2.976	-9.651	1.397
2.962	-9.653	1.413
2.942	-9.658	1.417
2.924	-9.665	1.409
2.914	-9.670	1.391
2.917	-9.673	1.371
2.931	-9.671	1.355
2.951	-9.666	1.351
3.181	-10.418	1.471
3.191	-10.413	1.489
3.188	-10.411	1.510
3.174	-10.413	1.525
3.154	-10.417	1.530
3.135	-10.423	1.522
3.126	-10.428	1.504
3.128	-10.430	1.483
3.142	-10.428	1.467
3.162	-10.424	1.463
3.360	-11.193	1.557
3.370	-11.188	1.575
3.368	-11.187	1.596
3.354	-11.188	1.611
3.333	-11.192	1.616
3.315	-11.198	1.607
3.305	-11.202	1.589
3.308	-11.204	1.568
3.322	-11.202	1.553
3.342	-11.198	1.548
3.540	-11.968	1.648
3.550	-11.963	1.666
3.547	-11.961	1.687
3.532	-11.962	1.702
3.512	-11.966	1.706
3.494	-11.971	1.698
3.484	-11.976	1.679
3.487	-11.978	1.659
3.501	-11.977	1.643
3.522	-11.973	1.639
3.704	-12.743	1.761
3.713	-12.739	1.779
3.710	-12.736	1.800
3.695	-12.737	1.815
3.675	-12.740	1.819
3.657	-12.745	1.810
3.647	-12.750	1.792
3.650	-12.752	1.771
3.665	-12.752	1.756
3.685	-12.748	1.752
3.726	-13.110	1.844
3.745	-13.100	1.844
3.765	-13.104	1.844
3.780	-13.118	1.844
3.784	-13.139	1.844
3.774	-13.158	1.844
3.755	-13.167	1.844
3.735	-13.164	1.844
3.720	-13.149	1.844
3.716	-13.129	1.844
0.052	-5.013	-0.137
0.060	-5.010	-0.133
0.068	-5.013	-0.129
0.073	-5.020	-0.127
0.073	-5.030	-0.126
0.068	-5.037	-0.128
0.060	-5.040	-0.132
0.052	-5.037	-0.136
0.047	-5.030	-0.138
0.047	-5.021	-0.139
0.139	-5.023	-0.321
0.147	-5.020	-0.317
0.154	-5.023	-0.313
0.159	-5.030	-0.310
0.159	-5.039	-0.310
0.154	-5.047	-0.312
0.146	-5.050	-0.316
0.138	-5.047	-0.319
0.133	-5.039	-0.322
0.133	-5.030	-0.322
0.129	-5.089	-0.265
0.132	-5.088	-0.257
0.130	-5.086	-0.248
0.123	-5.085	-0.242
0.114	-5.085	-0.242
0.106	-5.085	-0.246
0.103	-5.087	-0.255
0.105	-5.089	-0.264
0.112	-5.090	-0.270
0.121	-5.090	-0.270
0.127	-5.300	-0.226
0.130	-5.299	-0.217
0.128	-5.297	-0.208
0.121	-5.296	-0.202
0.112	-5.296	-0.202
0.104	-5.297	-0.207
0.101	-5.298	-0.215
0.103	-5.300	-0.224
0.110	-5.301	-0.230
0.119	-5.301	-0.230
0.165	-5.171	-0.356
0.165	-5.162	-0.359
0.170	-5.157	-0.365
0.176	-5.156	-0.371
0.182	-5.162	-0.376
0.186	-5.170	-0.377
0.185	-5.179	-0.374
0.180	-5.185	-0.368
0.174	-5.185	-0.361
0.168	-5.179	-0.357
0.055	-5.187	-0.479
0.064	-5.185	-0.479
0.073	-5.187	-0.479
0.079	-5.195	-0.477
0.079	-5.204	-0.475
0.073	-5.211	-0.473
0.064	-5.214	-0.472
0.055	-5.211	-0.473
0.050	-5.204	-0.475
0.050	-5.195	-0.477
0.235	-5.260	-0.480
0.235	-5.254	-0.473
0.232	-5.252	-0.465
0.228	-5.256	-0.457
0.225	-5.264	-0.454
0.224	-5.273	-0.455
0.224	-5.279	-0.462
0.227	-5.281	-0.471
0.231	-5.277	-0.478
0.234	-5.269	-0.482
0.381	-5.297	-0.429
0.380	-5.291	-0.422
0.378	-5.289	-0.414
0.374	-5.293	-0.406
0.371	-5.301	-0.403
0.369	-5.310	-0.405
0.370	-5.316	-0.411
0.373	-5.318	-0.420
0.376	-5.314	-0.427
0.379	-5.306	-0.431
0.295	-5.373	-0.572
0.297	-5.370	-0.564
0.294	-5.366	-0.556
0.286	-5.363	-0.552
0.277	-5.361	-0.553
0.270	-5.362	-0.558
0.268	-5.365	-0.567
0.271	-5.369	-0.575
0.278	-5.372	-0.579
0.287	-5.374	-0.578
0.271	-5.475	-0.533
0.274	-5.472	-0.524
0.271	-5.468	-0.516
0.263	-5.465	-0.512
0.254	-5.463	-0.513
0.247	-5.464	-0.519
0.244	-5.467	-0.528
0.248	-5.470	-0.535
0.255	-5.474	-0.540
0.264	-5.475	-0.539
0.342	-5.465	-0.672
0.342	-5.458	-0.665
0.339	-5.457	-0.656
0.336	-5.461	-0.649
0.332	-5.469	-0.645
0.330	-5.478	-0.647
0.330	-5.484	-0.654
0.333	-5.485	-0.663
0.336	-5.481	-0.670
0.340	-5.473	-0.674
0.428	-5.491	-0.645
0.428	-5.485	-0.638
0.426	-5.483	-0.629
0.422	-5.487	-0.622
0.419	-5.495	-0.618
0.417	-5.504	-0.620
0.417	-5.510	-0.627
0.419	-5.512	-0.636
0.423	-5.508	-0.644
0.426	-5.500	-0.647
0.380	-5.582	-0.737
0.380	-5.573	-0.739
0.383	-5.566	-0.744
0.389	-5.565	-0.752
0.395	-5.569	-0.758
0.398	-5.577	-0.760
0.398	-5.586	-0.758
0.395	-5.593	-0.753
0.389	-5.594	-0.745
0.384	-5.590	-0.739
0.330	-5.591	-0.778
0.330	-5.582	-0.780
0.333	-5.576	-0.786
0.339	-5.574	-0.793
0.345	-5.578	-0.799
0.348	-5.586	-0.802
0.348	-5.595	-0.800
0.345	-5.602	-0.794
0.339	-5.603	-0.787
0.333	-5.599	-0.781
0.445	-5.687	-0.845
0.444	-5.680	-0.839
0.441	-5.678	-0.831
0.437	-5.682	-0.823
0.434	-5.690	-0.819
0.433	-5.699	-0.821
0.434	-5.705	-0.827
0.437	-5.707	-0.835
0.441	-5.704	-0.843
0.444	-5.696	-0.847
0.491	-5.696	-0.826
0.489	-5.689	-0.820
0.486	-5.687	-0.812
0.482	-5.691	-0.804
0.479	-5.699	-0.800
0.478	-5.708	-0.802
0.479	-5.714	-0.808
0.483	-5.716	-0.816
0.486	-5.713	-0.824
0.490	-5.705	-0.828
0.477	-5.815	-0.902
0.476	-5.806	-0.902
0.478	-5.799	-0.907
0.483	-5.796	-0.915
0.488	-5.798	-0.922
0.492	-5.806	-0.926
0.493	-5.815	-0.926
0.491	-5.823	-0.921
0.486	-5.825	-0.913
0.481	-5.823	-0.906
0.461	-5.818	-0.913
0.459	-5.809	-0.913
0.462	-5.801	-0.918
0.466	-5.798	-0.926
0.471	-5.801	-0.933
0.475	-5.808	-0.937
0.476	-5.817	-0.937
0.474	-5.825	-0.932
[...]
         <CellData>
           <DataArray type="Float32" Name="aerenchymaFormation" NumberOfComponents="1" format="ascii">
 0.000e+00 0.000e+00 0.000e+00 0.000e+00 0.000e+00 0.000e+00 0.000e+00 0.000e+00 0.000e+00 2.083e-02 0.000e+00 0.000e+00 0.000e+00 0.000e+00 0.000e+00 0.000e+00 0.000e+00 0.000e+00 0.000e+00 0.000e+00 0.000e+00 0.000e+00 0.000e+00 0.000e+00 0.000e+00 0.000e+00 0.000e+00 0.000e+00 0.000e+00 0.000e+00 0.000e+00 2.083e-02 0.000e+00 0.000e+00 0.000e+00 0.000e+00 0.000e+00 0.000e+00 0.000e+00 0.000e+00 0.000e+00 0.000e+00 0.000e+00 0.000e+00 0.000e+00 0.000e+00 0.000e+00 0.000e+00 0.000e+00 0.000e+00 0.000e+00 0.000e+00 0.000e+00 2.083e-02 0.000e+00 0.000e+00 0.000e+00 0.000e+00 0.000e+00 0.000e+00 0.000e+00 0.000e+00 0.000e+00 0.000e+00 0.000e+00 0.000e+00 0.000e+00 0.000e+00 0.000e+00 0.000e+00 0.000e+00 0.000e+00 0.000e+00 0.000e+00 0.000e+00 2.083e-02 0.000e+00 0.000e+00 0.000e+00 0.000e+00 0.000e+00 0.000e+00 0.000e+00 0.000e+00 0.000e+00 0.000e+00 0.000e+00 0.000e+00 0.000e+00 0.000e+00 0.000e+00 0.000e+00 0.000e+00 0.000e+00 0.000e+00 0.000e+00 0.000e+00 0.000e+00 0.000e+00 0.000e+00 0.000e+00 0.000e+00 0.000e+00 0.000e+00 0.000e+00 0.000e+00 0.000e+00 0.000e+00 0.000e+00 0.000e+00 1.787e-02 0.000e+00 0.000e+00 0.000e+00 1.681e-02 0.000e+00 0.000e+00 0.000e+00 7.266e-03 0.000e+00 0.000e+00 6.205e-03 0.000e+00 0.000e+00 5.144e-03 0.000e+00 0.000e+00 4.084e-03 0.000e+00 0.000e+00 3.023e-03 0.000e+00 0.000e+00 1.962e-03 0.000e+00 0.000e+00 0.000e+00 9.016e-04 0.000e+00 0.000e+00 0.000e+00 0.000e+00 0.000e+00 0.000e+00 0.000e+00 0.000e+00 0.000e+00 0.000e+00 0.000e+00 1.575e-02 0.000e+00 0.000e+00 0.000e+00 0.000e+00 0.000e+00 0.000e+00 0.000e+00 0.000e+00 0.000e+00 0.000e+00 0.000e+00 0.000e+00 0.000e+00 0.000e+00 0.000e+00 0.000e+00 0.000e+00 0.000e+00 0.000e+00 0.000e+00 0.000e+00 0.000e+00 0.000e+00 0.000e+00 0.000e+00 0.000e+00 0.000e+00 0.000e+00 0.000e+00 0.000e+00 1.469e-02 0.000e+00 0.000e+00 0.000e+00 0.000e+00 0.000e+00 0.000e+00 0.000e+00 0.000e+00 0.000e+00 0.000e+00 0.000e+00 0.000e+00 0.000e+00 0.000e+00 0.000e+00 0.000e+00 0.000e+00 0.000e+00 0.000e+00 0.000e+00 0.000e+00 0.000e+00 0.000e+00 0.000e+00 0.000e+00 0.000e+00 0.000e+00 1.363e-02 0.000e+00 0.000e+00 0.000e+00 0.000e+00 0.000e+00 0.000e+00 0.000e+00 0.000e+00 0.000e+00 0.000e+00 0.000e+00 0.000e+00 0.000e+00 0.000e+00 0.000e+00 0.000e+00 0.000e+00 0.000e+00 0.000e+00 0.000e+00 0.000e+00 0.000e+00 0.000e+00 1.257e-02 0.000e+00 0.000e+00 0.000e+00 0.000e+00 0.000e+00 0.000e+00 0.000e+00 0.000e+00 0.000e+00 0.000e+00 0.000e+00 0.000e+00 0.000e+00 0.000e+00 0.000e+00 0.000e+00 0.000e+00 0.000e+00 0.000e+00 0.000e+00 0.000e+00 0.000e+00 1.151e-02 0.000e+00 0.000e+00 0.000e+00 0.000e+00 0.000e+00 0.000e+00 0.000e+00 0.000e+00 0.000e+00 0.000e+00 0.000e+00 0.000e+00 0.000e+00 0.000e+00 1.045e-02 0.000e+00 0.000e+00 0.000e+00 0.000e+00 0.000e+00 0.000e+00 0.000e+00 0.000e+00 0.000e+00 0.000e+00 0.000e+00 0.000e+00 9.387e-03 0.000e+00 0.000e+00 0.000e+00 0.000e+00 0.000e+00 0.000e+00 0.000e+00 0.000e+00 0.000e+00 0.000e+00 8.326e-03 0.000e+00 0.000e+00 0.000e+00 5.392e-03 0.000e+00 0.000e+00 0.000e+00 0.000e+00 0.000e+00 0.000e+00 0.000e+00 0.000e+00 0.000e+00 0.000e+00 8.000e-02 7.700e-02 7.400e-02 7.100e-02 6.800e-02 6.500e-02 6.100e-02 5.800e-02 5.500e-02 5.100e-02 4.500e-02 3.750e-02 2.750e-02 2.000e-02 1.250e-02 5.000e-03 0.000e+00 0.000e+00 0.000e+00 0.000e+00 0.000e+00 0.000e+00 0.000e+00 0.000e+00 0.000e+00 0.000e+00
           </DataArray>
           <DataArray type="Float32" Name="combinedRootClassID" NumberOfComponents="1" format="ascii">
 -1.300e+01 -1.300e+01 -1.300e+01 -1.300e+01 -1.300e+01 -1.300e+01 -1.300e+01 -1.300e+01 -1.300e+01 -5.000e+00 -5.000e+00 -5.000e+00 -5.000e+00 -5.000e+00 -5.000e+00 -5.000e+00 -5.000e+00 -5.000e+00 -5.000e+00 -5.000e+00 -5.000e+00 -5.000e+00 -1.300e+01 -1.300e+01 -1.300e+01 -1.300e+01 -1.300e+01 -1.300e+01 -1.300e+01 -1.300e+01 -1.300e+01 -5.000e+00 -5.000e+00 -5.000e+00 -5.000e+00 -5.000e+00 -5.000e+00 -5.000e+00 -5.000e+00 -5.000e+00 -5.000e+00 -5.000e+00 -5.000e+00 -5.000e+00 -1.300e+01 -1.300e+01 -1.300e+01 -1.300e+01 -1.300e+01 -1.300e+01 -1.300e+01 -1.300e+01 -1.300e+01 -5.000e+00 -5.000e+00 -5.000e+00 -5.000e+00 -5.000e+00 -5.000e+00 -5.000e+00 -5.000e+00 -5.000e+00 -5.000e+00 -5.000e+00 -5.000e+00 -5.000e+00 -1.300e+01 -1.300e+01 -1.300e+01 -1.300e+01 -1.300e+01 -1.300e+01 -1.300e+01 -1.300e+01 -1.300e+01 -5.000e+00 -5.000e+00 -5.000e+00 -5.000e+00 -5.000e+00 -5.000e+00 -5.000e+00 -5.000e+00 -5.000e+00 -5.000e+00 -5.000e+00 -5.000e+00 -5.000e+00 -1.100e+01 -1.100e+01 -1.100e+01 -1.100e+01 -1.100e+01 -1.100e+01 -1.100e+01 -1.100e+01 -1.100e+01 -1.100e+01 -1.100e+01 -1.100e+01 -2.000e+00 -2.000e+00 -2.000e+00 -2.000e+00 -2.000e+00 -2.000e+00 -2.000e+00 -2.000e+00 -2.000e+00 -2.000e+00 -7.000e+00 -7.000e+00 -7.000e+00 -7.000e+00 -7.000e+00 -7.000e+00 -7.000e+00 -7.000e+00 -7.000e+00 -7.000e+00 -7.000e+00 -7.000e+00 -7.000e+00 -7.000e+00 -7.000e+00 -7.000e+00 -7.000e+00 -7.000e+00 -7.000e+00 -7.000e+00 -7.000e+00 -7.000e+00 -7.000e+00 -7.000e+00 -7.000e+00 -7.000e+00 -7.000e+00 -7.000e+00 -7.000e+00 -7.000e+00 -7.000e+00 -7.000e+00 -7.000e+00 -7.000e+00 -7.000e+00 -7.000e+00 -7.000e+00 -7.000e+00 -7.000e+00 -7.000e+00 -7.000e+00 -7.000e+00 -7.000e+00 -7.000e+00 -7.000e+00 -7.000e+00 -7.000e+00 -7.000e+00 -7.000e+00 -7.000e+00 -7.000e+00 -7.000e+00 -7.000e+00 -7.000e+00 -7.000e+00 -7.000e+00 -7.000e+00 -7.000e+00 -7.000e+00 -7.000e+00 -7.000e+00 -7.000e+00 -7.000e+00 -7.000e+00 -7.000e+00 -7.000e+00 -7.000e+00 -7.000e+00 -7.000e+00 -7.000e+00 -7.000e+00 -7.000e+00 -7.000e+00 -7.000e+00 -7.000e+00 -7.000e+00 -7.000e+00 -7.000e+00 -7.000e+00 -7.000e+00 -7.000e+00 -7.000e+00 -7.000e+00 -7.000e+00 -7.000e+00 -7.000e+00 -7.000e+00 -7.000e+00 -7.000e+00 -7.000e+00 -7.000e+00 -7.000e+00 -7.000e+00 -7.000e+00 -7.000e+00 -7.000e+00 -7.000e+00 -7.000e+00 -7.000e+00 -7.000e+00 -7.000e+00 -7.000e+00 -7.000e+00 -7.000e+00 -7.000e+00 -7.000e+00 -7.000e+00 -7.000e+00 -7.000e+00 -7.000e+00 -7.000e+00 -7.000e+00 -7.000e+00 -7.000e+00 -7.000e+00 -7.000e+00 -7.000e+00 -7.000e+00 -7.000e+00 -7.000e+00 -7.000e+00 -7.000e+00 -7.000e+00 -7.000e+00 -7.000e+00 -7.000e+00 -7.000e+00 -7.000e+00 -7.000e+00 -7.000e+00 -7.000e+00 -7.000e+00 -7.000e+00 -7.000e+00 -7.000e+00 -7.000e+00 -7.000e+00 -7.000e+00 -7.000e+00 -7.000e+00 -7.000e+00 -7.000e+00 -7.000e+00 -7.000e+00 -7.000e+00 -7.000e+00 -7.000e+00 -7.000e+00 -7.000e+00 -7.000e+00 -7.000e+00 -7.000e+00 -7.000e+00 -7.000e+00 -7.000e+00 -7.000e+00 -7.000e+00 -7.000e+00 -7.000e+00 -7.000e+00 -7.000e+00 -7.000e+00 -7.000e+00 -7.000e+00 -7.000e+00 -7.000e+00 -7.000e+00 -7.000e+00 -7.000e+00 -7.000e+00 -7.000e+00 -7.000e+00 -7.000e+00 -7.000e+00 -7.000e+00 -7.000e+00 -7.000e+00 -7.000e+00 -7.000e+00 -7.000e+00 -7.000e+00 -7.000e+00 -7.000e+00 -7.000e+00 -7.000e+00 -7.000e+00 -7.000e+00 -7.000e+00 -9.000e+00 -9.000e+00 -9.000e+00 -9.000e+00 -9.000e+00 -9.000e+00 -9.000e+00 -9.000e+00 -9.000e+00 -9.000e+00 -9.000e+00 -4.000e+00 -4.000e+00 -4.000e+00 -4.000e+00 -4.000e+00 -4.000e+00 -4.000e+00 -4.000e+00 -4.000e+00 -4.000e+00 -4.000e+00 -4.000e+00 -4.000e+00 -4.000e+00 -4.000e+00 -4.000e+00 -4.000e+00 -4.000e+00 -4.000e+00 -4.000e+00 -4.000e+00 -4.000e+00 -4.000e+00 -4.000e+00 -4.000e+00 -4.000e+00
           </DataArray>
           <DataArray type="Float32" Name="nitrate/Cmin" NumberOfComponents="1" format="ascii">
 1.000e-03 1.000e-03 1.000e-03 1.000e-03 1.000e-03 1.000e-03 1.000e-03 1.000e-03 1.000e-03 1.000e-03 1.000e-03 1.000e-03 1.000e-03 1.000e-03 1.000e-03 1.000e-03 1.000e-03 1.000e-03 1.000e-03 1.000e-03 1.000e-03 1.000e-03 1.000e-03 1.000e-03 1.000e-03 1.000e-03 1.000e-03 1.000e-03 1.000e-03 1.000e-03 1.000e-03 1.000e-03 1.000e-03 1.000e-03 1.000e-03 1.000e-03 1.000e-03 1.000e-03 1.000e-03 1.000e-03 1.000e-03 1.000e-03 1.000e-03 1.000e-03 1.000e-03 1.000e-03 1.000e-03 1.000e-03 1.000e-03 1.000e-03 1.000e-03 1.000e-03 1.000e-03 1.000e-03 1.000e-03 1.000e-03 1.000e-03 1.000e-03 1.000e-03 1.000e-03 1.000e-03 1.000e-03 1.000e-03 1.000e-03 1.000e-03 1.000e-03 1.000e-03 1.000e-03 1.000e-03 1.000e-03 1.000e-03 1.000e-03 1.000e-03 1.000e-03 1.000e-03 1.000e-03 1.000e-03 1.000e-03 1.000e-03 1.000e-03 1.000e-03 1.000e-03 1.000e-03 1.000e-03 1.000e-03 1.000e-03 1.000e-03 1.000e-03 1.000e-03 1.000e-03 1.000e-03 1.000e-03 1.000e-03 1.000e-03 1.000e-03 1.000e-03 1.000e-03 1.000e-03 1.000e-03 1.000e-03 1.000e-03 1.000e-03 1.000e-03 1.000e-03 1.000e-03 1.000e-03 1.000e-03 1.000e-03 1.000e-03 1.000e-03 1.000e-03 1.000e-03 1.000e-03 1.000e-03 1.000e-03 1.000e-03 1.000e-03 1.000e-03 1.000e-03 1.000e-03 1.000e-03 1.000e-03 1.000e-03 1.000e-03 1.000e-03 1.000e-03 1.000e-03 1.000e-03 1.000e-03 1.000e-03 1.000e-03 1.000e-03 1.000e-03 1.000e-03 1.000e-03 1.000e-03 1.000e-03 1.000e-03 1.000e-03 1.000e-03 1.000e-03 1.000e-03 1.000e-03 1.000e-03 1.000e-03 1.000e-03 1.000e-03 1.000e-03 1.000e-03 1.000e-03 1.000e-03 1.000e-03 1.000e-03 1.000e-03 1.000e-03 1.000e-03 1.000e-03 1.000e-03 1.000e-03 1.000e-03 1.000e-03 1.000e-03 1.000e-03 1.000e-03 1.000e-03 1.000e-03 1.000e-03 1.000e-03 1.000e-03 1.000e-03 1.000e-03 1.000e-03 1.000e-03 1.000e-03 1.000e-03 1.000e-03 1.000e-03 1.000e-03 1.000e-03 1.000e-03 1.000e-03 1.000e-03 1.000e-03 1.000e-03 1.000e-03 1.000e-03 1.000e-03 1.000e-03 1.000e-03 1.000e-03 1.000e-03 1.000e-03 1.000e-03 1.000e-03 1.000e-03 1.000e-03 1.000e-03 1.000e-03 1.000e-03 1.000e-03 1.000e-03 1.000e-03 1.000e-03 1.000e-03 1.000e-03 1.000e-03 1.000e-03 1.000e-03 1.000e-03 1.000e-03 1.000e-03 1.000e-03 1.000e-03 1.000e-03 1.000e-03 1.000e-03 1.000e-03 1.000e-03 1.000e-03 1.000e-03 1.000e-03 1.000e-03 1.000e-03 1.000e-03 1.000e-03 1.000e-03 1.000e-03 1.000e-03 1.000e-03 1.000e-03 1.000e-03 1.000e-03 1.000e-03 1.000e-03 1.000e-03 1.000e-03 1.000e-03 1.000e-03 1.000e-03 1.000e-03 1.000e-03 1.000e-03 1.000e-03 1.000e-03 1.000e-03 1.000e-03 1.000e-03 1.000e-03 1.000e-03 1.000e-03 1.000e-03 1.000e-03 1.000e-03 1.000e-03 1.000e-03 1.000e-03 1.000e-03 1.000e-03 1.000e-03 1.000e-03 1.000e-03 1.000e-03 1.000e-03 1.000e-03 1.000e-03 1.000e-03 1.000e-03 1.000e-03 1.000e-03 1.000e-03 1.000e-03 1.000e-03 1.000e-03 1.000e-03 1.000e-03 1.000e-03 1.000e-03 1.000e-03 1.000e-03 1.000e-03 1.000e-03 1.000e-03 1.000e-03 1.000e-03 1.000e-03 1.000e-03 1.000e-03 1.000e-03 1.000e-03 1.000e-03 1.000e-03 1.000e-03 1.000e-03 1.000e-03 1.000e-03 1.000e-03 1.000e-03 1.000e-03 1.000e-03 1.000e-03 1.000e-03 1.000e-03 1.000e-03 1.000e-03 1.000e-03 1.000e-03 1.000e-03 1.000e-03 1.000e-03 1.000e-03 1.000e-03 1.000e-03 1.000e-03 1.000e-03 1.000e-03 1.000e-03 1.000e-03 1.000e-03 1.000e-03 1.000e-03 1.000e-03 1.000e-03 1.000e-03 1.000e-03 1.000e-03 1.000e-03 1.000e-03 1.000e-03 1.000e-03 1.000e-03 1.000e-03 1.000e-03 1.000e-03 1.000e-03 1.000e-03
           </DataArray>
           <DataArray type="Float32" Name="nitrate/Imax" NumberOfComponents="1" format="ascii">
 1.900e+00 1.900e+00 1.900e+00 1.900e+00 1.900e+00 1.900e+00 1.900e+00 1.900e+00 1.900e+00 1.900e+00 1.900e+00 1.900e+00 1.900e+00 1.900e+00 1.900e+00 1.900e+00 1.900e+00 1.900e+00 1.900e+00 1.900e+00 1.900e+00 1.900e+00 1.900e+00 1.900e+00 1.900e+00 1.900e+00 1.900e+00 1.900e+00 1.900e+00 1.900e+00 1.900e+00 1.900e+00 1.900e+00 1.900e+00 1.900e+00 1.900e+00 1.900e+00 1.900e+00 1.900e+00 1.900e+00 1.900e+00 1.900e+00 1.900e+00 1.900e+00 1.900e+00 1.900e+00 1.900e+00 1.900e+00 1.900e+00 1.900e+00 1.900e+00 1.900e+00 1.900e+00 1.900e+00 1.900e+00 1.900e+00 1.900e+00 1.900e+00 1.900e+00 1.900e+00 1.900e+00 1.900e+00 1.900e+00 1.900e+00 1.900e+00 1.900e+00 1.900e+00 1.900e+00 1.900e+00 1.900e+00 1.900e+00 1.900e+00 1.900e+00 1.900e+00 1.900e+00 1.900e+00 1.900e+00 1.900e+00 1.900e+00 1.900e+00 1.900e+00 1.900e+00 1.900e+00 1.900e+00 1.900e+00 1.900e+00 1.900e+00 1.900e+00 1.900e+00 1.900e+00 1.900e+00 1.900e+00 1.900e+00 1.900e+00 1.900e+00 1.900e+00 1.900e+00 1.900e+00 1.900e+00 1.900e+00 1.900e+00 1.900e+00 1.900e+00 1.900e+00 1.900e+00 1.900e+00 1.900e+00 1.900e+00 1.900e+00 1.900e+00 1.900e+00 1.900e+00 1.900e+00 1.900e+00 1.900e+00 1.900e+00 1.900e+00 1.900e+00 1.900e+00 1.900e+00 1.900e+00 1.900e+00 1.900e+00 1.900e+00 1.900e+00 1.900e+00 1.900e+00 1.900e+00 1.900e+00 1.900e+00 1.900e+00 1.900e+00 1.900e+00 1.900e+00 1.900e+00 1.900e+00 1.900e+00 1.900e+00 1.900e+00 1.900e+00 1.900e+00 1.900e+00 1.900e+00 1.900e+00 1.900e+00 1.900e+00 1.900e+00 1.900e+00 1.900e+00 1.900e+00 1.900e+00 1.900e+00 1.900e+00 1.900e+00 1.900e+00 1.900e+00 1.900e+00 1.900e+00 1.900e+00 1.900e+00 1.900e+00 1.900e+00 1.900e+00 1.900e+00 1.900e+00 1.900e+00 1.900e+00 1.900e+00 1.900e+00 1.900e+00 1.900e+00 1.900e+00 1.900e+00 1.900e+00 1.900e+00 1.900e+00 1.900e+00 1.900e+00 1.900e+00 1.900e+00 1.900e+00 1.900e+00 1.900e+00 1.900e+00 1.900e+00 1.900e+00 1.900e+00 1.900e+00 1.900e+00 1.900e+00 1.900e+00 1.900e+00 1.900e+00 1.900e+00 1.900e+00 1.900e+00 1.900e+00 1.900e+00 1.900e+00 1.900e+00 1.900e+00 1.900e+00 1.900e+00 1.900e+00 1.900e+00 1.900e+00 1.900e+00 1.900e+00 1.900e+00 1.900e+00 1.900e+00 1.900e+00 1.900e+00 1.900e+00 1.900e+00 1.900e+00 1.900e+00 1.900e+00 1.900e+00 1.900e+00 1.900e+00 1.900e+00 1.900e+00 1.900e+00 1.900e+00 1.900e+00 1.900e+00 1.900e+00 1.900e+00 1.900e+00 1.900e+00 1.900e+00 1.900e+00 1.900e+00 1.900e+00 1.900e+00 1.900e+00 1.900e+00 1.900e+00 1.900e+00 1.900e+00 1.900e+00 1.900e+00 1.900e+00 1.900e+00 1.900e+00 1.900e+00 1.900e+00 1.900e+00 1.900e+00 1.900e+00 1.900e+00 1.900e+00 1.900e+00 1.900e+00 1.900e+00 1.900e+00 1.900e+00 1.900e+00 1.900e+00 1.900e+00 1.900e+00 1.900e+00 1.900e+00 1.900e+00 1.900e+00 1.900e+00 1.900e+00 1.900e+00 1.900e+00 1.900e+00 1.900e+00 1.900e+00 1.900e+00 1.900e+00 1.900e+00 1.900e+00 1.900e+00 1.900e+00 1.900e+00 1.900e+00 1.900e+00 1.900e+00 1.900e+00 1.900e+00 1.900e+00 1.900e+00 1.900e+00 1.900e+00 1.900e+00 1.900e+00 1.900e+00 1.900e+00 1.900e+00 1.900e+00 1.900e+00 1.900e+00 1.900e+00 1.900e+00 1.900e+00 1.900e+00 1.900e+00 1.900e+00 1.900e+00 1.900e+00 1.900e+00 1.900e+00 1.900e+00 1.900e+00 1.900e+00 1.900e+00 1.900e+00 1.900e+00 1.900e+00 1.900e+00 1.900e+00 1.900e+00 1.900e+00 1.900e+00 1.900e+00 1.900e+00 1.900e+00 1.900e+00 1.900e+00 1.900e+00 1.900e+00 1.900e+00 1.900e+00 1.900e+00 1.900e+00 1.900e+00 1.900e+00 1.900e+00 1.900e+00 1.900e+00
           </DataArray>
           <DataArray type="Float32" Name="nitrate/Km" NumberOfComponents="1" format="ascii">
 1.610e-02 1.610e-02 1.610e-02 1.610e-02 1.610e-02 1.610e-02 1.610e-02 1.610e-02 1.610e-02 1.610e-02 1.610e-02 1.610e-02 1.610e-02 1.610e-02 1.610e-02 1.610e-02 1.610e-02 1.610e-02 1.610e-02 1.610e-02 1.610e-02 1.610e-02 1.610e-02 1.610e-02 1.610e-02 1.610e-02 1.610e-02 1.610e-02 1.610e-02 1.610e-02 1.610e-02 1.610e-02 1.610e-02 1.610e-02 1.610e-02 1.610e-02 1.610e-02 1.610e-02 1.610e-02 1.610e-02 1.610e-02 1.610e-02 1.610e-02 1.610e-02 1.610e-02 1.610e-02 1.610e-02 1.610e-02 1.610e-02 1.610e-02 1.610e-02 1.610e-02 1.610e-02 1.610e-02 1.610e-02 1.610e-02 1.610e-02 1.610e-02 1.610e-02 1.610e-02 1.610e-02 1.610e-02 1.610e-02 1.610e-02 1.610e-02 1.610e-02 1.610e-02 1.610e-02 1.610e-02 1.610e-02 1.610e-02 1.610e-02 1.610e-02 1.610e-02 1.610e-02 1.610e-02 1.610e-02 1.610e-02 1.610e-02 1.610e-02 1.610e-02 1.610e-02 1.610e-02 1.610e-02 1.610e-02 1.610e-02 1.610e-02 1.610e-02 1.610e-02 1.610e-02 1.610e-02 1.610e-02 1.610e-02 1.610e-02 1.610e-02 1.610e-02 1.610e-02 1.610e-02 1.610e-02 1.610e-02 1.610e-02 1.610e-02 1.610e-02 1.610e-02 1.610e-02 1.610e-02 1.610e-02 1.610e-02 1.610e-02 1.610e-02 1.610e-02 1.610e-02 1.610e-02 1.610e-02 1.610e-02 1.610e-02 1.610e-02 1.610e-02 1.610e-02 1.610e-02 1.610e-02 1.610e-02 1.610e-02 1.610e-02 1.610e-02 1.610e-02 1.610e-02 1.610e-02 1.610e-02 1.610e-02 1.610e-02 1.610e-02 1.610e-02 1.610e-02 1.610e-02 1.610e-02 1.610e-02 1.610e-02 1.610e-02 1.610e-02 1.610e-02 1.610e-02 1.610e-02 1.610e-02 1.610e-02 1.610e-02 1.610e-02 1.610e-02 1.610e-02 1.610e-02 1.610e-02 1.610e-02 1.610e-02 1.610e-02 1.610e-02 1.610e-02 1.610e-02 1.610e-02 1.610e-02 1.610e-02 1.610e-02 1.610e-02 1.610e-02 1.610e-02 1.610e-02 1.610e-02 1.610e-02 1.610e-02 1.610e-02 1.610e-02 1.610e-02 1.610e-02 1.610e-02 1.610e-02 1.610e-02 1.610e-02 1.610e-02 1.610e-02 1.610e-02 1.610e-02 1.610e-02 1.610e-02 1.610e-02 1.610e-02 1.610e-02 1.610e-02 1.610e-02 1.610e-02 1.610e-02 1.610e-02 1.610e-02 1.610e-02 1.610e-02 1.610e-02 1.610e-02 1.610e-02 1.610e-02 1.610e-02 1.610e-02 1.610e-02 1.610e-02 1.610e-02 1.610e-02 1.610e-02 1.610e-02 1.610e-02 1.610e-02 1.610e-02 1.610e-02 1.610e-02 1.610e-02 1.610e-02 1.610e-02 1.610e-02 1.610e-02 1.610e-02 1.610e-02 1.610e-02 1.610e-02 1.610e-02 1.610e-02 1.610e-02 1.610e-02 1.610e-02 1.610e-02 1.610e-02 1.610e-02 1.610e-02 1.610e-02 1.610e-02 1.610e-02 1.610e-02 1.610e-02 1.610e-02 1.610e-02 1.610e-02 1.610e-02 1.610e-02 1.610e-02 1.610e-02 1.610e-02 1.610e-02 1.610e-02 1.610e-02 1.610e-02 1.610e-02 1.610e-02 1.610e-02 1.610e-02 1.610e-02 1.610e-02 1.610e-02 1.610e-02 1.610e-02 1.610e-02 1.610e-02 1.610e-02 1.610e-02 1.610e-02 1.610e-02 1.610e-02 1.610e-02 1.610e-02 1.610e-02 1.610e-02 1.610e-02 1.610e-02 1.610e-02 1.610e-02 1.610e-02 1.610e-02 1.610e-02 1.610e-02 1.610e-02 1.610e-02 1.610e-02 1.610e-02 1.610e-02 1.610e-02 1.610e-02 1.610e-02 1.610e-02 1.610e-02 1.610e-02 1.610e-02 1.610e-02 1.610e-02 1.610e-02 1.610e-02 1.610e-02 1.610e-02 1.610e-02 1.610e-02 1.610e-02 1.610e-02 1.610e-02 1.610e-02 1.610e-02 1.610e-02 1.610e-02 1.610e-02 1.610e-02 1.610e-02 1.610e-02 1.610e-02 1.610e-02 1.610e-02 1.610e-02 1.610e-02 1.610e-02 1.610e-02 1.610e-02 1.610e-02 1.610e-02 1.610e-02 1.610e-02 1.610e-02 1.610e-02 1.610e-02 1.610e-02 1.610e-02 1.610e-02 1.610e-02 1.610e-02 1.610e-02 1.610e-02 1.610e-02 1.610e-02 1.610e-02 1.610e-02 1.610e-02 1.610e-02 1.610e-02 1.610e-02 1.610e-02
           </DataArray>
           <DataArray type="Float32" Name="nitrate/minimalNutrientConcentration" NumberOfComponents="1" format="ascii">