<?xml version="1.0"?>
<VTKFile type="UnstructuredGrid" version="0.1" byte_order="LittleEndian">
   <UnstructuredGrid>
      <Piece NumberOfPoints="22220" NumberOfCells="1556">
         <Points>
            <DataArray type="Float32" Name="Position" NumberOfComponents="3" format="ascii">
0.122	-5.023	0.058
0.129	-5.020	0.064
0.136	-5.023	0.069
0.139	-5.031	0.073
0.139	-5.040	0.074
0.134	-5.047	0.071
0.127	-5.050	0.065
0.120	-5.047	0.059
0.117	-5.039	0.055
0.117	-5.030	0.055
0.683	-5.098	-0.613
0.690	-5.095	-0.607
0.696	-5.098	-0.601
0.700	-5.105	-0.597
0.699	-5.115	-0.596
0.695	-5.122	-0.599
0.688	-5.125	-0.605
0.682	-5.122	-0.611
0.678	-5.114	-0.616
0.679	-5.105	-0.616
1.290	-5.183	-1.215
1.297	-5.180	-1.209
1.302	-5.183	-1.202
1.305	-5.191	-1.197
1.304	-5.200	-1.196
1.299	-5.207	-1.199
1.293	-5.210	-1.206
1.287	-5.207	-1.212
1.285	-5.199	-1.217
1.286	-5.190	-1.218
1.332	-5.195	-1.249
1.338	-5.192	-1.243
1.343	-5.195	-1.236
1.345	-5.202	-1.231
1.343	-5.211	-1.229
1.339	-5.218	-1.233
1.333	-5.221	-1.239
1.327	-5.218	-1.246
1.325	-5.211	-1.251
1.327	-5.202	-1.253
0.256	-5.092	0.118
0.255	-5.085	0.123
0.251	-5.081	0.130
0.246	-5.083	0.138
0.242	-5.091	0.142
0.240	-5.100	0.142
0.242	-5.107	0.137
0.246	-5.111	0.129
0.251	-5.108	0.122
0.255	-5.101	0.118
0.955	-5.229	0.558
0.954	-5.221	0.562
0.950	-5.217	0.569
0.944	-5.218	0.577
0.939	-5.225	0.581
0.936	-5.233	0.581
0.937	-5.242	0.576
0.941	-5.246	0.569
0.947	-5.244	0.562
0.952	-5.238	0.558
1.541	-5.502	1.090
1.540	-5.494	1.094
1.536	-5.488	1.100
1.529	-5.488	1.107
1.523	-5.494	1.111
1.519	-5.502	1.111
1.520	-5.511	1.108
1.524	-5.516	1.101
1.531	-5.516	1.095
1.537	-5.511	1.091
2.103	-5.667	1.694
2.103	-5.658	1.697
2.098	-5.653	1.703
2.091	-5.652	1.709
2.085	-5.657	1.714
2.082	-5.666	1.715
2.082	-5.675	1.712
2.087	-5.680	1.706
2.094	-5.681	1.700
2.100	-5.676	1.695
1.194	-5.928	0.601
1.198	-5.931	0.608
1.197	-5.934	0.617
1.191	-5.935	0.624
1.183	-5.934	0.626
1.174	-5.931	0.624
1.170	-5.927	0.616
1.171	-5.924	0.608
1.177	-5.923	0.601
1.185	-5.925	0.598
0.985	-6.732	0.306
0.990	-6.735	0.313
0.990	-6.738	0.321
0.985	-6.740	0.328
0.976	-6.740	0.332
0.967	-6.738	0.329
0.962	-6.734	0.322
0.962	-6.731	0.314
0.967	-6.729	0.306
0.976	-6.730	0.303
0.921	-7.518	0.010
0.927	-7.520	0.017
0.928	-7.523	0.026
0.922	-7.525	0.033
0.914	-7.526	0.037
0.905	-7.525	0.034
0.899	-7.523	0.027
0.899	-7.520	0.019
0.904	-7.517	0.011
0.912	-7.517	0.008
0.931	-8.030	-0.135
0.937	-8.031	-0.128
0.937	-8.034	-0.119
0.932	-8.036	-0.111
0.923	-8.037	-0.108
0.914	-8.037	-0.111
0.909	-8.035	-0.118
0.908	-8.032	-0.127
0.914	-8.030	-0.134
0.922	-8.029	-0.137
1.271	-6.028	0.648
1.279	-6.026	0.653
1.285	-6.030	0.659
1.287	-6.037	0.664
1.284	-6.046	0.667
1.278	-6.052	0.665
1.270	-6.054	0.660
1.264	-6.051	0.654
1.262	-6.044	0.649
1.265	-6.035	0.647
1.737	-6.347	0.010
1.745	-6.346	0.015
1.750	-6.349	0.022
1.751	-6.356	0.029
1.747	-6.364	0.031
1.740	-6.370	0.030
1.732	-6.372	0.025
1.727	-6.368	0.018
1.726	-6.361	0.012
1.730	-6.353	0.009
2.022	-6.676	-0.246
2.030	-6.676	-0.242
2.040	-6.676	-0.243
2.046	-6.676	-0.250
2.048	-6.676	-0.259
2.043	-6.676	-0.267
2.035	-6.676	-0.272
2.026	-6.676	-0.270
2.019	-6.676	-0.263
2.018	-6.676	-0.254
1.375	-6.158	0.693
1.376	-6.161	0.701
1.371	-6.162	0.710
1.364	-6.159	0.714
1.356	-6.154	0.714
1.351	-6.149	0.708
1.350	-6.146	0.699
1.354	-6.145	0.691
1.362	-6.148	0.686
1.370	-6.153	0.687
0.976	-6.844	0.463
0.974	-6.848	0.472
0.967	-6.847	0.478
0.959	-6.844	0.480
0.952	-6.839	0.477
0.949	-6.834	0.470
0.951	-6.831	0.461
0.958	-6.831	0.455
0.966	-6.834	0.453
0.973	-6.839	0.456
0.687	-7.487	0.027
0.684	-7.491	0.035
0.676	-7.492	0.040
0.668	-7.489	0.041
0.661	-7.484	0.038
0.659	-7.478	0.031
0.662	-7.474	0.023
0.669	-7.473	0.018
0.678	-7.476	0.017
0.685	-7.481	0.020
0.583	-7.738	-0.193
0.583	-7.734	-0.184
0.583	-7.736	-0.175
0.583	-7.742	-0.169
0.583	-7.751	-0.167
0.583	-7.760	-0.172
0.583	-7.764	-0.180
0.583	-7.762	-0.189
0.583	-7.756	-0.196
0.583	-7.747	-0.197
1.443	-6.256	0.738
1.450	-6.254	0.743
1.457	-6.257	0.748
1.460	-6.264	0.752
1.459	-6.273	0.753
1.454	-6.281	0.751
1.447	-6.283	0.745
1.440	-6.280	0.740
1.437	-6.273	0.736
1.438	-6.264	0.735
1.973	-6.373	0.049
1.980	-6.370	0.054
1.987	-6.373	0.059
1.990	-6.381	0.063
1.990	-6.390	0.064
1.985	-6.397	0.061
1.977	-6.400	0.056
1.971	-6.397	0.051
1.967	-6.389	0.047
1.968	-6.380	0.046
2.482	-6.447	-0.630
2.489	-6.445	-0.625
2.496	-6.448	-0.620
2.500	-6.455	-0.616
2.500	-6.465	-0.616
2.495	-6.472	-0.618
2.487	-6.475	-0.624
2.481	-6.472	-0.629
2.477	-6.464	-0.633
2.477	-6.455	-0.633
1.527	-6.375	0.776
1.534	-6.373	0.781
1.540	-6.376	0.787
1.543	-6.383	0.792
1.541	-6.392	0.793
1.536	-6.400	0.790
1.529	-6.402	0.785
1.523	-6.399	0.778
1.520	-6.392	0.774
1.521	-6.382	0.773
2.106	-6.539	0.110
2.113	-6.537	0.116
2.119	-6.540	0.122
2.122	-6.547	0.127
2.120	-6.556	0.128
2.115	-6.563	0.125
2.109	-6.566	0.120
2.103	-6.563	0.113
2.100	-6.555	0.109
2.101	-6.546	0.108
2.725	-6.723	-0.508
2.732	-6.720	-0.501
2.736	-6.723	-0.494
2.738	-6.730	-0.488
2.736	-6.739	-0.487
2.731	-6.746	-0.490
2.724	-6.749	-0.496
2.719	-6.746	-0.503
2.718	-6.739	-0.509
2.720	-6.730	-0.510
2.953	-6.841	-0.660
2.959	-6.838	-0.653
2.963	-6.841	-0.645
2.964	-6.848	-0.639
2.961	-6.856	-0.637
2.955	-6.863	-0.640
2.950	-6.866	-0.646
2.946	-6.863	-0.654
2.945	-6.856	-0.661
2.948	-6.848	-0.663
1.623	-6.519	0.822
1.627	-6.511	0.825
1.626	-6.502	0.825
1.620	-6.495	0.824
1.612	-6.493	0.821
1.604	-6.496	0.818
1.599	-6.504	0.816
1.600	-6.513	0.815
1.606	-6.520	0.816
1.615	-6.522	0.819
1.334	-6.613	1.659
1.339	-6.606	1.662
1.338	-6.596	1.662
1.333	-6.589	1.660
1.325	-6.587	1.657
1.317	-6.590	1.653
1.312	-6.598	1.651
1.313	-6.607	1.650
1.318	-6.614	1.652
1.327	-6.617	1.655
1.062	-6.643	2.179
1.067	-6.635	2.181
1.067	-6.626	2.182
1.061	-6.618	2.180
1.054	-6.616	2.176
1.046	-6.619	2.171
1.041	-6.626	2.169
1.042	-6.636	2.168
1.047	-6.643	2.170
1.055	-6.646	2.174
1.704	-6.639	0.854
1.707	-6.631	0.858
1.704	-6.623	0.862
1.697	-6.617	0.863
1.688	-6.616	0.862
1.681	-6.620	0.859
1.677	-6.628	0.855
1.680	-6.636	0.851
1.687	-6.642	0.850
1.696	-6.643	0.851
1.575	-6.981	1.603
1.578	-6.973	1.607
1.576	-6.965	1.611
1.569	-6.959	1.612
1.560	-6.958	1.611
1.552	-6.962	1.608
1.549	-6.970	1.603
1.551	-6.978	1.600
1.559	-6.984	1.598
1.568	-6.985	1.600
1.444	-7.324	2.269
1.447	-7.316	2.273
1.445	-7.308	2.277
1.438	-7.302	2.279
1.429	-7.301	2.277
1.421	-7.305	2.274
1.418	-7.313	2.269
1.420	-7.321	2.266
1.428	-7.326	2.264
1.437	-7.327	2.265
1.762	-6.742	0.884
1.770	-6.739	0.889
1.777	-6.742	0.894
1.782	-6.749	0.897
1.781	-6.759	0.897
1.777	-6.766	0.895
1.769	-6.769	0.890
1.762	-6.766	0.885
1.757	-6.758	0.882
1.758	-6.749	0.882
2.241	-6.773	0.142
2.248	-6.770	0.147
2.255	-6.773	0.152
2.259	-6.781	0.156
2.258	-6.790	0.156
2.253	-6.797	0.154
2.246	-6.800	0.149
2.239	-6.797	0.143
2.235	-6.789	0.139
2.236	-6.780	0.139
2.566	-6.860	-0.258
2.573	-6.857	-0.252
2.579	-6.860	-0.246
2.583	-6.868	-0.242
2.581	-6.877	-0.241
2.576	-6.884	-0.244
2.569	-6.887	-0.249
2.563	-6.884	-0.255
2.559	-6.876	-0.259
2.560	-6.867	-0.260
1.854	-6.892	0.923
1.858	-6.884	0.926
1.858	-6.875	0.927
1.852	-6.867	0.924
1.844	-6.865	0.921
1.837	-6.868	0.916
1.832	-6.875	0.913
1.833	-6.885	0.913
1.838	-6.892	0.915
1.846	-6.895	0.919
1.455	-6.960	1.678
1.460	-6.952	1.681
1.459	-6.943	1.682
1.454	-6.936	1.679
1.446	-6.933	1.675
1.439	-6.936	1.671
1.434	-6.943	1.668
1.435	-6.953	1.668
1.440	-6.960	1.670
1.448	-6.963	1.674
1.059	-6.996	2.397
1.064	-6.988	2.400
1.063	-6.979	2.400
1.058	-6.971	2.398
1.051	-6.969	2.394
1.043	-6.972	2.389
1.039	-6.979	2.387
1.039	-6.988	2.386
1.044	-6.996	2.389
1.052	-6.998	2.393
1.926	-7.002	0.934
1.925	-6.995	0.940
1.922	-6.993	0.949
1.918	-6.996	0.956
1.914	-7.004	0.960
1.913	-7.013	0.958
1.914	-7.020	0.952
1.917	-7.022	0.944
1.921	-7.019	0.936
1.924	-7.011	0.932
2.688	-7.181	1.261
2.687	-7.174	1.267
2.684	-7.171	1.275
2.680	-7.174	1.282
2.676	-7.182	1.286
2.674	-7.191	1.285
2.675	-7.198	1.279
2.678	-7.200	1.271
2.683	-7.197	1.263
2.687	-7.190	1.259
3.223	-7.336	1.539
3.223	-7.328	1.544
3.219	-7.325	1.553
3.214	-7.328	1.560
3.210	-7.336	1.564
3.208	-7.345	1.563
3.209	-7.352	1.557
3.213	-7.355	1.549
3.217	-7.352	1.542
3.221	-7.344	1.538
0.360	-5.152	0.187
0.367	-5.150	0.193
0.372	-5.153	0.200
0.375	-5.160	0.205
0.374	-5.169	0.205
0.369	-5.177	0.202
0.363	-5.179	0.196
0.358	-5.177	0.189
0.355	-5.169	0.184
0.356	-5.160	0.183
1.016	-5.270	-0.394
1.022	-5.268	-0.388
1.027	-5.270	-0.381
1.029	-5.278	-0.375
1.028	-5.287	-0.374
1.023	-5.294	-0.377
1.017	-5.297	-0.384
1.012	-5.294	-0.391
1.009	-5.287	-0.396
1.011	-5.278	-0.397
1.650	-5.514	-0.892
1.656	-5.511	-0.885
1.660	-5.514	-0.878
1.662	-5.521	-0.872
1.660	-5.530	-0.871
1.655	-5.537	-0.874
1.649	-5.540	-0.880
1.644	-5.537	-0.888
1.642	-5.530	-0.893
1.645	-5.521	-0.895
2.233	-5.740	-1.311
2.241	-5.740	-1.307
2.250	-5.740	-1.308
2.257	-5.740	-1.315
2.258	-5.740	-1.324
2.254	-5.740	-1.332
2.246	-5.740	-1.336
2.237	-5.740	-1.335
2.230	-5.740	-1.328
2.229	-5.740	-1.319
2.003	-7.147	0.972
2.000	-7.145	0.980
1.994	-7.141	0.986
1.987	-7.134	0.985
1.983	-7.128	0.980
1.982	-7.125	0.971
1.985	-7.126	0.962
1.991	-7.131	0.957
1.998	-7.138	0.957
2.002	-7.144	0.963
1.410	-7.721	0.832
1.407	-7.720	0.840
1.401	-7.716	0.846
1.395	-7.709	0.846
1.390	-7.703	0.841
1.388	-7.700	0.832
1.391	-7.702	0.823
1.397	-7.706	0.818
1.404	-7.713	0.818
1.408	-7.719	0.823
0.833	-8.336	0.768
0.831	-8.334	0.777
0.826	-8.329	0.783
0.819	-8.322	0.783
0.814	-8.317	0.778
0.811	-8.315	0.769
0.813	-8.317	0.760
0.819	-8.322	0.754
0.825	-8.328	0.754
0.831	-8.334	0.759
0.735	-8.437	0.780
0.733	-8.435	0.789
0.728	-8.429	0.794
0.721	-8.423	0.795
0.716	-8.418	0.789
0.713	-8.416	0.781
0.714	-8.419	0.772
0.719	-8.424	0.766
0.726	-8.431	0.766
0.732	-8.436	0.771
2.069	-7.279	0.994
2.073	-7.272	0.998
2.071	-7.263	1.000
2.065	-7.256	1.000
2.056	-7.254	0.997
2.049	-7.257	0.993
2.045	-7.265	0.989
2.047	-7.274	0.987
2.053	-7.281	0.988
2.062	-7.283	0.990
1.758	-7.516	1.797
1.761	-7.509	1.802
1.759	-7.500	1.805
1.752	-7.494	1.805
[...]
         <CellData>
           <DataArray type="Float32" Name="aerenchymaFormation" NumberOfComponents="1" format="ascii">
 8.316e-03 0.000e+00 0.000e+00 7.379e-03 0.000e+00 0.000e+00 0.000e+00 0.000e+00 0.000e+00 0.000e+00 0.000e+00 0.000e+00 0.000e+00 0.000e+00 0.000e+00 0.000e+00 0.000e+00 0.000e+00 0.000e+00 0.000e+00 0.000e+00 0.000e+00 0.000e+00 0.000e+00 0.000e+00 0.000e+00 0.000e+00 0.000e+00 0.000e+00 6.441e-03 0.000e+00 0.000e+00 0.000e+00 0.000e+00 0.000e+00 0.000e+00 0.000e+00 0.000e+00 0.000e+00 0.000e+00 0.000e+00 0.000e+00 0.000e+00 0.000e+00 0.000e+00 0.000e+00 0.000e+00 0.000e+00 0.000e+00 0.000e+00 0.000e+00 0.000e+00 0.000e+00 0.000e+00 5.504e-03 0.000e+00 0.000e+00 0.000e+00 0.000e+00 0.000e+00 0.000e+00 0.000e+00 0.000e+00 0.000e+00 0.000e+00 0.000e+00 0.000e+00 0.000e+00 0.000e+00 0.000e+00 0.000e+00 0.000e+00 0.000e+00 0.000e+00 0.000e+00 0.000e+00 4.566e-03 0.000e+00 0.000e+00 0.000e+00 0.000e+00 0.000e+00 0.000e+00 0.000e+00 0.000e+00 0.000e+00 0.000e+00 0.000e+00 0.000e+00 0.000e+00 0.000e+00 0.000e+00 0.000e+00 0.000e+00 0.000e+00 0.000e+00 0.000e+00 3.629e-03 0.000e+00 0.000e+00 0.000e+00 0.000e+00 0.000e+00 0.000e+00 0.000e+00 0.000e+00 0.000e+00 0.000e+00 0.000e+00 0.000e+00 2.691e-03 0.000e+00 0.000e+00 0.000e+00 0.000e+00 0.000e+00 0.000e+00 0.000e+00 0.000e+00 0.000e+00 0.000e+00 0.000e+00 0.000e+00 1.754e-03 0.000e+00 0.000e+00 0.000e+00 0.000e+00 0.000e+00 0.000e+00 0.000e+00 0.000e+00 0.000e+00 0.000e+00 0.000e+00 0.000e+00 8.160e-04 0.000e+00 0.000e+00 0.000e+00 0.000e+00 0.000e+00 0.000e+00 0.000e+00 0.000e+00 0.000e+00 0.000e+00 0.000e+00 0.000e+00 0.000e+00 6.833e-02 5.800e-02 5.300e-02 5.000e-02 4.250e-02 3.750e-02 3.250e-02 2.750e-02 2.250e-02 1.750e-02 1.250e-02 7.500e-03 2.500e-03 0.000e+00 0.000e+00 0.000e+00 0.000e+00 0.000e+00 0.000e+00 0.000e+00 0.000e+00 0.000e+00 0.000e+00 0.000e+00 0.000e+00 0.000e+00 0.000e+00 0.000e+00 8.316e-03 0.000e+00 0.000e+00 7.379e-03 0.000e+00 0.000e+00 0.000e+00 0.000e+00 0.000e+00 0.000e+00 0.000e+00 0.000e+00 0.000e+00 0.000e+00 0.000e+00 0.000e+00 0.000e+00 0.000e+00 0.000e+00 0.000e+00 0.000e+00 0.000e+00 0.000e+00 0.000e+00 0.000e+00 0.000e+00 0.000e+00 0.000e+00 0.000e+00 0.000e+00 0.000e+00 0.000e+00 6.441e-03 0.000e+00 0.000e+00 0.000e+00 0.000e+00 0.000e+00 0.000e+00 0.000e+00 0.000e+00 0.000e+00 0.000e+00 0.000e+00 0.000e+00 0.000e+00 0.000e+00 0.000e+00 0.000e+00 0.000e+00 0.000e+00 0.000e+00 0.000e+00 0.000e+00 0.000e+00 0.000e+00 5.504e-03 0.000e+00 0.000e+00 0.000e+00 0.000e+00 0.000e+00 0.000e+00 0.000e+00 0.000e+00 0.000e+00 0.000e+00 0.000e+00 0.000e+00 0.000e+00 0.000e+00 0.000e+00 0.000e+00 0.000e+00 0.000e+00 0.000e+00 0.000e+00 0.000e+00 0.000e+00 4.566e-03 0.000e+00 0.000e+00 0.000e+00 0.000e+00 0.000e+00 0.000e+00 0.000e+00 0.000e+00 0.000e+00 0.000e+00 0.000e+00 0.000e+00 0.000e+00 0.000e+00 0.000e+00 0.000e+00 0.000e+00 0.000e+00 0.000e+00 0.000e+00 0.000e+00 3.629e-03 0.000e+00 0.000e+00 0.000e+00 0.000e+00 0.000e+00 0.000e+00 0.000e+00 0.000e+00 0.000e+00 0.000e+00 0.000e+00 0.000e+00 0.000e+00 0.000e+00 2.691e-03 0.000e+00 0.000e+00 0.000e+00 0.000e+00 0.000e+00 0.000e+00 0.000e+00 0.000e+00 0.000e+00 0.000e+00 0.000e+00 0.000e+00 1.754e-03 0.000e+00 0.000e+00 0.000e+00 0.000e+00 0.000e+00 0.000e+00 0.000e+00 0.000e+00 0.000e+00 0.000e+00 0.000e+00 0.000e+00 8.160e-04 0.000e+00 0.000e+00 0.000e+00 0.000e+00 0.000e+00 0.000e+00 0.000e+00 0.000e+00 0.000e+00 0.000e+00 0.000e+00 0.000e+00 0.000e+00 6.833e-02 5.800e-02 5.300e-02 5.000e-02 4.250e-02 3.750e-02 3.250e-02 2.750e-02 2.250e-02 1.750e-02 1.250e-02 7.500e-03 2.500e-03 0.000e+00 0.000e+00 0.000e+00 0.000e+00 0.000e+00 0.000e+00 0.000e+00 0.000e+00 0.000e+00 0.000e+00 0.000e+00 0.000e+00 0.000e+00 0.000e+00 0.000e+00 8.316e-03 0.000e+00 0.000e+00 7.379e-03 0.000e+00 0.000e+00 0.000e+00 0.000e+00 0.000e+00 0.000e+00 0.000e+00 0.000e+00 0.000e+00 0.000e+00 0.000e+00 0.000e+00 0.000e+00 0.000e+00 0.000e+00 0.000e+00 0.000e+00 0.000e+00 0.000e+00 0.000e+00 0.000e+00 0.000e+00 0.000e+00 0.000e+00 0.000e+00 6.441e-03 0.000e+00 0.000e+00 0.000e+00 0.000e+00 0.000e+00 0.000e+00 0.000e+00 0.000e+00 0.000e+00 0.000e+00 0.000e+00 0.000e+00 0.000e+00 0.000e+00 0.000e+00 0.000e+00 0.000e+00 0.000e+00 0.000e+00 0.000e+00 0.000e+00 0.000e+00 0.000e+00 0.000e+00 5.504e-03 0.000e+00 0.000e+00 0.000e+00 0.000e+00 0.000e+00 0.000e+00 0.000e+00 0.000e+00 0.000e+00 0.000e+00 0.000e+00 0.000e+00 0.000e+00 0.000e+00 0.000e+00 0.000e+00 0.000e+00 0.000e+00 0.000e+00 0.000e+00 0.000e+00 4.566e-03 0.000e+00 0.000e+00 0.000e+00 0.000e+00 0.000e+00 0.000e+00 0.000e+00 0.000e+00 0.000e+00 0.000e+00 0.000e+00 0.000e+00 0.000e+00 0.000e+00 0.000e+00 0.000e+00 0.000e+00 0.000e+00 0.000e+00 3.629e-03 0.000e+00 0.000e+00 0.000e+00 0.000e+00 0.000e+00 0.000e+00 0.000e+00 0.000e+00 0.000e+00 0.000e+00 0.000e+00 0.000e+00 0.000e+00 0.000e+00 2.691e-03 0.000e+00 0.000e+00 0.000e+00 0.000e+00 0.000e+00 0.000e+00 0.000e+00 0.000e+00 0.000e+00 0.000e+00 0.000e+00 0.000e+00 1.754e-03 0.000e+00 0.000e+00 0.000e+00 0.000e+00 0.000e+00 0.000e+00 0.000e+00 0.000e+00 0.000e+00 0.000e+00 0.000e+00 0.000e+00 8.160e-04 0.000e+00 0.000e+00 0.000e+00 0.000e+00 0.000e+00 0.000e+00 0.000e+00 0.000e+00 0.000e+00 0.000e+00 0.000e+00 0.000e+00 0.000e+00 0.000e+00 6.833e-02 5.800e-02 5.300e-02 5.000e-02 4.250e-02 3.750e-02 3.250e-02 2.750e-02 2.250e-02 1.750e-02 1.250e-02 7.500e-03 2.500e-03 0.000e+00 0.000e+00 0.000e+00 0.000e+00 0.000e+00 0.000e+00 0.000e+00 0.000e+00 0.000e+00 0.000e+00 0.000e+00 0.000e+00 0.000e+00 0.000e+00 0.000e+00 8.316e-03 0.000e+00 0.000e+00 7.379e-03 0.000e+00 0.000e+00 0.000e+00 0.000e+00 0.000e+00 0.000e+00 0.000e+00 0.000e+00 0.000e+00 0.000e+00 0.000e+00 0.000e+00 0.000e+00 0.000e+00 0.000e+00 0.000e+00 0.000e+00 0.000e+00 0.000e+00 0.000e+00 0.000e+00 0.000e+00 0.000e+00 0.000e+00 0.000e+00 0.000e+00 0.000e+00 6.441e-03 0.000e+00 0.000e+00 0.000e+00 0.000e+00 0.000e+00 0.000e+00 0.000e+00 0.000e+00 0.000e+00 0.000e+00 0.000e+00 0.000e+00 0.000e+00 0.000e+00 0.000e+00 0.000e+00 0.000e+00 0.000e+00 0.000e+00 0.000e+00 0.000e+00 0.000e+00 0.000e+00 5.504e-03 0.000e+00 0.000e+00 0.000e+00 0.000e+00 0.000e+00 0.000e+00 0.000e+00 0.000e+00 0.000e+00 0.000e+00 0.000e+00 0.000e+00 0.000e+00 0.000e+00 0.000e+00 0.000e+00 0.000e+00 0.000e+00 0.000e+00 0.000e+00 0.000e+00 0.000e+00 4.566e-03 0.000e+00 0.000e+00 0.000e+00 0.000e+00 0.000e+00 0.000e+00 0.000e+00 0.000e+00 0.000e+00 0.000e+00 0.000e+00 0.000e+00 0.000e+00 0.000e+00 0.000e+00 0.000e+00 0.000e+00 0.000e+00 0.000e+00 0.000e+00 0.000e+00 3.629e-03 0.000e+00 0.000e+00 0.000e+00 0.000e+00 0.000e+00 0.000e+00 0.000e+00 0.000e+00 0.000e+00 0.000e+00 0.000e+00 2.691e-03 0.000e+00 0.000e+00 0.000e+00 0.000e+00 0.000e+00 0.000e+00 0.000e+00 0.000e+00 0.000e+00 0.000e+00 0.000e+00 0.000e+00 1.754e-03 0.000e+00 0.000e+00 0.000e+00 0.000e+00 0.000e+00 0.000e+00 0.000e+00 0.000e+00 0.000e+00 0.000e+00 0.000e+00 0.000e+00 8.160e-04 0.000e+00 0.000e+00 0.000e+00 0.000e+00 0.000e+00 0.000e+00 0.000e+00 0.000e+00 0.000e+00 0.000e+00 0.000e+00 0.000e+00 6.833e-02 5.800e-02 5.300e-02 5.000e-02 4.250e-02 3.750e-02 3.250e-02 2.750e-02 2.250e-02 1.750e-02 1.250e-02 7.500e-03 2.500e-03 0.000e+00 0.000e+00 0.000e+00 0.000e+00 0.000e+00 0.000e+00 0.000e+00 0.000e+00 0.000e+00 0.000e+00 0.000e+00 0.000e+00 0.000e+00 0.000e+00 0.000e+00 0.000e+00 0.000e+00 0.000e+00 0.000e+00 0.000e+00 0.000e+00 0.000e+00 0.000e+00 0.000e+00 0.000e+00 0.000e+00 0.000e+00 0.000e+00 0.000e+00 0.000e+00 0.000e+00 0.000e+00 0.000e+00 0.000e+00 0.000e+00 4.375e-02 1.750e-02 5.000e-03 0.000e+00 0.000e+00 0.000e+00 0.000e+00 0.000e+00 0.000e+00 0.000e+00 0.000e+00 0.000e+00 0.000e+00 0.000e+00 0.000e+00 0.000e+00 0.000e+00 0.000e+00 0.000e+00 0.000e+00 0.000e+00 0.000e+00 0.000e+00 0.000e+00 0.000e+00 0.000e+00 0.000e+00 0.000e+00 0.000e+00 0.000e+00 0.000e+00 0.000e+00 0.000e+00 0.000e+00 0.000e+00 0.000e+00 0.000e+00 4.375e-02 1.750e-02 5.000e-03 0.000e+00 0.000e+00 0.000e+00 0.000e+00 0.000e+00 0.000e+00 0.000e+00 0.000e+00 0.000e+00 0.000e+00 0.000e+00 0.000e+00 0.000e+00 0.000e+00 0.000e+00 0.000e+00 0.000e+00 0.000e+00 0.000e+00 0.000e+00 0.000e+00 0.000e+00 0.000e+00 0.000e+00 0.000e+00 0.000e+00 0.000e+00 0.000e+00 0.000e+00 0.000e+00 0.000e+00 0.000e+00 0.000e+00 0.000e+00 4.375e-02 1.750e-02 5.000e-03 0.000e+00 0.000e+00 0.000e+00 0.000e+00 0.000e+00 0.000e+00 0.000e+00 0.000e+00 0.000e+00 0.000e+00 0.000e+00 0.000e+00 0.000e+00 0.000e+00 0.000e+00 0.000e+00 0.000e+00 0.000e+00 0.000e+00 0.000e+00 0.000e+00 0.000e+00 0.000e+00 0.000e+00 0.000e+00 0.000e+00 0.000e+00 0.000e+00 0.000e+00 0.000e+00 0.000e+00 0.000e+00 0.000e+00 0.000e+00 4.375e-02 1.750e-02 5.000e-03 0.000e+00 0.000e+00 0.000e+00 0.000e+00 0.000e+00 0.000e+00 0.000e+00 0.000e+00 0.000e+00 0.000e+00 0.000e+00 0.000e+00 0.000e+00 0.000e+00 0.000e+00 0.000e+00 0.000e+00 0.000e+00 0.000e+00 0.000e+00 0.000e+00 0.000e+00 0.000e+00 0.000e+00 0.000e+00 0.000e+00 0.000e+00 0.000e+00 0.000e+00 0.000e+00 0.000e+00 0.000e+00 0.000e+00 0.000e+00 0.000e+00 0.000e+00 0.000e+00 0.000e+00 0.000e+00 0.000e+00 0.000e+00 0.000e+00 0.000e+00 0.000e+00 6.715e-02 5.600e-02 3.500e-02 5.000e-03 0.000e+00 0.000e+00 0.000e+00 0.000e+00 6.672e-02 5.600e-02 3.750e-02 1.000e-02 0.000e+00 0.000e+00 0.000e+00 6.291e-02 5.100e-02 2.250e-02 0.000e+00 0.000e+00 0.000e+00 0.000e+00 0.000e+00 0.000e+00 0.000e+00 0.000e+00 0.000e+00 0.000e+00 0.000e+00 0.000e+00 0.000e+00 0.000e+00 0.000e+00 0.000e+00 0.000e+00 0.000e+00 0.000e+00 0.000e+00 0.000e+00 0.000e+00 0.000e+00 0.000e+00 0.000e+00 0.000e+00 6.248e-02 5.100e-02 2.500e-02 0.000e+00 0.000e+00 0.000e+00 0.000e+00 0.000e+00 0.000e+00 0.000e+00 0.000e+00 0.000e+00 0.000e+00 0.000e+00 0.000e+00 0.000e+00 0.000e+00 0.000e+00 0.000e+00 0.000e+00 0.000e+00 0.000e+00 0.000e+00 0.000e+00 0.000e+00 0.000e+00 0.000e+00 6.206e-02 5.000e-02 2.000e-02 0.000e+00 0.000e+00 0.000e+00 0.000e+00 0.000e+00 0.000e+00 0.000e+00 0.000e+00 0.000e+00 0.000e+00 0.000e+00 0.000e+00 0.000e+00 0.000e+00 0.000e+00 0.000e+00 0.000e+00 0.000e+00 0.000e+00 0.000e+00 0.000e+00 0.000e+00 0.000e+00 0.000e+00 6.163e-02 5.000e-02 2.000e-02 0.000e+00 0.000e+00 0.000e+00 0.000e+00 0.000e+00 0.000e+00 0.000e+00 0.000e+00 0.000e+00 0.000e+00 0.000e+00 0.000e+00 0.000e+00 0.000e+00 0.000e+00 0.000e+00 6.121e-02 5.000e-02 2.250e-02 0.000e+00 0.000e+00 0.000e+00 0.000e+00 0.000e+00 0.000e+00 0.000e+00 0.000e+00 0.000e+00 0.000e+00 0.000e+00 0.000e+00 0.000e+00 0.000e+00 0.000e+00 0.000e+00 6.078e-02 5.200e-02 3.000e-02 5.000e-03 0.000e+00 0.000e+00 0.000e+00 0.000e+00 0.000e+00 0.000e+00 0.000e+00 0.000e+00 0.000e+00 0.000e+00 0.000e+00 0.000e+00 6.036e-02 4.250e-02 1.000e-02 0.000e+00 0.000e+00 5.994e-02 4.000e-02 5.000e-03 0.000e+00 0.000e+00 0.000e+00 0.000e+00 5.951e-02 5.000e-02 2.500e-02 0.000e+00 0.000e+00 0.000e+00 5.909e-02 4.500e-02 1.500e-02 0.000e+00 0.000e+00 0.000e+00 6.630e-02 5.400e-02 3.000e-02 0.000e+00 0.000e+00 0.000e+00 0.000e+00 0.000e+00 5.866e-02 4.500e-02 2.000e-02 0.000e+00 0.000e+00 0.000e+00 5.824e-02 4.000e-02 1.000e-02 0.000e+00 0.000e+00 5.782e-02 4.000e-02 1.000e-02 0.000e+00 0.000e+00 5.739e-02 3.500e-02 5.000e-03 0.000e+00 0.000e+00 5.697e-02 3.500e-02 5.000e-03 0.000e+00 0.000e+00 5.654e-02 3.250e-02 0.000e+00 0.000e+00 0.000e+00 0.000e+00 5.612e-02 4.000e-02 1.500e-02 0.000e+00 0.000e+00 0.000e+00 5.569e-02 3.000e-02 0.000e+00 0.000e+00 5.527e-02 3.500e-02 7.500e-03 0.000e+00 0.000e+00 5.485e-02 3.500e-02 7.500e-03 0.000e+00 0.000e+00 0.000e+00 0.000e+00 6.588e-02 5.500e-02 3.500e-02 7.500e-03 0.000e+00 0.000e+00 5.442e-02 3.500e-02 7.500e-03 0.000e+00 0.000e+00 5.400e-02 3.500e-02 1.000e-02 0.000e+00 0.000e+00 0.000e+00 0.000e+00 5.357e-02 3.500e-02 1.000e-02 0.000e+00 0.000e+00 0.000e+00 5.315e-02 2.750e-02 0.000e+00 0.000e+00 0.000e+00 5.272e-02 2.500e-02 0.000e+00 0.000e+00 0.000e+00 5.230e-02 2.500e-02 0.000e+00 0.000e+00 0.000e+00 5.188e-02 3.000e-02 5.000e-03 0.000e+00 0.000e+00 0.000e+00 5.145e-02 2.500e-02 0.000e+00 0.000e+00 0.000e+00 5.103e-02 2.000e-02 0.000e+00 0.000e+00 5.060e-02 2.500e-02 0.000e+00 0.000e+00 0.000e+00 0.000e+00 0.000e+00 0.000e+00 6.545e-02 5.600e-02 4.000e-02 1.500e-02 0.000e+00 0.000e+00 0.000e+00 5.018e-02 2.250e-02 0.000e+00 0.000e+00 0.000e+00 4.938e-02 2.000e-02 0.000e+00 0.000e+00 0.000e+00 4.832e-02 2.500e-02 0.000e+00 0.000e+00 0.000e+00 4.726e-02 1.500e-02 0.000e+00 0.000e+00 4.620e-02 2.000e-02 0.000e+00 0.000e+00 0.000e+00 4.514e-02 1.500e-02 0.000e+00 0.000e+00 4.408e-02 1.250e-02 0.000e+00 0.000e+00 4.302e-02 1.250e-02 0.000e+00 0.000e+00 4.196e-02 1.000e-02 0.000e+00 0.000e+00 4.090e-02 1.000e-02 0.000e+00 0.000e+00 0.000e+00 0.000e+00 6.503e-02 5.400e-02 3.250e-02 5.000e-03 0.000e+00 0.000e+00 3.984e-02 5.000e-03 0.000e+00 0.000e+00 3.878e-02 1.500e-02 0.000e+00 0.000e+00 0.000e+00 3.772e-02 1.000e-02 0.000e+00 0.000e+00 0.000e+00 3.666e-02 1.000e-02 0.000e+00 0.000e+00 0.000e+00 3.560e-02 1.000e-02 0.000e+00 0.000e+00 0.000e+00 3.454e-02 5.000e-03 0.000e+00 0.000e+00 3.347e-02 5.000e-03 0.000e+00 0.000e+00 3.241e-02 5.000e-03 0.000e+00 0.000e+00 3.135e-02 0.000e+00 0.000e+00 0.000e+00 3.029e-02 2.500e-03 0.000e+00 0.000e+00 0.000e+00 0.000e+00 6.460e-02 5.400e-02 3.000e-02 0.000e+00 0.000e+00 0.000e+00 2.923e-02 2.500e-03 0.000e+00 0.000e+00 2.817e-02 0.000e+00 0.000e+00 0.000e+00 2.711e-02 5.000e-03 0.000e+00 0.000e+00 0.000e+00 2.605e-02 0.000e+00 0.000e+00 0.000e+00 2.499e-02 0.000e+00 0.000e+00 0.000e+00 2.393e-02 0.000e+00 0.000e+00 0.000e+00 2.287e-02 0.000e+00 0.000e+00 0.000e+00 2.181e-02 0.000e+00 0.000e+00 0.000e+00 2.075e-02 0.000e+00 0.000e+00 0.000e+00 1.969e-02 0.000e+00 0.000e+00 0.000e+00 0.000e+00 6.418e-02 5.200e-02 2.500e-02 0.000e+00 0.000e+00 0.000e+00 1.863e-02 0.000e+00 0.000e+00 0.000e+00 1.756e-02 0.000e+00 0.000e+00 1.650e-02 0.000e+00 0.000e+00 1.544e-02 0.000e+00 0.000e+00 0.000e+00 1.438e-02 0.000e+00 0.000e+00 1.332e-02 0.000e+00 0.000e+00 0.000e+00 1.226e-02 0.000e+00 0.000e+00 1.120e-02 0.000e+00 0.000e+00 0.000e+00 1.014e-02 0.000e+00 0.000e+00 9.079e-03 0.000e+00 0.000e+00 0.000e+00 6.375e-02 5.000e-02 1.500e-02 0.000e+00 0.000e+00 8.019e-03 0.000e+00 0.000e+00 6.958e-03 0.000e+00 0.000e+00 5.897e-03 0.000e+00 0.000e+00 0.000e+00 4.837e-03 0.000e+00 0.000e+00 3.776e-03 0.000e+00 0.000e+00 0.000e+00 2.715e-03 0.000e+00 0.000e+00 1.655e-03 0.000e+00 0.000e+00 5.940e-04 0.000e+00 0.000e+00 0.000e+00 0.000e+00 0.000e+00 0.000e+00 0.000e+00 0.000e+00 0.000e+00 0.000e+00 6.333e-02 5.300e-02 3.000e-02 5.000e-03 0.000e+00 0.000e+00 0.000e+00 0.000e+00 0.000e+00 0.000e+00 0.000e+00 0.000e+00 0.000e+00 0.000e+00 0.000e+00 0.000e+00 0.000e+00 0.000e+00 0.000e+00 0.000e+00 0.000e+00 0.000e+00 0.000e+00 0.000e+00 0.000e+00 0.000e+00 0.000e+00 0.000e+00 0.000e+00 0.000e+00 0.000e+00 0.000e+00 0.000e+00 0.000e+00 0.000e+00 0.000e+00 0.000e+00 0.000e+00 0.000e+00 0.000e+00 0.000e+00 0.000e+00 0.000e+00 0.000e+00 0.000e+00 0.000e+00 0.000e+00 0.000e+00 6.216e-02 5.600e-02 5.000e-02 3.500e-02 2.000e-02 5.000e-03 0.000e+00 0.000e+00 0.000e+00 0.000e+00 0.000e+00 0.000e+00 0.000e+00 0.000e+00 0.000e+00 5.163e-02 3.500e-02 1.750e-02 0.000e+00 0.000e+00 0.000e+00 0.000e+00 0.000e+00 0.000e+00 0.000e+00 0.000e+00 2.722e-02 1.000e-02 0.000e+00 0.000e+00 0.000e+00 0.000e+00 0.000e+00 0.000e+00 0.000e+00 0.000e+00 0.000e+00 0.000e+00 0.000e+00 0.000e+00 0.000e+00 1.168e-01 1.118e-01 1.067e-01 1.017e-01 9.800e-02 9.500e-02 9.100e-02 8.800e-02 8.500e-02 8.100e-02 7.800e-02 7.500e-02 7.100e-02 6.800e-02 6.500e-02 6.200e-02 5.900e-02 5.600e-02 5.300e-02 5.000e-02 4.250e-02 3.500e-02 2.750e-02 2.000e-02 1.250e-02 5.000e-03 0.000e+00 0.000e+00 0.000e+00 0.000e+00 0.000e+00 0.000e+00 0.000e+00 0.000e+00 0.000e+00
           </DataArray>
           <DataArray type="Float32" Name="combinedRootClassID" NumberOfComponents="1" format="ascii">