<?xml version="1.0"?>
<VTKFile type="UnstructuredGrid" version="0.1" byte_order="LittleEndian">
   <UnstructuredGrid>
      <Piece NumberOfPoints="8660" NumberOfCells="593">
         <Points>
            <DataArray type="Float32" Name="Position" NumberOfComponents="3" format="ascii">
0.122	-5.023	0.058
0.129	-5.020	0.064
0.136	-5.023	0.069
0.139	-5.031	0.073
0.138	-5.040	0.074
0.134	-5.047	0.071
0.127	-5.050	0.065
0.120	-5.047	0.059
0.117	-5.039	0.055
0.117	-5.030	0.055
0.586	-5.089	-0.484
0.593	-5.086	-0.478
0.599	-5.089	-0.473
0.603	-5.097	-0.469
0.602	-5.106	-0.468
0.598	-5.113	-0.471
0.591	-5.116	-0.477
0.584	-5.113	-0.483
0.581	-5.105	-0.487
0.581	-5.096	-0.487
0.256	-5.092	0.118
0.255	-5.085	0.123
0.251	-5.081	0.130
0.246	-5.083	0.138
0.242	-5.091	0.142
0.240	-5.100	0.142
0.242	-5.107	0.137
0.246	-5.111	0.129
0.251	-5.108	0.122
0.255	-5.101	0.118
0.955	-5.229	0.558
0.953	-5.221	0.562
0.949	-5.217	0.569
0.944	-5.218	0.577
0.939	-5.225	0.581
0.937	-5.234	0.581
0.938	-5.242	0.576
0.942	-5.246	0.569
0.948	-5.244	0.562
0.953	-5.238	0.557
1.073	-5.262	0.651
1.072	-5.254	0.655
1.067	-5.249	0.662
1.061	-5.250	0.669
1.056	-5.257	0.674
1.054	-5.265	0.674
1.055	-5.274	0.670
1.059	-5.278	0.663
1.065	-5.277	0.656
1.070	-5.271	0.651
1.194	-5.928	0.601
1.198	-5.932	0.608
1.197	-5.935	0.617
1.191	-5.936	0.624
1.182	-5.934	0.626
1.174	-5.931	0.624
1.170	-5.927	0.616
1.171	-5.924	0.608
1.177	-5.923	0.601
1.186	-5.925	0.598
0.997	-6.580	0.354
0.997	-6.575	0.362
0.997	-6.577	0.372
0.997	-6.583	0.378
0.997	-6.593	0.380
0.997	-6.601	0.375
0.997	-6.605	0.367
0.997	-6.604	0.358
0.997	-6.597	0.351
0.997	-6.588	0.350
1.270	-6.028	0.649
1.278	-6.026	0.653
1.285	-6.030	0.659
1.287	-6.037	0.664
1.285	-6.046	0.666
1.279	-6.052	0.665
1.271	-6.054	0.660
1.264	-6.051	0.654
1.262	-6.044	0.650
1.264	-6.035	0.647
1.494	-6.174	0.310
1.502	-6.172	0.314
1.509	-6.176	0.320
1.511	-6.183	0.325
1.509	-6.192	0.327
1.503	-6.198	0.326
1.495	-6.200	0.321
1.488	-6.197	0.316
1.486	-6.190	0.311
1.488	-6.181	0.309
1.375	-6.157	0.692
1.376	-6.161	0.701
1.372	-6.161	0.709
1.365	-6.159	0.714
1.357	-6.154	0.714
1.351	-6.150	0.709
1.349	-6.146	0.700
1.353	-6.146	0.692
1.361	-6.148	0.686
1.369	-6.153	0.687
1.098	-6.688	0.531
1.099	-6.691	0.539
1.095	-6.692	0.548
1.088	-6.689	0.553
1.080	-6.685	0.553
1.074	-6.680	0.547
1.072	-6.677	0.539
1.076	-6.676	0.530
1.084	-6.679	0.525
1.092	-6.683	0.525
1.443	-6.256	0.738
1.450	-6.254	0.743
1.456	-6.257	0.749
1.460	-6.264	0.753
1.459	-6.273	0.753
1.454	-6.281	0.750
1.447	-6.283	0.745
1.441	-6.280	0.739
1.437	-6.273	0.735
1.438	-6.264	0.735
1.758	-6.308	0.338
1.766	-6.306	0.343
1.772	-6.309	0.349
1.776	-6.316	0.353
1.775	-6.325	0.353
1.770	-6.333	0.350
1.763	-6.335	0.345
1.757	-6.332	0.339
1.753	-6.325	0.336
1.754	-6.316	0.335
1.527	-6.375	0.775
1.534	-6.373	0.781
1.540	-6.376	0.787
1.543	-6.383	0.792
1.541	-6.392	0.793
1.536	-6.399	0.790
1.529	-6.402	0.785
1.523	-6.399	0.779
1.520	-6.391	0.774
1.522	-6.382	0.773
1.918	-6.500	0.338
1.925	-6.498	0.343
1.931	-6.501	0.349
1.934	-6.508	0.354
1.933	-6.518	0.355
1.928	-6.525	0.353
1.921	-6.527	0.347
1.914	-6.524	0.341
1.912	-6.517	0.336
1.913	-6.508	0.335
1.623	-6.519	0.822
1.627	-6.511	0.824
1.626	-6.502	0.825
1.620	-6.495	0.824
1.612	-6.493	0.821
1.604	-6.496	0.818
1.599	-6.504	0.816
1.600	-6.513	0.816
1.606	-6.520	0.817
1.614	-6.522	0.819
1.502	-6.555	1.213
1.507	-6.547	1.215
1.506	-6.538	1.216
1.500	-6.531	1.214
1.491	-6.528	1.212
1.483	-6.532	1.209
1.479	-6.540	1.207
1.480	-6.549	1.206
1.486	-6.556	1.208
1.494	-6.558	1.210
1.703	-6.640	0.855
1.707	-6.632	0.859
1.705	-6.623	0.861
1.698	-6.617	0.862
1.689	-6.616	0.860
1.681	-6.620	0.858
1.677	-6.628	0.854
1.679	-6.636	0.852
1.686	-6.642	0.851
1.695	-6.644	0.852
1.625	-6.773	1.254
1.628	-6.765	1.257
1.626	-6.757	1.260
1.619	-6.751	1.260
1.610	-6.749	1.259
1.602	-6.753	1.256
1.599	-6.761	1.253
1.601	-6.770	1.250
1.608	-6.776	1.250
1.617	-6.777	1.251
1.763	-6.742	0.884
1.770	-6.739	0.889
1.777	-6.742	0.894
1.781	-6.749	0.897
1.781	-6.759	0.898
1.776	-6.766	0.895
1.769	-6.769	0.890
1.762	-6.766	0.885
1.757	-6.758	0.882
1.758	-6.749	0.881
1.967	-6.759	0.585
1.974	-6.756	0.590
1.981	-6.759	0.595
1.986	-6.766	0.599
1.985	-6.776	0.599
1.980	-6.783	0.596
1.973	-6.786	0.591
1.966	-6.783	0.586
1.962	-6.775	0.583
1.962	-6.766	0.582
1.854	-6.891	0.922
1.859	-6.884	0.925
1.858	-6.874	0.926
1.852	-6.867	0.924
1.844	-6.865	0.921
1.836	-6.868	0.917
1.832	-6.876	0.914
1.833	-6.885	0.914
1.838	-6.892	0.915
1.847	-6.895	0.918
1.694	-6.943	1.303
1.698	-6.935	1.306
1.697	-6.926	1.307
1.691	-6.919	1.306
1.683	-6.916	1.302
1.675	-6.920	1.299
1.671	-6.927	1.296
1.672	-6.937	1.295
1.678	-6.944	1.296
1.686	-6.946	1.300
1.924	-7.000	0.934
1.922	-6.994	0.941
1.919	-6.993	0.950
1.917	-6.998	0.957
1.915	-7.006	0.960
1.915	-7.015	0.958
1.916	-7.021	0.951
1.919	-7.022	0.943
1.922	-7.017	0.935
1.924	-7.009	0.932
2.257	-7.029	1.039
2.256	-7.022	1.046
2.253	-7.022	1.054
2.250	-7.026	1.062
2.248	-7.035	1.065
2.248	-7.044	1.063
2.250	-7.050	1.056
2.253	-7.051	1.047
2.255	-7.046	1.040
2.257	-7.038	1.037
0.360	-5.152	0.187
0.367	-5.150	0.193
0.372	-5.153	0.200
0.375	-5.160	0.205
0.374	-5.169	0.205
0.369	-5.177	0.202
0.363	-5.179	0.196
0.358	-5.177	0.189
0.355	-5.169	0.184
0.356	-5.160	0.183
1.016	-5.270	-0.394
1.021	-5.267	-0.387
1.026	-5.270	-0.380
1.028	-5.278	-0.375
1.027	-5.287	-0.374
1.023	-5.294	-0.377
1.017	-5.297	-0.384
1.013	-5.294	-0.392
1.010	-5.287	-0.397
1.011	-5.278	-0.398
1.082	-5.284	-0.432
1.087	-5.281	-0.425
1.091	-5.284	-0.417
1.093	-5.291	-0.411
1.091	-5.300	-0.410
1.088	-5.308	-0.414
1.083	-5.311	-0.421
1.079	-5.308	-0.429
1.077	-5.301	-0.435
1.078	-5.292	-0.436
2.003	-7.146	0.972
2.000	-7.146	0.980
1.994	-7.141	0.985
1.987	-7.134	0.985
1.983	-7.128	0.980
1.982	-7.125	0.971
1.985	-7.126	0.963
1.991	-7.131	0.957
1.998	-7.137	0.957
2.002	-7.143	0.963
1.715	-7.432	0.893
1.712	-7.431	0.902
1.706	-7.427	0.907
1.699	-7.420	0.907
1.695	-7.414	0.902
1.694	-7.411	0.893
1.697	-7.412	0.884
1.703	-7.416	0.879
1.710	-7.423	0.879
1.714	-7.429	0.885
2.069	-7.279	0.994
2.073	-7.271	0.997
2.072	-7.263	0.999
2.065	-7.256	0.999
2.056	-7.254	0.997
2.049	-7.258	0.993
2.045	-7.265	0.990
2.046	-7.274	0.988
2.053	-7.281	0.988
2.062	-7.283	0.990
1.980	-7.353	1.268
1.984	-7.346	1.271
1.983	-7.337	1.273
1.976	-7.330	1.273
1.967	-7.328	1.270
1.960	-7.332	1.267
1.956	-7.339	1.263
1.957	-7.348	1.262
1.964	-7.355	1.262
1.973	-7.357	1.264
2.127	-7.393	1.003
2.126	-7.387	1.011
2.124	-7.388	1.020
2.122	-7.393	1.027
2.121	-7.402	1.030
2.122	-7.411	1.027
2.123	-7.416	1.019
2.125	-7.416	1.010
2.127	-7.410	1.003
2.128	-7.402	1.001
2.438	-7.398	1.072
2.437	-7.393	1.079
2.435	-7.393	1.088
2.433	-7.398	1.095
2.432	-7.407	1.098
2.433	-7.416	1.095
2.435	-7.421	1.088
2.436	-7.421	1.079
2.438	-7.416	1.071
2.439	-7.407	1.069
2.187	-7.530	1.024
2.185	-7.524	1.031
2.182	-7.524	1.040
2.180	-7.529	1.047
2.179	-7.537	1.050
2.179	-7.546	1.048
2.182	-7.552	1.041
2.184	-7.553	1.032
2.187	-7.548	1.025
2.188	-7.539	1.022
2.507	-7.535	1.124
2.505	-7.529	1.131
2.502	-7.529	1.140
2.500	-7.534	1.147
2.499	-7.542	1.150
2.499	-7.551	1.148
2.501	-7.557	1.141
2.504	-7.558	1.132
2.507	-7.553	1.125
2.508	-7.544	1.122
2.251	-7.686	1.059
2.246	-7.684	1.067
2.240	-7.679	1.071
2.234	-7.672	1.069
2.232	-7.666	1.063
2.233	-7.663	1.054
2.237	-7.665	1.046
2.243	-7.671	1.042
2.249	-7.678	1.044
2.252	-7.684	1.050
2.043	-7.865	0.982
2.039	-7.863	0.990
2.032	-7.858	0.994
2.027	-7.851	0.993
2.024	-7.845	0.986
2.025	-7.842	0.977
2.030	-7.844	0.969
2.036	-7.849	0.966
2.041	-7.857	0.967
2.044	-7.863	0.974
2.309	-7.823	1.076
2.313	-7.815	1.080
2.311	-7.806	1.082
2.304	-7.800	1.082
2.296	-7.798	1.080
2.288	-7.802	1.077
2.284	-7.809	1.073
2.286	-7.818	1.071
2.292	-7.825	1.071
2.301	-7.826	1.073
2.232	-7.874	1.290
2.240	-7.874	1.294
2.249	-7.874	1.293
2.256	-7.874	1.286
2.257	-7.874	1.277
2.253	-7.874	1.269
2.245	-7.874	1.265
2.235	-7.874	1.266
2.229	-7.874	1.273
2.227	-7.874	1.282
2.363	-7.962	1.100
2.357	-7.960	1.107
2.351	-7.954	1.110
2.346	-7.946	1.108
2.344	-7.940	1.101
2.347	-7.938	1.092
2.352	-7.940	1.085
2.359	-7.946	1.082
2.364	-7.953	1.085
2.365	-7.959	1.092
2.233	-8.062	1.014
2.238	-8.062	1.022
2.236	-8.062	1.031
2.230	-8.062	1.038
2.220	-8.062	1.039
2.212	-8.062	1.035
2.208	-8.062	1.027
2.209	-8.062	1.017
2.216	-8.062	1.011
2.225	-8.062	1.009
2.416	-8.100	1.119
2.420	-8.093	1.122
2.419	-8.084	1.123
2.413	-8.077	1.122
2.405	-8.074	1.118
2.397	-8.078	1.114
2.393	-8.085	1.111
2.394	-8.094	1.110
2.400	-8.101	1.111
2.408	-8.104	1.115
2.343	-8.131	1.290
2.347	-8.123	1.293
2.346	-8.114	1.294
2.340	-8.107	1.293
2.332	-8.104	1.289
2.324	-8.108	1.286
2.320	-8.115	1.282
2.321	-8.125	1.281
2.327	-8.132	1.282
2.335	-8.134	1.286
2.464	-8.241	1.141
2.459	-8.238	1.149
2.453	-8.231	1.152
2.449	-8.224	1.149
2.447	-8.218	1.142
2.449	-8.217	1.133
2.453	-8.220	1.125
2.459	-8.227	1.123
2.464	-8.234	1.125
2.466	-8.240	1.132
2.333	-8.340	1.099
2.328	-8.337	1.106
2.322	-8.330	1.109
2.317	-8.323	1.106
2.316	-8.317	1.099
2.317	-8.316	1.090
2.322	-8.319	1.083
2.328	-8.326	1.080
2.333	-8.333	1.083
2.335	-8.339	1.090
2.517	-8.379	1.158
2.521	-8.371	1.161
2.519	-8.362	1.163
2.512	-8.356	1.164
2.503	-8.355	1.163
2.495	-8.359	1.160
2.492	-8.367	1.157
2.494	-8.375	1.155
2.501	-8.382	1.154
2.510	-8.383	1.155
2.493	-8.426	1.306
2.496	-8.418	1.309
2.494	-8.409	1.312
2.487	-8.403	1.313
2.478	-8.402	1.311
2.470	-8.406	1.309
2.467	-8.414	1.306
2.469	-8.422	1.303
2.476	-8.429	1.303
2.485	-8.430	1.304
0.486	-5.241	0.242
0.491	-5.245	0.249
0.491	-5.248	0.257
0.486	-5.250	0.265
0.477	-5.250	0.268
0.468	-5.247	0.266
0.463	-5.243	0.259
0.463	-5.239	0.251
0.469	-5.237	0.244
0.477	-5.238	0.240
0.362	-5.761	0.016
0.367	-5.765	0.022
0.367	-5.769	0.031
0.362	-5.770	0.038
0.353	-5.770	0.042
0.345	-5.767	0.040
0.339	-5.763	0.033
0.339	-5.759	0.025
0.345	-5.757	0.017
0.353	-5.758	0.014
2.562	-8.501	1.170
2.560	-8.495	1.177
2.557	-8.493	1.185
2.553	-8.498	1.193
2.551	-8.506	1.196
2.551	-8.515	1.195
2.553	-8.522	1.188
2.556	-8.523	1.180
2.559	-8.518	1.172
[...]
         <CellData>
           <DataArray type="Float32" Name="aerenchymaFormation" NumberOfComponents="1" format="ascii">
 0.000e+00 0.000e+00 0.000e+00 0.000e+00 0.000e+00 0.000e+00 0.000e+00 0.000e+00 0.000e+00 0.000e+00 0.000e+00 0.000e+00 0.000e+00 0.000e+00 0.000e+00 0.000e+00 0.000e+00 0.000e+00 0.000e+00 0.000e+00 0.000e+00 0.000e+00 0.000e+00 0.000e+00 0.000e+00 0.000e+00 0.000e+00 0.000e+00 0.000e+00 0.000e+00 0.000e+00 0.000e+00 0.000e+00 0.000e+00 0.000e+00 0.000e+00 0.000e+00 0.000e+00 4.583e-02 2.000e-02 7.500e-03 0.000e+00 0.000e+00 0.000e+00 0.000e+00 0.000e+00 0.000e+00 0.000e+00 0.000e+00 0.000e+00 0.000e+00 0.000e+00 0.000e+00 0.000e+00 0.000e+00 0.000e+00 0.000e+00 0.000e+00 0.000e+00 0.000e+00 0.000e+00 0.000e+00 0.000e+00 0.000e+00 0.000e+00 0.000e+00 0.000e+00 0.000e+00 0.000e+00 0.000e+00 0.000e+00 0.000e+00 0.000e+00 0.000e+00 0.000e+00 0.000e+00 0.000e+00 0.000e+00 0.000e+00 0.000e+00 0.000e+00 0.000e+00 0.000e+00 0.000e+00 0.000e+00 0.000e+00 0.000e+00 0.000e+00 0.000e+00 0.000e+00 0.000e+00 0.000e+00 0.000e+00 4.583e-02 2.000e-02 7.500e-03 0.000e+00 0.000e+00 0.000e+00 0.000e+00 0.000e+00 0.000e+00 0.000e+00 0.000e+00 0.000e+00 0.000e+00 0.000e+00 0.000e+00 0.000e+00 0.000e+00 0.000e+00 0.000e+00 0.000e+00 0.000e+00 0.000e+00 0.000e+00 0.000e+00 0.000e+00 0.000e+00 0.000e+00 0.000e+00 0.000e+00 0.000e+00 0.000e+00 0.000e+00 0.000e+00 0.000e+00 0.000e+00 0.000e+00 0.000e+00 0.000e+00 0.000e+00 0.000e+00 0.000e+00 0.000e+00 0.000e+00 0.000e+00 0.000e+00 0.000e+00 0.000e+00 0.000e+00 0.000e+00 0.000e+00 0.000e+00 0.000e+00 0.000e+00 0.000e+00 0.000e+00 4.583e-02 2.000e-02 7.500e-03 0.000e+00 0.000e+00 0.000e+00 0.000e+00 0.000e+00 0.000e+00 0.000e+00 0.000e+00 0.000e+00 0.000e+00 0.000e+00 0.000e+00 0.000e+00 0.000e+00 0.000e+00 0.000e+00 0.000e+00 0.000e+00 0.000e+00 0.000e+00 0.000e+00 0.000e+00 0.000e+00 0.000e+00 0.000e+00 0.000e+00 0.000e+00 0.000e+00 0.000e+00 0.000e+00 0.000e+00 0.000e+00 0.000e+00 0.000e+00 0.000e+00 0.000e+00 0.000e+00 0.000e+00 0.000e+00 0.000e+00 0.000e+00 0.000e+00 0.000e+00 0.000e+00 0.000e+00 0.000e+00 0.000e+00 0.000e+00 0.000e+00 0.000e+00 0.000e+00 4.583e-02 2.000e-02 7.500e-03 0.000e+00 0.000e+00 0.000e+00 0.000e+00 0.000e+00 0.000e+00 0.000e+00 0.000e+00 0.000e+00 0.000e+00 0.000e+00 0.000e+00 0.000e+00 0.000e+00 0.000e+00 0.000e+00 0.000e+00 0.000e+00 0.000e+00 0.000e+00 0.000e+00 0.000e+00 0.000e+00 0.000e+00 0.000e+00 0.000e+00 0.000e+00 0.000e+00 0.000e+00 0.000e+00 0.000e+00 0.000e+00 0.000e+00 0.000e+00 0.000e+00 0.000e+00 0.000e+00 0.000e+00 0.000e+00 0.000e+00 0.000e+00 0.000e+00 0.000e+00 0.000e+00 0.000e+00 0.000e+00 0.000e+00 0.000e+00 0.000e+00 0.000e+00 0.000e+00 0.000e+00 0.000e+00 4.287e-02 1.500e-02 0.000e+00 0.000e+00 4.181e-02 1.500e-02 0.000e+00 0.000e+00 0.000e+00 3.227e-02 2.500e-03 0.000e+00 0.000e+00 0.000e+00 0.000e+00 0.000e+00 0.000e+00 0.000e+00 0.000e+00 0.000e+00 0.000e+00 0.000e+00 0.000e+00 3.120e-02 2.500e-03 0.000e+00 0.000e+00 0.000e+00 0.000e+00 3.014e-02 0.000e+00 0.000e+00 0.000e+00 2.908e-02 0.000e+00 0.000e+00 0.000e+00 2.802e-02 0.000e+00 0.000e+00 0.000e+00 2.696e-02 5.000e-03 0.000e+00 0.000e+00 0.000e+00 2.590e-02 0.000e+00 0.000e+00 2.484e-02 0.000e+00 0.000e+00 2.378e-02 0.000e+00 0.000e+00 0.000e+00 2.272e-02 0.000e+00 0.000e+00 0.000e+00 4.075e-02 1.000e-02 0.000e+00 0.000e+00 2.166e-02 0.000e+00 0.000e+00 0.000e+00 2.060e-02 0.000e+00 0.000e+00 0.000e+00 1.954e-02 0.000e+00 0.000e+00 0.000e+00 1.848e-02 0.000e+00 0.000e+00 1.742e-02 0.000e+00 0.000e+00 1.636e-02 0.000e+00 0.000e+00 1.529e-02 0.000e+00 0.000e+00 0.000e+00 1.423e-02 0.000e+00 0.000e+00 1.317e-02 0.000e+00 0.000e+00 0.000e+00 1.211e-02 0.000e+00 0.000e+00 0.000e+00 3.969e-02 1.250e-02 0.000e+00 0.000e+00 0.000e+00 1.105e-02 0.000e+00 0.000e+00 0.000e+00 9.992e-03 0.000e+00 0.000e+00 0.000e+00 8.931e-03 0.000e+00 0.000e+00 0.000e+00 7.870e-03 0.000e+00 0.000e+00 6.810e-03 0.000e+00 0.000e+00 5.749e-03 0.000e+00 0.000e+00 4.688e-03 0.000e+00 0.000e+00 0.000e+00 3.627e-03 0.000e+00 0.000e+00 2.567e-03 0.000e+00 0.000e+00 1.506e-03 0.000e+00 0.000e+00 3.863e-02 1.500e-02 0.000e+00 0.000e+00 0.000e+00 4.455e-04 0.000e+00 0.000e+00 0.000e+00 0.000e+00 0.000e+00 0.000e+00 0.000e+00 0.000e+00 0.000e+00 0.000e+00 0.000e+00 0.000e+00 0.000e+00 0.000e+00 0.000e+00 0.000e+00 0.000e+00 0.000e+00 0.000e+00 0.000e+00 0.000e+00 0.000e+00 0.000e+00 0.000e+00 0.000e+00 0.000e+00 0.000e+00 0.000e+00 0.000e+00 3.757e-02 1.000e-02 0.000e+00 0.000e+00 0.000e+00 0.000e+00 0.000e+00 0.000e+00 0.000e+00 0.000e+00 0.000e+00 0.000e+00 0.000e+00 0.000e+00 0.000e+00 0.000e+00 0.000e+00 0.000e+00 0.000e+00 0.000e+00 0.000e+00 0.000e+00 0.000e+00 0.000e+00 0.000e+00 0.000e+00 0.000e+00 0.000e+00 0.000e+00 0.000e+00 0.000e+00 3.651e-02 1.000e-02 0.000e+00 0.000e+00 0.000e+00 0.000e+00 0.000e+00 0.000e+00 0.000e+00 0.000e+00 0.000e+00 0.000e+00 0.000e+00 0.000e+00 0.000e+00 0.000e+00 0.000e+00 0.000e+00 0.000e+00 0.000e+00 0.000e+00 0.000e+00 0.000e+00 0.000e+00 0.000e+00 3.545e-02 5.000e-03 0.000e+00 0.000e+00 0.000e+00 0.000e+00 0.000e+00 0.000e+00 0.000e+00 0.000e+00 0.000e+00 0.000e+00 0.000e+00 0.000e+00 0.000e+00 0.000e+00 0.000e+00 0.000e+00 0.000e+00 0.000e+00 0.000e+00 0.000e+00 0.000e+00 0.000e+00 3.439e-02 0.000e+00 0.000e+00 0.000e+00 0.000e+00 0.000e+00 0.000e+00 0.000e+00 0.000e+00 0.000e+00 0.000e+00 0.000e+00 0.000e+00 0.000e+00 0.000e+00 0.000e+00 0.000e+00 3.333e-02 7.500e-03 0.000e+00 0.000e+00 0.000e+00 0.000e+00 0.000e+00 0.000e+00 0.000e+00 0.000e+00 0.000e+00 0.000e+00 0.000e+00 0.000e+00 0.000e+00 0.000e+00 0.000e+00 0.000e+00 3.039e-02 1.500e-02 0.000e+00 0.000e+00 0.000e+00 0.000e+00 0.000e+00 4.066e-03 0.000e+00 0.000e+00 0.000e+00 0.000e+00 0.000e+00 0.000e+00 0.000e+00 0.000e+00 0.000e+00 9.000e-02 8.700e-02 8.400e-02 8.100e-02 7.800e-02 7.500e-02 7.100e-02 6.800e-02 6.500e-02 6.100e-02 5.800e-02 5.500e-02 5.100e-02 4.500e-02 3.750e-02 3.000e-02 2.250e-02 1.500e-02 7.500e-03 0.000e+00 0.000e+00 0.000e+00 0.000e+00 0.000e+00 0.000e+00 0.000e+00 0.000e+00 0.000e+00 0.000e+00
           </DataArray>
           <DataArray type="Float32" Name="combinedRootClassID" NumberOfComponents="1" format="ascii">
 -1.300e+01 -1.300e+01 -1.300e+01 -1.300e+01 -1.300e+01 -1.300e+01 -1.300e+01 -1.300e+01 -1.300e+01 -1.300e+01 -1.300e+01 -1.300e+01 -1.300e+01 -1.300e+01 -1.300e+01 -1.300e+01 -1.300e+01 -1.300e+01 -1.300e+01 -1.300e+01 -1.300e+01 -1.300e+01 -1.300e+01 -1.300e+01 -1.300e+01 -1.300e+01 -1.300e+01 -1.300e+01 -1.300e+01 -1.300e+01 -1.300e+01 -1.300e+01 -1.300e+01 -1.300e+01 -1.300e+01 -1.300e+01 -1.300e+01 -1.300e+01 -5.000e+00 -5.000e+00 -5.000e+00 -5.000e+00 -5.000e+00 -5.000e+00 -5.000e+00 -5.000e+00 -5.000e+00 -5.000e+00 -5.000e+00 -5.000e+00 -5.000e+00 -5.000e+00 -5.000e+00 -5.000e+00 -5.000e+00 -5.000e+00 -1.300e+01 -1.300e+01 -1.300e+01 -1.300e+01 -1.300e+01 -1.300e+01 -1.300e+01 -1.300e+01 -1.300e+01 -1.300e+01 -1.300e+01 -1.300e+01 -1.300e+01 -1.300e+01 -1.300e+01 -1.300e+01 -1.300e+01 -1.300e+01 -1.300e+01 -1.300e+01 -1.300e+01 -1.300e+01 -1.300e+01 -1.300e+01 -1.300e+01 -1.300e+01 -1.300e+01 -1.300e+01 -1.300e+01 -1.300e+01 -1.300e+01 -1.300e+01 -1.300e+01 -1.300e+01 -1.300e+01 -1.300e+01 -1.300e+01 -5.000e+00 -5.000e+00 -5.000e+00 -5.000e+00 -5.000e+00 -5.000e+00 -5.000e+00 -5.000e+00 -5.000e+00 -5.000e+00 -5.000e+00 -5.000e+00 -5.000e+00 -5.000e+00 -5.000e+00 -5.000e+00 -5.000e+00 -5.000e+00 -1.300e+01 -1.300e+01 -1.300e+01 -1.300e+01 -1.300e+01 -1.300e+01 -1.300e+01 -1.300e+01 -1.300e+01 -1.300e+01 -1.300e+01 -1.300e+01 -1.300e+01 -1.300e+01 -1.300e+01 -1.300e+01 -1.300e+01 -1.300e+01 -1.300e+01 -1.300e+01 -1.300e+01 -1.300e+01 -1.300e+01 -1.300e+01 -1.300e+01 -1.300e+01 -1.300e+01 -1.300e+01 -1.300e+01 -1.300e+01 -1.300e+01 -1.300e+01 -1.300e+01 -1.300e+01 -1.300e+01 -1.300e+01 -1.300e+01 -5.000e+00 -5.000e+00 -5.000e+00 -5.000e+00 -5.000e+00 -5.000e+00 -5.000e+00 -5.000e+00 -5.000e+00 -5.000e+00 -5.000e+00 -5.000e+00 -5.000e+00 -5.000e+00 -5.000e+00 -5.000e+00 -5.000e+00 -5.000e+00 -1.300e+01 -1.300e+01 -1.300e+01 -1.300e+01 -1.300e+01 -1.300e+01 -1.300e+01 -1.300e+01 -1.300e+01 -1.300e+01 -1.300e+01 -1.300e+01 -1.300e+01 -1.300e+01 -1.300e+01 -1.300e+01 -1.300e+01 -1.300e+01 -1.300e+01 -1.300e+01 -1.300e+01 -1.300e+01 -1.300e+01 -1.300e+01 -1.300e+01 -1.300e+01 -1.300e+01 -1.300e+01 -1.300e+01 -1.300e+01 -1.300e+01 -1.300e+01 -1.300e+01 -1.300e+01 -1.300e+01 -1.300e+01 -5.000e+00 -5.000e+00 -5.000e+00 -5.000e+00 -5.000e+00 -5.000e+00 -5.000e+00 -5.000e+00 -5.000e+00 -5.000e+00 -5.000e+00 -5.000e+00 -5.000e+00 -5.000e+00 -5.000e+00 -5.000e+00 -5.000e+00 -5.000e+00 -1.100e+01 -1.100e+01 -1.100e+01 -1.100e+01 -1.100e+01 -1.100e+01 -1.100e+01 -1.100e+01 -1.100e+01 -1.100e+01 -1.100e+01 -1.100e+01 -1.100e+01 -1.100e+01 -1.100e+01 -1.100e+01 -1.100e+01 -1.100e+01 -1.100e+01 -1.100e+01 -1.100e+01 -1.100e+01 -1.100e+01 -1.100e+01 -1.100e+01 -1.100e+01 -1.100e+01 -1.100e+01 -2.000e+00 -2.000e+00 -2.000e+00 -2.000e+00 -2.000e+00 -2.000e+00 -2.000e+00 -2.000e+00 -2.000e+00 -2.000e+00 -7.000e+00 -7.000e+00 -7.000e+00 -7.000e+00 -7.000e+00 -7.000e+00 -7.000e+00 -7.000e+00 -7.000e+00 -7.000e+00 -7.000e+00 -7.000e+00 -7.000e+00 -7.000e+00 -7.000e+00 -7.000e+00 -7.000e+00 -7.000e+00 -7.000e+00 -7.000e+00 -7.000e+00 -7.000e+00 -7.000e+00 -7.000e+00 -7.000e+00 -7.000e+00 -7.000e+00 -7.000e+00 -7.000e+00 -7.000e+00 -7.000e+00 -7.000e+00 -7.000e+00 -7.000e+00 -7.000e+00 -7.000e+00 -7.000e+00 -7.000e+00 -7.000e+00 -7.000e+00 -7.000e+00 -7.000e+00 -7.000e+00 -7.000e+00 -7.000e+00 -7.000e+00 -7.000e+00 -7.000e+00 -7.000e+00 -7.000e+00 -7.000e+00 -7.000e+00 -7.000e+00 -7.000e+00 -7.000e+00 -7.000e+00 -7.000e+00 -7.000e+00 -7.000e+00 -7.000e+00 -7.000e+00 -7.000e+00 -7.000e+00 -7.000e+00 -7.000e+00 -7.000e+00 -7.000e+00 -7.000e+00 -7.000e+00 -7.000e+00 -7.000e+00 -7.000e+00 -7.000e+00 -7.000e+00 -7.000e+00 -7.000e+00 -7.000e+00 -7.000e+00 -7.000e+00 -7.000e+00 -7.000e+00 -7.000e+00 -7.000e+00 -7.000e+00 -7.000e+00 -7.000e+00 -7.000e+00 -7.000e+00 -7.000e+00 -7.000e+00 -7.000e+00 -7.000e+00 -7.000e+00 -7.000e+00 -7.000e+00 -7.000e+00 -7.000e+00 -7.000e+00 -7.000e+00 -7.000e+00 -7.000e+00 -7.000e+00 -7.000e+00 -7.000e+00 -7.000e+00 -7.000e+00 -7.000e+00 -7.000e+00 -7.000e+00 -7.000e+00 -7.000e+00 -7.000e+00 -7.000e+00 -7.000e+00 -7.000e+00 -7.000e+00 -7.000e+00 -7.000e+00 -7.000e+00 -7.000e+00 -7.000e+00 -7.000e+00 -7.000e+00 -7.000e+00 -7.000e+00 -7.000e+00 -7.000e+00 -7.000e+00 -7.000e+00 -7.000e+00 -7.000e+00 -7.000e+00 -7.000e+00 -7.000e+00 -7.000e+00 -7.000e+00 -7.000e+00 -7.000e+00 -7.000e+00 -7.000e+00 -7.000e+00 -7.000e+00 -7.000e+00 -7.000e+00 -7.000e+00 -7.000e+00 -7.000e+00 -7.000e+00 -7.000e+00 -7.000e+00 -7.000e+00 -7.000e+00 -7.000e+00 -7.000e+00 -7.000e+00 -7.000e+00 -7.000e+00 -7.000e+00 -7.000e+00 -7.000e+00 -7.000e+00 -7.000e+00 -7.000e+00 -7.000e+00 -7.000e+00 -7.000e+00 -7.000e+00 -7.000e+00 -7.000e+00 -7.000e+00 -7.000e+00 -7.000e+00 -7.000e+00 -7.000e+00 -7.000e+00 -7.000e+00 -7.000e+00 -7.000e+00 -7.000e+00 -7.000e+00 -7.000e+00 -7.000e+00 -7.000e+00 -7.000e+00 -7.000e+00 -7.000e+00 -7.000e+00 -7.000e+00 -7.000e+00 -7.000e+00 -7.000e+00 -7.000e+00 -7.000e+00 -7.000e+00 -7.000e+00 -7.000e+00 -7.000e+00 -7.000e+00 -7.000e+00 -7.000e+00 -7.000e+00 -7.000e+00 -7.000e+00 -7.000e+00 -7.000e+00 -7.000e+00 -7.000e+00 -7.000e+00 -7.000e+00 -7.000e+00 -7.000e+00 -7.000e+00 -7.000e+00 -7.000e+00 -7.000e+00 -7.000e+00 -7.000e+00 -7.000e+00 -7.000e+00 -7.000e+00 -7.000e+00 -7.000e+00 -7.000e+00 -7.000e+00 -7.000e+00 -7.000e+00 -7.000e+00 -7.000e+00 -7.000e+00 -7.000e+00 -7.000e+00 -7.000e+00 -7.000e+00 -7.000e+00 -7.000e+00 -7.000e+00 -7.000e+00 -7.000e+00 -7.000e+00 -7.000e+00 -7.000e+00 -7.000e+00 -7.000e+00 -7.000e+00 -7.000e+00 -7.000e+00 -7.000e+00 -7.000e+00 -7.000e+00 -7.000e+00 -7.000e+00 -7.000e+00 -7.000e+00 -7.000e+00 -7.000e+00 -7.000e+00 -7.000e+00 -7.000e+00 -7.000e+00 -7.000e+00 -7.000e+00 -7.000e+00 -7.000e+00 -7.000e+00 -7.000e+00 -7.000e+00 -7.000e+00 -7.000e+00 -7.000e+00 -7.000e+00 -7.000e+00 -7.000e+00 -7.000e+00 -7.000e+00 -7.000e+00 -7.000e+00 -7.000e+00 -7.000e+00 -7.000e+00 -7.000e+00 -7.000e+00 -7.000e+00 -7.000e+00 -7.000e+00 -7.000e+00 -7.000e+00 -1.500e+01 -1.500e+01 -1.500e+01 -9.000e+00 -9.000e+00 -9.000e+00 -9.000e+00 -9.000e+00 -9.000e+00 -9.000e+00 -9.000e+00 -9.000e+00 -9.000e+00 -9.000e+00 -9.000e+00 -9.000e+00 -9.000e+00 -9.000e+00 -9.000e+00 -9.000e+00 -4.000e+00 -4.000e+00 -4.000e+00 -4.000e+00 -4.000e+00 -4.000e+00 -4.000e+00 -4.000e+00 -4.000e+00 -4.000e+00 -4.000e+00 -4.000e+00 -4.000e+00 -4.000e+00 -4.000e+00 -4.000e+00 -4.000e+00 -4.000e+00 -4.000e+00 -4.000e+00 -4.000e+00 -4.000e+00 -4.000e+00 -4.000e+00 -4.000e+00 -4.000e+00 -4.000e+00 -4.000e+00 -4.000e+00
           </DataArray>
           <DataArray type="Float32" Name="nitrate/Cmin" NumberOfComponents="1" format="ascii">
 1.000e-03 1.000e-03 1.000e-03 1.000e-03 1.000e-03 1.000e-03 1.000e-03 1.000e-03 1.000e-03 1.000e-03 1.000e-03 1.000e-03 1.000e-03 1.000e-03 1.000e-03 1.000e-03 1.000e-03 1.000e-03 1.000e-03 1.000e-03 1.000e-03 1.000e-03 1.000e-03 1.000e-03 1.000e-03 1.000e-03 1.000e-03 1.000e-03 1.000e-03 1.000e-03 1.000e-03 1.000e-03 1.000e-03 1.000e-03 1.000e-03 1.000e-03 1.000e-03 1.000e-03 1.000e-03 1.000e-03 1.000e-03 1.000e-03 1.000e-03 1.000e-03 1.000e-03 1.000e-03 1.000e-03 1.000e-03 1.000e-03 1.000e-03 1.000e-03 1.000e-03 1.000e-03 1.000e-03 1.000e-03 1.000e-03 1.000e-03 1.000e-03 1.000e-03 1.000e-03 1.000e-03 1.000e-03 1.000e-03 1.000e-03 1.000e-03 1.000e-03 1.000e-03 1.000e-03 1.000e-03 1.000e-03 1.000e-03 1.000e-03 1.000e-03 1.000e-03 1.000e-03 1.000e-03 1.000e-03 1.000e-03 1.000e-03 1.000e-03 1.000e-03 1.000e-03 1.000e-03 1.000e-03 1.000e-03 1.000e-03 1.000e-03 1.000e-03 1.000e-03 1.000e-03 1.000e-03 1.000e-03 1.000e-03 1.000e-03 1.000e-03 1.000e-03 1.000e-03 1.000e-03 1.000e-03 1.000e-03 1.000e-03 1.000e-03 1.000e-03 1.000e-03 1.000e-03 1.000e-03 1.000e-03 1.000e-03 1.000e-03 1.000e-03 1.000e-03 1.000e-03 1.000e-03 1.000e-03 1.000e-03 1.000e-03 1.000e-03 1.000e-03 1.000e-03 1.000e-03 1.000e-03 1.000e-03 1.000e-03 1.000e-03 1.000e-03 1.000e-03 1.000e-03 1.000e-03 1.000e-03 1.000e-03 1.000e-03 1.000e-03 1.000e-03 1.000e-03 1.000e-03 1.000e-03 1.000e-03 1.000e-03 1.000e-03 1.000e-03 1.000e-03 1.000e-03 1.000e-03 1.000e-03 1.000e-03 1.000e-03 1.000e-03 1.000e-03 1.000e-03 1.000e-03 1.000e-03 1.000e-03 1.000e-03 1.000e-03 1.000e-03 1.000e-03 1.000e-03 1.000e-03 1.000e-03 1.000e-03 1.000e-03 1.000e-03 1.000e-03 1.000e-03 1.000e-03 1.000e-03 1.000e-03 1.000e-03 1.000e-03 1.000e-03 1.000e-03 1.000e-03 1.000e-03 1.000e-03 1.000e-03 1.000e-03 1.000e-03 1.000e-03 1.000e-03 1.000e-03 1.000e-03 1.000e-03 1.000e-03 1.000e-03 1.000e-03 1.000e-03 1.000e-03 1.000e-03 1.000e-03 1.000e-03 1.000e-03 1.000e-03 1.000e-03 1.000e-03 1.000e-03 1.000e-03 1.000e-03 1.000e-03 1.000e-03 1.000e-03 1.000e-03 1.000e-03 1.000e-03 1.000e-03 1.000e-03 1.000e-03 1.000e-03 1.000e-03 1.000e-03 1.000e-03 1.000e-03 1.000e-03 1.000e-03 1.000e-03 1.000e-03 1.000e-03 1.000e-03 1.000e-03 1.000e-03 1.000e-03 1.000e-03 1.000e-03 1.000e-03 1.000e-03 1.000e-03 1.000e-03 1.000e-03 1.000e-03 1.000e-03 1.000e-03 1.000e-03 1.000e-03 1.000e-03 1.000e-03 1.000e-03 1.000e-03 1.000e-03 1.000e-03 1.000e-03 1.000e-03 1.000e-03 1.000e-03 1.000e-03 1.000e-03 1.000e-03 1.000e-03 1.000e-03 1.000e-03 1.000e-03 1.000e-03 1.000e-03 1.000e-03 1.000e-03 1.000e-03 1.000e-03 1.000e-03 1.000e-03 1.000e-03 1.000e-03 1.000e-03 1.000e-03 1.000e-03 1.000e-03 1.000e-03 1.000e-03 1.000e-03 1.000e-03 1.000e-03 1.000e-03 1.000e-03 1.000e-03 1.000e-03 1.000e-03 1.000e-03 1.000e-03 1.000e-03 1.000e-03 1.000e-03 1.000e-03 1.000e-03 1.000e-03 1.000e-03 1.000e-03 1.000e-03 1.000e-03 1.000e-03 1.000e-03 1.000e-03 1.000e-03 1.000e-03 1.000e-03 1.000e-03 1.000e-03 1.000e-03 1.000e-03 1.000e-03 1.000e-03 1.000e-03 1.000e-03 1.000e-03 1.000e-03 1.000e-03 1.000e-03 1.000e-03 1.000e-03 1.000e-03 1.000e-03 1.000e-03 1.000e-03 1.000e-03 1.000e-03 1.000e-03 1.000e-03 1.000e-03 1.000e-03 1.000e-03 1.000e-03 1.000e-03 1.000e-03 1.000e-03 1.000e-03 1.000e-03 1.000e-03 1.000e-03 1.000e-03 1.000e-03 1.000e-03 1.000e-03 1.000e-03 1.000e-03 1.000e-03 1.000e-03 1.000e-03 1.000e-03 1.000e-03 1.000e-03 1.000e-03 1.000e-03 1.000e-03 1.000e-03 1.000e-03 1.000e-03 1.000e-03 1.000e-03 1.000e-03 1.000e-03 1.000e-03 1.000e-03 1.000e-03 1.000e-03 1.000e-03 1.000e-03 1.000e-03 1.000e-03 1.000e-03 1.000e-03 1.000e-03 1.000e-03 1.000e-03 1.000e-03 1.000e-03 1.000e-03 1.000e-03 1.000e-03 1.000e-03 1.000e-03 1.000e-03 1.000e-03 1.000e-03 1.000e-03 1.000e-03 1.000e-03 1.000e-03 1.000e-03 1.000e-03 1.000e-03 1.000e-03 1.000e-03 1.000e-03 1.000e-03 1.000e-03 1.000e-03 1.000e-03 1.000e-03 1.000e-03 1.000e-03 1.000e-03 1.000e-03 1.000e-03 1.000e-03 1.000e-03 1.000e-03 1.000e-03 1.000e-03 1.000e-03 1.000e-03 1.000e-03 1.000e-03 1.000e-03 1.000e-03 1.000e-03 1.000e-03 1.000e-03 1.000e-03 1.000e-03 1.000e-03 1.000e-03 1.000e-03 1.000e-03 1.000e-03 1.000e-03 1.000e-03 1.000e-03 1.000e-03 1.000e-03 1.000e-03 1.000e-03 1.000e-03 1.000e-03 1.000e-03 1.000e-03 1.000e-03 1.000e-03 1.000e-03 1.000e-03 1.000e-03 1.000e-03 1.000e-03 1.000e-03 1.000e-03 1.000e-03 1.000e-03 1.000e-03 1.000e-03 1.000e-03 1.000e-03 1.000e-03 1.000e-03 1.000e-03 1.000e-03 1.000e-03 1.000e-03 1.000e-03 1.000e-03 1.000e-03 1.000e-03 1.000e-03 1.000e-03 1.000e-03 1.000e-03 1.000e-03 1.000e-03 1.000e-03 1.000e-03 1.000e-03 1.000e-03 1.000e-03 1.000e-03 1.000e-03 1.000e-03 1.000e-03 1.000e-03 1.000e-03 1.000e-03 1.000e-03 1.000e-03 1.000e-03 1.000e-03 1.000e-03 1.000e-03 1.000e-03 1.000e-03 1.000e-03 1.000e-03 1.000e-03 1.000e-03 1.000e-03 1.000e-03 1.000e-03 1.000e-03 1.000e-03 1.000e-03 1.000e-03 1.000e-03 1.000e-03 1.000e-03 1.000e-03 1.000e-03 1.000e-03 1.000e-03 1.000e-03 1.000e-03 1.000e-03 1.000e-03 1.000e-03 1.000e-03 1.000e-03 1.000e-03 1.000e-03 1.000e-03 1.000e-03 1.000e-03 1.000e-03 1.000e-03 1.000e-03 1.000e-03 1.000e-03 1.000e-03 1.000e-03 1.000e-03 1.000e-03 1.000e-03 1.000e-03 1.000e-03 1.000e-03 1.000e-03 1.000e-03 1.000e-03 1.000e-03 1.000e-03 1.000e-03 1.000e-03 1.000e-03 1.000e-03 1.000e-03 1.000e-03 1.000e-03 1.000e-03 1.000e-03 1.000e-03 1.000e-03 1.000e-03 1.000e-03 1.000e-03 1.000e-03 1.000e-03 1.000e-03 1.000e-03 1.000e-03 1.000e-03 1.000e-03 1.000e-03 1.000e-03 1.000e-03 1.000e-03 1.000e-03 1.000e-03 1.000e-03 1.000e-03 1.000e-03 1.000e-03 1.000e-03 1.000e-03 1.000e-03 1.000e-03 1.000e-03 1.000e-03 1.000e-03 1.000e-03 1.000e-03 1.000e-03 1.000e-03 1.000e-03 1.000e-03 1.000e-03 1.000e-03 1.000e-03 1.000e-03 1.000e-03 1.000e-03 1.000e-03 1.000e-03 1.000e-03 1.000e-03 1.000e-03 1.000e-03 1.000e-03 1.000e-03 1.000e-03 1.000e-03 1.000e-03 1.000e-03 1.000e-03 1.000e-03 1.000e-03 1.000e-03 1.000e-03 1.000e-03 1.000e-03 1.000e-03 1.000e-03 1.000e-03 1.000e-03
           </DataArray>
           <DataArray type="Float32" Name="nitrate/Imax" NumberOfComponents="1" format="ascii">