<?xml version="1.0"?>
<VTKFile type="UnstructuredGrid" version="0.1" byte_order="LittleEndian">
   <UnstructuredGrid>
      <Piece NumberOfPoints="2610" NumberOfCells="184">
         <Points>
            <DataArray type="Float32" Name="Position" NumberOfComponents="3" format="ascii">
0.020	-4.982	-0.027
0.021	-4.966	-0.013
0.015	-4.960	0.006
0.004	-4.965	0.023
-0.009	-4.980	0.031
-0.018	-4.998	0.027
-0.020	-5.014	0.013
-0.014	-5.020	-0.006
-0.002	-5.015	-0.023
0.010	-5.001	-0.031
0.639	-5.352	0.298
0.643	-5.338	0.313
0.638	-5.332	0.332
0.626	-5.336	0.349
0.611	-5.350	0.356
0.600	-5.367	0.352
0.597	-5.381	0.337
0.602	-5.387	0.317
0.614	-5.383	0.301
0.628	-5.370	0.293
1.224	-5.945	0.595
1.230	-5.933	0.611
1.226	-5.928	0.631
1.214	-5.932	0.648
1.197	-5.943	0.654
1.183	-5.957	0.648
1.177	-5.970	0.632
1.181	-5.975	0.612
1.193	-5.971	0.596
1.210	-5.960	0.590
1.616	-6.475	0.786
1.624	-6.465	0.803
1.621	-6.461	0.823
1.608	-6.464	0.839
1.591	-6.474	0.845
1.575	-6.487	0.839
1.567	-6.497	0.822
1.571	-6.501	0.802
1.583	-6.497	0.785
1.601	-6.487	0.779
2.023	-7.148	0.948
2.032	-7.140	0.966
2.030	-7.137	0.986
2.017	-7.140	1.003
1.999	-7.149	1.008
1.982	-7.159	1.001
1.973	-7.167	0.984
1.975	-7.170	0.963
1.988	-7.167	0.947
2.007	-7.158	0.941
2.271	-7.689	1.033
2.281	-7.682	1.051
2.279	-7.680	1.071
2.266	-7.683	1.088
2.246	-7.690	1.093
2.229	-7.699	1.085
2.219	-7.706	1.068
2.221	-7.708	1.047
2.234	-7.705	1.031
2.254	-7.698	1.026
2.503	-8.294	1.121
2.512	-8.288	1.139
2.510	-8.285	1.160
2.496	-8.288	1.176
2.477	-8.294	1.181
2.459	-8.302	1.173
2.449	-8.308	1.155
2.452	-8.310	1.135
2.465	-8.308	1.119
2.485	-8.302	1.114
2.735	-8.950	1.232
2.745	-8.944	1.250
2.742	-8.941	1.270
2.728	-8.943	1.286
2.709	-8.950	1.291
2.691	-8.957	1.283
2.682	-8.964	1.266
2.684	-8.966	1.245
2.698	-8.964	1.229
2.717	-8.958	1.224
2.861	-9.295	1.293
2.871	-9.288	1.311
2.868	-9.285	1.331
2.855	-9.287	1.347
2.835	-9.294	1.352
2.817	-9.302	1.344
2.808	-9.308	1.327
2.811	-9.311	1.306
2.824	-9.309	1.290
2.844	-9.302	1.285
-0.005	-4.964	-0.021
0.014	-4.962	-0.012
0.028	-4.970	0.001
0.032	-4.987	0.014
0.023	-5.004	0.021
0.006	-5.016	0.021
-0.013	-5.018	0.013
-0.027	-5.010	-0.000
-0.031	-4.993	-0.013
-0.022	-4.976	-0.021
0.299	-5.375	-0.620
0.318	-5.374	-0.610
0.329	-5.383	-0.595
0.330	-5.398	-0.580
0.318	-5.413	-0.572
0.299	-5.423	-0.572
0.281	-5.423	-0.581
0.269	-5.414	-0.596
0.269	-5.400	-0.611
0.280	-5.384	-0.620
0.575	-6.062	-1.111
0.593	-6.064	-1.100
0.601	-6.072	-1.083
0.597	-6.085	-1.066
0.581	-6.096	-1.056
0.561	-6.101	-1.058
0.544	-6.099	-1.069
0.535	-6.090	-1.086
0.540	-6.078	-1.103
0.555	-6.067	-1.112
0.715	-6.640	-1.458
0.732	-6.643	-1.446
0.739	-6.652	-1.428
0.733	-6.663	-1.411
0.717	-6.672	-1.402
0.696	-6.676	-1.403
0.679	-6.673	-1.415
0.672	-6.664	-1.433
0.678	-6.653	-1.450
0.694	-6.644	-1.459
0.875	-7.327	-1.844
0.892	-7.329	-1.832
0.898	-7.338	-1.813
0.892	-7.348	-1.796
0.876	-7.357	-1.787
0.855	-7.361	-1.789
0.838	-7.359	-1.801
0.832	-7.350	-1.820
0.838	-7.339	-1.837
0.855	-7.330	-1.846
1.003	-7.846	-2.119
1.019	-7.849	-2.105
1.025	-7.857	-2.087
1.018	-7.867	-2.070
1.001	-7.876	-2.061
0.981	-7.879	-2.063
0.964	-7.877	-2.076
0.959	-7.869	-2.095
0.966	-7.859	-2.112
0.982	-7.850	-2.121
1.148	-8.425	-2.387
1.163	-8.427	-2.373
1.168	-8.434	-2.354
1.160	-8.443	-2.337
1.143	-8.451	-2.329
1.122	-8.455	-2.332
1.107	-8.452	-2.346
1.102	-8.445	-2.365
1.110	-8.436	-2.382
1.127	-8.428	-2.391
1.292	-9.069	-2.638
1.307	-9.071	-2.623
1.311	-9.077	-2.603
1.302	-9.086	-2.586
1.284	-9.093	-2.578
1.264	-9.096	-2.582
1.249	-9.094	-2.597
1.245	-9.088	-2.617
1.254	-9.080	-2.634
1.272	-9.072	-2.642
1.386	-9.451	-2.723
1.396	-9.432	-2.723
1.393	-9.411	-2.723
1.378	-9.396	-2.723
1.357	-9.393	-2.723
1.338	-9.403	-2.723
1.329	-9.421	-2.723
1.332	-9.442	-2.723
1.347	-9.457	-2.723
1.368	-9.460	-2.723
-0.009	-5.008	0.028
-0.018	-4.989	0.029
-0.020	-4.971	0.019
-0.014	-4.960	0.002
-0.003	-4.960	-0.016
0.010	-4.972	-0.027
0.019	-4.991	-0.028
0.021	-5.009	-0.018
0.016	-5.021	-0.001
0.004	-5.020	0.016
-0.629	-5.287	-0.370
-0.640	-5.269	-0.372
-0.643	-5.253	-0.385
-0.638	-5.245	-0.403
-0.626	-5.247	-0.421
-0.612	-5.260	-0.430
-0.601	-5.278	-0.427
-0.598	-5.294	-0.414
-0.603	-5.302	-0.396
-0.615	-5.300	-0.379
-1.221	-5.850	-0.690
-1.236	-5.836	-0.689
-1.246	-5.821	-0.699
-1.247	-5.811	-0.718
-1.239	-5.809	-0.737
-1.224	-5.817	-0.749
-1.209	-5.831	-0.751
-1.198	-5.846	-0.740
-1.197	-5.857	-0.722
-1.206	-5.858	-0.703
-1.649	-6.338	-0.907
-1.665	-6.324	-0.912
-1.672	-6.312	-0.927
-1.669	-6.306	-0.947
-1.657	-6.308	-0.964
-1.640	-6.318	-0.971
-1.625	-6.331	-0.967
-1.617	-6.343	-0.951
-1.620	-6.350	-0.931
-1.632	-6.347	-0.914
-2.055	-6.981	-1.160
-2.073	-6.970	-1.160
-2.086	-6.959	-1.172
-2.089	-6.950	-1.191
-2.080	-6.948	-1.210
-2.063	-6.954	-1.221
-2.045	-6.964	-1.221
-2.032	-6.975	-1.209
-2.029	-6.984	-1.190
-2.038	-6.986	-1.171
-2.299	-7.497	-1.338
-2.318	-7.489	-1.336
-2.333	-7.480	-1.347
-2.339	-7.472	-1.365
-2.332	-7.469	-1.385
-2.316	-7.472	-1.398
-2.296	-7.480	-1.400
-2.281	-7.489	-1.389
-2.276	-7.497	-1.370
-2.283	-7.500	-1.351
-2.526	-8.087	-1.493
-2.546	-8.080	-1.491
-2.562	-8.071	-1.501
-2.568	-8.064	-1.520
-2.562	-8.061	-1.540
-2.546	-8.064	-1.553
-2.526	-8.071	-1.555
-2.510	-8.080	-1.545
-2.504	-8.087	-1.526
-2.510	-8.090	-1.506
-2.760	-8.730	-1.653
-2.780	-8.724	-1.651
-2.797	-8.716	-1.662
-2.803	-8.710	-1.681
-2.797	-8.707	-1.701
-2.782	-8.710	-1.714
-2.762	-8.716	-1.716
-2.745	-8.724	-1.705
-2.739	-8.730	-1.686
-2.744	-8.733	-1.666
-2.853	-9.073	-1.772
-2.847	-9.079	-1.753
-2.852	-9.081	-1.733
-2.868	-9.079	-1.719
-2.888	-9.073	-1.718
-2.905	-9.065	-1.728
-2.912	-9.060	-1.747
-2.906	-9.058	-1.767
-2.890	-9.060	-1.781
-2.870	-9.066	-1.783
0.024	-5.015	0.001
0.032	-4.998	0.012
0.027	-4.978	0.018
0.013	-4.963	0.017
-0.006	-4.958	0.010
-0.023	-4.965	-0.001
-0.031	-4.982	-0.011
-0.026	-5.002	-0.017
-0.012	-5.017	-0.017
0.008	-5.022	-0.009
-0.290	-5.288	0.670
-0.283	-5.272	0.682
-0.289	-5.254	0.690
-0.305	-5.240	0.692
-0.324	-5.236	0.686
-0.341	-5.243	0.675
-0.347	-5.259	0.663
-0.342	-5.277	0.654
-0.326	-5.291	0.653
-0.306	-5.295	0.659
-0.543	-5.806	1.329
-0.538	-5.792	1.344
-0.544	-5.776	1.356
-0.561	-5.764	1.361
-0.581	-5.761	1.356
-0.597	-5.767	1.344
-0.603	-5.781	1.329
-0.596	-5.797	1.317
-0.580	-5.809	1.312
-0.559	-5.812	1.317
-0.720	-6.294	1.771
-0.715	-6.282	1.788
-0.722	-6.268	1.802
-0.739	-6.258	1.809
-0.759	-6.254	1.805
-0.775	-6.260	1.792
-0.781	-6.271	1.776
-0.774	-6.285	1.761
-0.757	-6.296	1.755
-0.736	-6.299	1.759
-0.895	-6.925	2.231
-0.889	-6.915	2.249
-0.897	-6.903	2.264
-0.914	-6.893	2.272
-0.934	-6.890	2.269
-0.950	-6.894	2.256
-0.956	-6.905	2.239
-0.949	-6.917	2.223
-0.932	-6.926	2.216
-0.911	-6.929	2.219
-1.010	-7.426	2.538
-1.004	-7.417	2.556
-1.011	-7.406	2.572
-1.028	-7.397	2.581
-1.049	-7.394	2.578
-1.065	-7.398	2.565
-1.071	-7.407	2.547
-1.064	-7.419	2.531
-1.047	-7.427	2.522
-1.026	-7.430	2.525
-1.123	-7.985	2.852
-1.117	-7.977	2.870
-1.124	-7.967	2.887
-1.141	-7.958	2.896
-1.162	-7.955	2.893
-1.178	-7.959	2.881
-1.184	-7.967	2.862
-1.177	-7.977	2.845
-1.159	-7.986	2.836
-1.139	-7.989	2.839
-1.260	-8.608	3.151
-1.254	-8.600	3.170
-1.262	-8.591	3.187
-1.279	-8.583	3.196
-1.299	-8.579	3.194
-1.315	-8.582	3.180
-1.321	-8.589	3.162
-1.314	-8.599	3.144
-1.297	-8.607	3.135
-1.276	-8.610	3.138
-1.337	-8.939	3.301
-1.332	-8.932	3.320
-1.339	-8.923	3.337
-1.356	-8.915	3.346
-1.376	-8.911	3.343
-1.393	-8.913	3.330
-1.398	-8.921	3.311
-1.391	-8.930	3.294
-1.374	-8.938	3.285
-1.353	-8.942	3.287
0.021	-4.683	-0.022
0.021	-4.670	-0.005
0.017	-4.668	0.015
0.011	-4.679	0.032
0.005	-4.698	0.039
0.002	-4.718	0.033
0.002	-4.731	0.017
0.007	-4.733	-0.004
0.013	-4.722	-0.021
0.018	-4.703	-0.028
0.441	-4.775	0.070
0.441	-4.762	0.086
0.437	-4.760	0.106
0.431	-4.771	0.123
0.425	-4.790	0.130
0.422	-4.810	0.124
0.422	-4.823	0.108
0.427	-4.825	0.087
0.433	-4.814	0.071
0.438	-4.795	0.064
-0.007	-4.673	-0.003
0.013	-4.667	0.001
0.032	-4.673	0.006
0.044	-4.690	0.011
0.043	-4.711	0.015
0.030	-4.727	0.014
0.010	-4.734	0.011
-0.009	-4.727	0.005
-0.020	-4.711	0.000
-0.019	-4.690	-0.003
0.091	-4.743	-0.427
0.110	-4.736	-0.423
0.130	-4.743	-0.418
0.141	-4.759	-0.412
0.140	-4.780	-0.409
0.128	-4.797	-0.409
0.108	-4.803	-0.413
0.089	-4.797	-0.418
0.077	-4.780	-0.424
0.078	-4.759	-0.427
0.014	-4.726	0.028
0.009	-4.708	0.039
0.004	-4.688	0.036
0.002	-4.672	0.023
0.004	-4.667	0.002
0.009	-4.675	-0.017
0.015	-4.692	-0.027
0.019	-4.713	-0.025
0.021	-4.728	-0.011
0.019	-4.733	0.009
-0.407	-4.831	-0.037
-0.413	-4.813	-0.027
-0.418	-4.793	-0.029
-0.419	-4.777	-0.043
-0.417	-4.772	-0.063
-0.413	-4.780	-0.082
-0.407	-4.797	-0.093
-0.402	-4.818	-0.090
-0.400	-4.833	-0.076
-0.402	-4.838	-0.056
0.034	-4.725	0.008
0.044	-4.708	0.014
0.041	-4.687	0.017
0.027	-4.671	0.016
0.007	-4.667	0.010
-0.011	-4.675	0.003
-0.020	-4.693	-0.003
-0.018	-4.714	-0.005
-0.003	-4.729	-0.004
0.016	-4.734	0.001
-0.090	-4.801	0.422
-0.081	-4.783	0.428
-0.084	-4.762	0.431
-0.098	-4.747	0.429
-0.118	-4.742	0.424
-0.136	-4.751	0.417
-0.145	-4.769	0.411
-0.142	-4.789	0.408
-0.128	-4.805	0.410
-0.108	-4.809	0.415
-0.153	-4.997	0.151
-0.036	-5.001	0.212
0.096	-5.004	0.192
0.191	-5.006	0.099
0.212	-5.005	-0.032
0.153	-5.003	-0.151
0.036	-4.999	-0.212
-0.096	-4.996	-0.192
-0.191	-4.994	-0.099
-0.212	-4.995	0.032
-0.132	-4.249	0.155
-0.015	-4.251	0.216
0.114	-4.253	0.196
0.208	-4.253	0.103
0.229	-4.253	-0.026
0.170	-4.252	-0.143
0.053	-4.250	-0.204
-0.076	-4.248	-0.184
-0.170	-4.247	-0.091
-0.191	-4.248	0.038
-0.127	-3.290	0.155
-0.011	-3.290	0.215
0.117	-3.291	0.194
0.209	-3.291	0.103
0.230	-3.291	-0.026
0.171	-3.291	-0.142
0.055	-3.290	-0.201
-0.074	-3.290	-0.181
-0.166	-3.290	-0.089
-0.186	-3.290	0.040
-0.125	-2.400	0.154
-0.010	-2.400	0.213
0.118	-2.401	0.193
0.209	-2.401	0.102
0.230	-2.401	-0.026
0.171	-2.401	-0.141
0.056	-2.400	-0.200
-0.072	-2.400	-0.180
-0.163	-2.400	-0.089
-0.184	-2.400	0.039
-0.122	-1.800	0.154
-0.008	-1.800	0.213
0.120	-1.801	0.193
0.211	-1.801	0.102
0.231	-1.801	-0.025
0.173	-1.801	-0.140
[...]
         <CellData>
           <DataArray type="Float32" Name="aerenchymaFormation" NumberOfComponents="1" format="ascii">
 0.000e+00 0.000e+00 0.000e+00 0.000e+00 0.000e+00 0.000e+00 0.000e+00 0.000e+00 0.000e+00 0.000e+00 0.000e+00 0.000e+00 0.000e+00 0.000e+00 0.000e+00 0.000e+00 0.000e+00 0.000e+00 0.000e+00 0.000e+00 0.000e+00 0.000e+00 0.000e+00 0.000e+00 0.000e+00 0.000e+00 0.000e+00 0.000e+00 0.000e+00 0.000e+00 0.000e+00 0.000e+00 0.000e+00 0.000e+00 0.000e+00 0.000e+00 0.000e+00 0.000e+00 0.000e+00 0.000e+00 0.000e+00 0.000e+00 0.000e+00 0.000e+00 0.000e+00 0.000e+00 0.000e+00 0.000e+00 0.000e+00 0.000e+00 0.000e+00 0.000e+00 0.000e+00 0.000e+00 0.000e+00 0.000e+00 0.000e+00 0.000e+00 0.000e+00 0.000e+00 0.000e+00 0.000e+00 0.000e+00 0.000e+00 0.000e+00 0.000e+00 0.000e+00 0.000e+00 0.000e+00 0.000e+00 0.000e+00 0.000e+00 0.000e+00 0.000e+00 0.000e+00 0.000e+00 0.000e+00 0.000e+00 0.000e+00 0.000e+00 0.000e+00 0.000e+00 0.000e+00 0.000e+00 0.000e+00 0.000e+00 0.000e+00 0.000e+00 0.000e+00 0.000e+00 0.000e+00 0.000e+00 0.000e+00 0.000e+00 0.000e+00 0.000e+00 0.000e+00 0.000e+00 0.000e+00 0.000e+00 0.000e+00 0.000e+00 0.000e+00 0.000e+00 0.000e+00 0.000e+00 0.000e+00 0.000e+00 0.000e+00 0.000e+00 0.000e+00 0.000e+00 0.000e+00 0.000e+00 0.000e+00 0.000e+00 0.000e+00 0.000e+00 0.000e+00 0.000e+00 0.000e+00 0.000e+00 0.000e+00 0.000e+00 0.000e+00 0.000e+00 0.000e+00 0.000e+00 0.000e+00 0.000e+00 0.000e+00 0.000e+00 0.000e+00 0.000e+00 0.000e+00 0.000e+00 0.000e+00 0.000e+00 0.000e+00 0.000e+00 0.000e+00 0.000e+00 0.000e+00 0.000e+00 0.000e+00 0.000e+00 0.000e+00 0.000e+00 0.000e+00 0.000e+00 0.000e+00 0.000e+00 0.000e+00 0.000e+00 0.000e+00 0.000e+00 0.000e+00 0.000e+00 0.000e+00 0.000e+00 0.000e+00 7.000e-02 6.700e-02 6.400e-02 6.100e-02 5.800e-02 5.500e-02 5.100e-02 4.500e-02 3.750e-02 2.750e-02 2.000e-02 1.250e-02 2.500e-03 0.000e+00 0.000e+00 0.000e+00 0.000e+00 0.000e+00 0.000e+00 0.000e+00 0.000e+00 0.000e+00 0.000e+00
           </DataArray>
           <DataArray type="Float32" Name="combinedRootClassID" NumberOfComponents="1" format="ascii">
 -5.000e+00 -5.000e+00 -5.000e+00 -5.000e+00 -5.000e+00 -5.000e+00 -5.000e+00 -5.000e+00 -5.000e+00 -5.000e+00 -5.000e+00 -5.000e+00 -5.000e+00 -5.000e+00 -5.000e+00 -5.000e+00 -5.000e+00 -5.000e+00 -5.000e+00 -5.000e+00 -5.000e+00 -5.000e+00 -5.000e+00 -5.000e+00 -5.000e+00 -5.000e+00 -5.000e+00 -5.000e+00 -5.000e+00 -5.000e+00 -5.000e+00 -5.000e+00 -1.100e+01 -1.100e+01 -1.100e+01 -1.100e+01 -2.000e+00 -2.000e+00 -2.000e+00 -2.000e+00 -2.000e+00 -2.000e+00 -2.000e+00 -2.000e+00 -2.000e+00 -2.000e+00 -7.000e+00 -7.000e+00 -7.000e+00 -7.000e+00 -7.000e+00 -7.000e+00 -7.000e+00 -7.000e+00 -7.000e+00 -7.000e+00 -7.000e+00 -7.000e+00 -7.000e+00 -7.000e+00 -7.000e+00 -7.000e+00 -7.000e+00 -7.000e+00 -7.000e+00 -7.000e+00 -7.000e+00 -7.000e+00 -7.000e+00 -7.000e+00 -7.000e+00 -7.000e+00 -7.000e+00 -7.000e+00 -7.000e+00 -7.000e+00 -7.000e+00 -7.000e+00 -7.000e+00 -7.000e+00 -7.000e+00 -7.000e+00 -7.000e+00 -7.000e+00 -7.000e+00 -7.000e+00 -7.000e+00 -7.000e+00 -7.000e+00 -7.000e+00 -7.000e+00 -7.000e+00 -7.000e+00 -7.000e+00 -7.000e+00 -7.000e+00 -7.000e+00 -7.000e+00 -7.000e+00 -7.000e+00 -7.000e+00 -7.000e+00 -7.000e+00 -7.000e+00 -7.000e+00 -7.000e+00 -7.000e+00 -7.000e+00 -7.000e+00 -7.000e+00 -7.000e+00 -7.000e+00 -7.000e+00 -7.000e+00 -7.000e+00 -7.000e+00 -7.000e+00 -7.000e+00 -7.000e+00 -7.000e+00 -7.000e+00 -7.000e+00 -7.000e+00 -7.000e+00 -7.000e+00 -7.000e+00 -7.000e+00 -7.000e+00 -7.000e+00 -7.000e+00 -7.000e+00 -7.000e+00 -7.000e+00 -7.000e+00 -7.000e+00 -7.000e+00 -7.000e+00 -7.000e+00 -7.000e+00 -7.000e+00 -7.000e+00 -7.000e+00 -7.000e+00 -7.000e+00 -7.000e+00 -7.000e+00 -7.000e+00 -7.000e+00 -7.000e+00 -7.000e+00 -7.000e+00 -7.000e+00 -7.000e+00 -7.000e+00 -9.000e+00 -9.000e+00 -9.000e+00 -9.000e+00 -9.000e+00 -9.000e+00 -9.000e+00 -4.000e+00 -4.000e+00 -4.000e+00 -4.000e+00 -4.000e+00 -4.000e+00 -4.000e+00 -4.000e+00 -4.000e+00 -4.000e+00 -4.000e+00 -4.000e+00 -4.000e+00 -4.000e+00 -4.000e+00 -4.000e+00 -4.000e+00 -4.000e+00 -4.000e+00 -4.000e+00 -4.000e+00 -4.000e+00 -4.000e+00
           </DataArray>
           <DataArray type="Float32" Name="nitrate/Cmin" NumberOfComponents="1" format="ascii">
 1.000e-03 1.000e-03 1.000e-03 1.000e-03 1.000e-03 1.000e-03 1.000e-03 1.000e-03 1.000e-03 1.000e-03 1.000e-03 1.000e-03 1.000e-03 1.000e-03 1.000e-03 1.000e-03 1.000e-03 1.000e-03 1.000e-03 1.000e-03 1.000e-03 1.000e-03 1.000e-03 1.000e-03 1.000e-03 1.000e-03 1.000e-03 1.000e-03 1.000e-03 1.000e-03 1.000e-03 1.000e-03 1.000e-03 1.000e-03 1.000e-03 1.000e-03 1.000e-03 1.000e-03 1.000e-03 1.000e-03 1.000e-03 1.000e-03 1.000e-03 1.000e-03 1.000e-03 1.000e-03 1.000e-03 1.000e-03 1.000e-03 1.000e-03 1.000e-03 1.000e-03 1.000e-03 1.000e-03 1.000e-03 1.000e-03 1.000e-03 1.000e-03 1.000e-03 1.000e-03 1.000e-03 1.000e-03 1.000e-03 1.000e-03 1.000e-03 1.000e-03 1.000e-03 1.000e-03 1.000e-03 1.000e-03 1.000e-03 1.000e-03 1.000e-03 1.000e-03 1.000e-03 1.000e-03 1.000e-03 1.000e-03 1.000e-03 1.000e-03 1.000e-03 1.000e-03 1.000e-03 1.000e-03 1.000e-03 1.000e-03 1.000e-03 1.000e-03 1.000e-03 1.000e-03 1.000e-03 1.000e-03 1.000e-03 1.000e-03 1.000e-03 1.000e-03 1.000e-03 1.000e-03 1.000e-03 1.000e-03 1.000e-03 1.000e-03 1.000e-03 1.000e-03 1.000e-03 1.000e-03 1.000e-03 1.000e-03 1.000e-03 1.000e-03 1.000e-03 1.000e-03 1.000e-03 1.000e-03 1.000e-03 1.000e-03 1.000e-03 1.000e-03 1.000e-03 1.000e-03 1.000e-03 1.000e-03 1.000e-03 1.000e-03 1.000e-03 1.000e-03 1.000e-03 1.000e-03 1.000e-03 1.000e-03 1.000e-03 1.000e-03 1.000e-03 1.000e-03 1.000e-03 1.000e-03 1.000e-03 1.000e-03 1.000e-03 1.000e-03 1.000e-03 1.000e-03 1.000e-03 1.000e-03 1.000e-03 1.000e-03 1.000e-03 1.000e-03 1.000e-03 1.000e-03 1.000e-03 1.000e-03 1.000e-03 1.000e-03 1.000e-03 1.000e-03 1.000e-03 1.000e-03 1.000e-03 1.000e-03 1.000e-03 1.000e-03 1.000e-03 1.000e-03 1.000e-03 1.000e-03 1.000e-03 1.000e-03 1.000e-03 1.000e-03 1.000e-03 1.000e-03 1.000e-03 1.000e-03 1.000e-03 1.000e-03 1.000e-03 1.000e-03 1.000e-03 1.000e-03 1.000e-03 1.000e-03 1.000e-03 1.000e-03
           </DataArray>
           <DataArray type="Float32" Name="nitrate/Imax" NumberOfComponents="1" format="ascii">
 1.900e+00 1.900e+00 1.900e+00 1.900e+00 1.900e+00 1.900e+00 1.900e+00 1.900e+00 1.900e+00 1.900e+00 1.900e+00 1.900e+00 1.900e+00 1.900e+00 1.900e+00 1.900e+00 1.900e+00 1.900e+00 1.900e+00 1.900e+00 1.900e+00 1.900e+00 1.900e+00 1.900e+00 1.900e+00 1.900e+00 1.900e+00 1.900e+00 1.900e+00 1.900e+00 1.900e+00 1.900e+00 1.900e+00 1.900e+00 1.900e+00 1.900e+00 1.900e+00 1.900e+00 1.900e+00 1.900e+00 1.900e+00 1.900e+00 1.900e+00 1.900e+00 1.900e+00 1.900e+00 1.900e+00 1.900e+00 1.900e+00 1.900e+00 1.900e+00 1.900e+00 1.900e+00 1.900e+00 1.900e+00 1.900e+00 1.900e+00 1.900e+00 1.900e+00 1.900e+00 1.900e+00 1.900e+00 1.900e+00 1.900e+00 1.900e+00 1.900e+00 1.900e+00 1.900e+00 1.900e+00 1.900e+00 1.900e+00 1.900e+00 1.900e+00 1.900e+00 1.900e+00 1.900e+00 1.900e+00 1.900e+00 1.900e+00 1.900e+00 1.900e+00 1.900e+00 1.900e+00 1.900e+00 1.900e+00 1.900e+00 1.900e+00 1.900e+00 1.900e+00 1.900e+00 1.900e+00 1.900e+00 1.900e+00 1.900e+00 1.900e+00 1.900e+00 1.900e+00 1.900e+00 1.900e+00 1.900e+00 1.900e+00 1.900e+00 1.900e+00 1.900e+00 1.900e+00 1.900e+00 1.900e+00 1.900e+00 1.900e+00 1.900e+00 1.900e+00 1.900e+00 1.900e+00 1.900e+00 1.900e+00 1.900e+00 1.900e+00 1.900e+00 1.900e+00 1.900e+00 1.900e+00 1.900e+00 1.900e+00 1.900e+00 1.900e+00 1.900e+00 1.900e+00 1.900e+00 1.900e+00 1.900e+00 1.900e+00 1.900e+00 1.900e+00 1.900e+00 1.900e+00 1.900e+00 1.900e+00 1.900e+00 1.900e+00 1.900e+00 1.900e+00 1.900e+00 1.900e+00 1.900e+00 1.900e+00 1.900e+00 1.900e+00 1.900e+00 1.900e+00 1.900e+00 1.900e+00 1.900e+00 1.900e+00 1.900e+00 1.900e+00 1.900e+00 1.900e+00 1.900e+00 1.900e+00 1.900e+00 1.900e+00 1.900e+00 1.900e+00 1.900e+00 1.900e+00 1.900e+00 1.900e+00 1.900e+00 1.900e+00 1.900e+00 1.900e+00 1.900e+00 1.900e+00 1.900e+00 1.900e+00 1.900e+00 1.900e+00 1.900e+00 1.900e+00 1.900e+00 1.900e+00 1.900e+00 1.900e+00 1.900e+00
           </DataArray>
           <DataArray type="Float32" Name="nitrate/Km" NumberOfComponents="1" format="ascii">
 1.610e-02 1.610e-02 1.610e-02 1.610e-02 1.610e-02 1.610e-02 1.610e-02 1.610e-02 1.610e-02 1.610e-02 1.610e-02 1.610e-02 1.610e-02 1.610e-02 1.610e-02 1.610e-02 1.610e-02 1.610e-02 1.610e-02 1.610e-02 1.610e-02 1.610e-02 1.610e-02 1.610e-02 1.610e-02 1.610e-02 1.610e-02 1.610e-02 1.610e-02 1.610e-02 1.610e-02 1.610e-02 1.610e-02 1.610e-02 1.610e-02 1.610e-02 1.610e-02 1.610e-02 1.610e-02 1.610e-02 1.610e-02 1.610e-02 1.610e-02 1.610e-02 1.610e-02 1.610e-02 1.610e-02 1.610e-02 1.610e-02 1.610e-02 1.610e-02 1.610e-02 1.610e-02 1.610e-02 1.610e-02 1.610e-02 1.610e-02 1.610e-02 1.610e-02 1.610e-02 1.610e-02 1.610e-02 1.610e-02 1.610e-02 1.610e-02 1.610e-02 1.610e-02 1.610e-02 1.610e-02 1.610e-02 1.610e-02 1.610e-02 1.610e-02 1.610e-02 1.610e-02 1.610e-02 1.610e-02 1.610e-02 1.610e-02 1.610e-02 1.610e-02 1.610e-02 1.610e-02 1.610e-02 1.610e-02 1.610e-02 1.610e-02 1.610e-02 1.610e-02 1.610e-02 1.610e-02 1.610e-02 1.610e-02 1.610e-02 1.610e-02 1.610e-02 1.610e-02 1.610e-02 1.610e-02 1.610e-02 1.610e-02 1.610e-02 1.610e-02 1.610e-02 1.610e-02 1.610e-02 1.610e-02 1.610e-02 1.610e-02 1.610e-02 1.610e-02 1.610e-02 1.610e-02 1.610e-02 1.610e-02 1.610e-02 1.610e-02 1.610e-02 1.610e-02 1.610e-02 1.610e-02 1.610e-02 1.610e-02 1.610e-02 1.610e-02 1.610e-02 1.610e-02 1.610e-02 1.610e-02 1.610e-02 1.610e-02 1.610e-02 1.610e-02 1.610e-02 1.610e-02 1.610e-02 1.610e-02 1.610e-02 1.610e-02 1.610e-02 1.610e-02 1.610e-02 1.610e-02 1.610e-02 1.610e-02 1.610e-02 1.610e-02 1.610e-02 1.610e-02 1.610e-02 1.610e-02 1.610e-02 1.610e-02 1.610e-02 1.610e-02 1.610e-02 1.610e-02 1.610e-02 1.610e-02 1.610e-02 1.610e-02 1.610e-02 1.610e-02 1.610e-02 1.610e-02 1.610e-02 1.610e-02 1.610e-02 1.610e-02 1.610e-02 1.610e-02 1.610e-02 1.610e-02 1.610e-02 1.610e-02 1.610e-02 1.610e-02 1.610e-02 1.610e-02 1.610e-02 1.610e-02 1.610e-02 1.610e-02 1.610e-02
           </DataArray>
           <DataArray type="Float32" Name="nitrate/minimalNutrientConcentration" NumberOfComponents="1" format="ascii">
 6.000e+02 6.000e+02 6.000e+02 6.000e+02 6.000e+02 6.000e+02 6.000e+02 6.000e+02 6.000e+02 6.000e+02 6.000e+02 6.000e+02 6.000e+02 6.000e+02 6.000e+02 6.000e+02 6.000e+02 6.000e+02 6.000e+02 6.000e+02 6.000e+02 6.000e+02 6.000e+02 6.000e+02 6.000e+02 6.000e+02 6.000e+02 6.000e+02 6.000e+02 6.000e+02 6.000e+02 6.000e+02 6.000e+02 6.000e+02 6.000e+02 6.000e+02 6.000e+02 6.000e+02 6.000e+02 6.000e+02 6.000e+02 6.000e+02 6.000e+02 6.000e+02 6.000e+02 6.000e+02 6.000e+02 6.000e+02 6.000e+02 6.000e+02 6.000e+02 6.000e+02 6.000e+02 6.000e+02 6.000e+02 6.000e+02 6.000e+02 6.000e+02 6.000e+02 6.000e+02 6.000e+02 6.000e+02 6.000e+02 6.000e+02 6.000e+02 6.000e+02 6.000e+02 6.000e+02 6.000e+02 6.000e+02 6.000e+02 6.000e+02 6.000e+02 6.000e+02 6.000e+02 6.000e+02 6.000e+02 6.000e+02 6.000e+02 6.000e+02 6.000e+02 6.000e+02 6.000e+02 6.000e+02 6.000e+02 6.000e+02 6.000e+02 6.000e+02 6.000e+02 6.000e+02 6.000e+02 6.000e+02 6.000e+02 6.000e+02 6.000e+02 6.000e+02 6.000e+02 6.000e+02 6.000e+02 6.000e+02 6.000e+02 6.000e+02 6.000e+02 6.000e+02 6.000e+02 6.000e+02 6.000e+02 6.000e+02 6.000e+02 6.000e+02 6.000e+02 6.000e+02 6.000e+02 6.000e+02 6.000e+02 6.000e+02 6.000e+02 6.000e+02 6.000e+02 6.000e+02 6.000e+02 6.000e+02 6.000e+02 6.000e+02 6.000e+02 6.000e+02 6.000e+02 6.000e+02 6.000e+02 6.000e+02 6.000e+02 6.000e+02 6.000e+02 6.000e+02 6.000e+02 6.000e+02 6.000e+02 6.000e+02 6.000e+02 6.000e+02 6.000e+02 6.000e+02 6.000e+02 6.000e+02 6.000e+02 6.000e+02 6.000e+02 6.000e+02 6.000e+02 6.000e+02 6.000e+02 6.000e+02 6.000e+02 6.000e+02 6.000e+02 6.000e+02 6.000e+02 6.000e+02 6.000e+02 6.000e+02 6.000e+02 6.000e+02 6.000e+02 6.000e+02 6.000e+02 6.000e+02 6.000e+02 6.000e+02 6.000e+02 6.000e+02 6.000e+02 6.000e+02 6.000e+02 6.000e+02 6.000e+02 6.000e+02 6.000e+02 6.000e+02 6.000e+02 6.000e+02 6.000e+02 6.000e+02 6.000e+02 6.000e+02
           </DataArray>
           <DataArray type="Float32" Name="nitrate/nutrientConcentrationAtTheRootSurface" NumberOfComponents="1" format="ascii">
 1.204e+00 1.266e+00 1.573e+00 1.758e+00 2.052e+00 2.216e+00 2.361e+00 2.335e+00 1.204e+00 1.278e+00 1.573e+00 1.837e+00 2.059e+00 2.235e+00 2.415e+00 2.499e+00 1.204e+00 1.251e+00 1.620e+00 1.807e+00 2.064e+00 2.208e+00 2.344e+00 2.480e+00 1.204e+00 1.249e+00 1.570e+00 1.701e+00 2.018e+00 2.167e+00 2.338e+00 2.448e+00 1.136e+00 1.136e+00 1.136e+00 1.136e+00 1.205e+00 1.052e+00 8.360e-01 6.353e-01 5.054e-01 4.181e-01 3.066e-01 0.000e+00 0.000e+00 0.000e+00 1.247e+00 1.420e+00 1.666e+00 1.258e+00 1.337e+00 1.548e+00 1.487e+00 1.497e+00 1.502e+00 1.581e+00 1.523e+00 1.672e+00 1.550e+00 1.590e+00 1.582e+00 1.707e+00 1.615e+00 1.714e+00 1.861e+00 1.643e+00 1.686e+00 1.666e+00 1.903e+00 1.701e+00 1.853e+00 1.732e+00 1.777e+00 1.274e+00 1.416e+00 1.589e+00 1.755e+00 1.773e+00 1.805e+00 1.776e+00 1.830e+00 1.933e+00 1.864e+00 2.133e+00 1.903e+00 2.108e+00 1.944e+00 2.114e+00 1.980e+00 2.029e+00 2.014e+00 2.082e+00 2.049e+00 2.141e+00 2.072e+00 2.126e+00 1.294e+00 1.366e+00 1.633e+00 2.082e+00 2.165e+00 2.115e+00 2.176e+00 2.142e+00 2.198e+00 2.178e+00 2.244e+00 2.214e+00 2.251e+00 2.294e+00 2.347e+00 2.326e+00 2.345e+00 2.358e+00 1.316e+00 1.428e+00 1.707e+00 2.366e+00 2.389e+00 2.401e+00 2.418e+00 2.455e+00 2.492e+00 2.518e+00 2.532e+00 2.544e+00 2.553e+00 1.338e+00 1.441e+00 1.785e+00 2.559e+00 2.576e+00 2.586e+00 2.611e+00 2.631e+00 2.650e+00 2.666e+00 2.680e+00 2.691e+00 2.705e+00 1.357e+00 1.391e+00 1.391e+00 2.708e+00 2.724e+00 1.718e+00 1.259e+00 1.373e+00 1.465e+00 1.384e+00 1.598e+00 1.432e+00 1.509e+00 1.841e+00 1.518e+00 1.647e+00 1.847e+00 2.046e+00 2.319e+00 2.400e+00 1.751e+00 1.205e+00 1.359e+00 1.555e+00 1.769e+00 2.028e+00 2.227e+00 2.449e+00 2.575e+00 2.691e+00 2.831e+00 2.932e+00 2.996e+00 3.098e+00 3.218e+00 3.304e+00 3.369e+00 3.468e+00 3.544e+00 3.583e+00 3.626e+00 3.656e+00 3.673e+00 3.681e+00
           </DataArray>
           <DataArray type="Float32" Name="nitrate/optimalNutrientConcentration" NumberOfComponents="1" format="ascii">
 1.200e+03 1.200e+03 1.200e+03 1.200e+03 1.200e+03 1.200e+03 1.200e+03 1.200e+03 1.200e+03 1.200e+03 1.200e+03 1.200e+03 1.200e+03 1.200e+03 1.200e+03 1.200e+03 1.200e+03 1.200e+03 1.200e+03 1.200e+03 1.200e+03 1.200e+03 1.200e+03 1.200e+03 1.200e+03 1.200e+03 1.200e+03 1.200e+03 1.200e+03 1.200e+03 1.200e+03 1.200e+03 1.200e+03 1.200e+03 1.200e+03 1.200e+03 1.200e+03 1.200e+03 1.200e+03 1.200e+03 1.200e+03 1.200e+03 1.200e+03 1.200e+03 1.200e+03 1.200e+03 1.200e+03 1.200e+03 1.200e+03 1.200e+03 1.200e+03 1.200e+03 1.200e+03 1.200e+03 1.200e+03 1.200e+03 1.200e+03 1.200e+03 1.200e+03 1.200e+03 1.200e+03 1.200e+03 1.200e+03 1.200e+03 1.200e+03 1.200e+03 1.200e+03 1.200e+03 1.200e+03 1.200e+03 1.200e+03 1.200e+03 1.200e+03 1.200e+03 1.200e+03 1.200e+03 1.200e+03 1.200e+03 1.200e+03 1.200e+03 1.200e+03 1.200e+03 1.200e+03 1.200e+03 1.200e+03 1.200e+03 1.200e+03 1.200e+03 1.200e+03 1.200e+03 1.200e+03 1.200e+03 1.200e+03 1.200e+03 1.200e+03 1.200e+03 1.200e+03 1.200e+03 1.200e+03 1.200e+03 1.200e+03 1.200e+03 1.200e+03 1.200e+03 1.200e+03 1.200e+03 1.200e+03 1.200e+03 1.200e+03 1.200e+03 1.200e+03 1.200e+03 1.200e+03 1.200e+03 1.200e+03 1.200e+03 1.200e+03 1.200e+03 1.200e+03 1.200e+03 1.200e+03 1.200e+03 1.200e+03 1.200e+03 1.200e+03 1.200e+03 1.200e+03 1.200e+03 1.200e+03 1.200e+03 1.200e+03 1.200e+03 1.200e+03 1.200e+03 1.200e+03 1.200e+03 1.200e+03 1.200e+03 1.200e+03 1.200e+03 1.200e+03 1.200e+03 1.200e+03 1.200e+03 1.200e+03 1.200e+03 1.200e+03 1.200e+03 1.200e+03 1.200e+03 1.200e+03 1.200e+03 1.200e+03 1.200e+03 1.200e+03 1.200e+03 1.200e+03 1.200e+03 1.200e+03 1.200e+03 1.200e+03 1.200e+03 1.200e+03 1.200e+03 1.200e+03 1.200e+03 1.200e+03 1.200e+03 1.200e+03 1.200e+03 1.200e+03 1.200e+03 1.200e+03 1.200e+03 1.200e+03 1.200e+03 1.200e+03 1.200e+03 1.200e+03 1.200e+03 1.200e+03 1.200e+03 1.200e+03 1.200e+03
           </DataArray>
           <DataArray type="Float32" Name="nitrate/rootSegmentMinimalNutrientContent" NumberOfComponents="1" format="ascii">
 1.635e-01 1.811e-01 1.406e-01 1.646e-01 1.230e-01 1.337e-01 1.443e-01 7.615e-02 1.635e-01 1.811e-01 1.406e-01 1.646e-01 1.230e-01 1.337e-01 1.443e-01 7.615e-02 1.635e-01 1.811e-01 1.406e-01 1.646e-01 1.230e-01 1.337e-01 1.443e-01 7.615e-02 1.635e-01 1.811e-01 1.406e-01 1.646e-01 1.230e-01 1.337e-01 1.443e-01 7.615e-02 9.025e-02 9.025e-02 9.025e-02 9.025e-02 6.064e+00 7.604e+00 6.945e+00 4.653e+00 4.616e+00 6.835e+00 6.464e+00 6.546e+00 6.432e+00 1.821e+00 3.321e-02 3.567e-02 1.188e-02 3.435e-02 3.517e-02 1.597e-02 3.475e-02 3.205e-02 3.529e-02 3.375e-02 3.645e-02 3.018e-02 3.486e-02 2.992e-02 3.539e-02 3.152e-02 3.233e-02 3.676e-02 7.348e-03 3.512e-02 1.837e-02 3.685e-02 1.584e-02 3.330e-02 3.497e-02 3.240e-02 2.335e-02 3.608e-02 3.513e-02 5.850e-03 3.723e-02 2.790e-02 3.582e-02 1.754e-02 3.460e-02 1.755e-02 3.710e-02 1.107e-02 3.690e-02 1.137e-02 3.498e-02 7.740e-03 3.360e-02 1.991e-02 3.431e-02 5.006e-03 3.591e-02 1.273e-02 3.413e-02 1.258e-02 3.530e-02 3.564e-02 1.295e-02 3.334e-02 1.279e-02 3.277e-02 1.310e-02 3.320e-02 1.386e-02 3.486e-02 2.867e-03 3.427e-02 3.571e-02 3.387e-02 6.855e-03 3.358e-02 2.730e-02 3.383e-02 3.287e-02 3.472e-02 2.081e-02 3.144e-02 3.116e-02 3.249e-02 2.438e-02 2.851e-02 2.245e-02 2.131e-02 2.113e-02 1.827e-02 1.845e-02 3.557e-02 3.542e-02 9.653e-03 1.480e-02 1.948e-02 1.596e-02 1.519e-02 1.429e-02 1.208e-02 1.016e-02 9.283e-03 6.737e-03 6.757e-03 3.306e-02 3.735e-02 6.220e-03 5.630e-03 3.978e-03 3.102e-03 1.233e-03 3.672e-02 3.611e-02 3.487e-02 2.530e-02 3.501e-02 3.722e-02 6.762e-03 3.414e-02 3.317e-02 3.311e-02 2.205e-02 3.731e-02 1.954e-02 4.902e-03 3.586e-01 3.469e-01 3.360e-01 3.259e-01 3.165e-01 4.104e-01 2.972e-01 2.901e-01 3.789e-01 2.780e-01 2.745e-01 3.617e-01 2.674e-01 2.649e-01 2.626e-01 2.606e-01 2.588e-01 2.573e-01 2.561e-01 2.551e-01 2.544e-01 2.539e-01 8.457e-02
           </DataArray>
           <DataArray type="Float32" Name="nitrate/rootSegmentNutrientUptake" NumberOfComponents="1" format="ascii">
 0.000e+00 5.631e-01 3.303e-01 2.901e-01 1.570e-01 1.181e-01 7.073e-02 1.499e-02 0.000e+00 5.632e-01 3.303e-01 2.901e-01 1.570e-01 1.181e-01 7.074e-02 1.499e-02 0.000e+00 5.630e-01 3.304e-01 2.901e-01 1.570e-01 1.181e-01 7.073e-02 1.499e-02 0.000e+00 5.630e-01 3.303e-01 2.900e-01 1.570e-01 1.181e-01 7.072e-02 1.499e-02 0.000e+00 0.000e+00 0.000e+00 0.000e+00 0.000e+00 6.294e+00 4.990e+00 3.893e+00 3.139e+00 2.506e+00 1.463e+00 5.794e-02 0.000e+00 0.000e+00 0.000e+00 1.665e-01 1.322e-02 0.000e+00 1.719e-01 2.131e-02 0.000e+00 8.553e-02 0.000e+00 9.011e-02 0.000e+00 7.390e-02 0.000e+00 7.322e-02 0.000e+00 7.720e-02 0.000e+00 1.228e-01 4.908e-03 0.000e+00 3.272e-02 0.000e+00 2.470e-02 0.000e+00 8.569e-02 0.000e+00 4.680e-02 0.000e+00 1.327e-01 3.900e-03 0.000e+00 5.591e-02 0.000e+00 2.734e-02 0.000e+00 2.737e-02 0.000e+00 1.234e-02 0.000e+00 1.268e-02 0.000e+00 6.900e-03 0.000e+00 3.106e-02 0.000e+00 3.348e-03 0.000e+00 1.420e-02 0.000e+00 1.402e-02 0.000e+00 1.584e-01 1.441e-02 0.000e+00 1.426e-02 0.000e+00 1.461e-02 0.000e+00 1.546e-02 0.000e+00 1.279e-03 0.000e+00 0.000e+00 0.000e+00 4.587e-03 0.000e+00 0.000e+00 0.000e+00 0.000e+00 1.775e-01 3.243e-02 0.000e+00 0.000e+00 0.000e+00 0.000e+00 0.000e+00 0.000e+00 0.000e+00 0.000e+00 0.000e+00 0.000e+00 0.000e+00 1.418e-01 8.587e-03 0.000e+00 0.000e+00 0.000e+00 0.000e+00 0.000e+00 0.000e+00 0.000e+00 0.000e+00 0.000e+00 0.000e+00 0.000e+00 1.411e-01 4.147e-03 0.000e+00 0.000e+00 0.000e+00 0.000e+00 0.000e+00 1.044e-01 0.000e+00 6.192e-02 0.000e+00 1.324e-01 4.512e-03 0.000e+00 1.990e-01 1.106e-01 2.457e-02 0.000e+00 2.180e-02 0.000e+00 0.000e+00 2.612e+00 2.482e+00 2.354e+00 2.227e+00 2.777e+00 1.937e+00 1.815e+00 2.235e+00 1.536e+00 1.418e+00 1.709e+00 1.145e+00 1.029e+00 9.132e-01 7.980e-01 6.833e-01 5.689e-01 4.547e-01 3.408e-01 2.271e-01 1.135e-01 1.261e-02
           </DataArray>