<?xml version="1.0"?>
<VTKFile type="UnstructuredGrid" version="0.1" byte_order="LittleEndian">
   <UnstructuredGrid>
      <Piece NumberOfPoints="1420" NumberOfCells="94">
         <Points>
            <DataArray type="Float32" Name="Position" NumberOfComponents="3" format="ascii">
0.027	-5.007	-0.010
0.033	-4.993	0.004
0.027	-4.978	0.017
0.010	-4.967	0.023
-0.011	-4.965	0.021
-0.028	-4.973	0.011
-0.034	-4.987	-0.003
-0.027	-5.002	-0.016
-0.010	-5.013	-0.022
0.011	-5.015	-0.020
-0.083	-5.531	0.564
-0.077	-5.518	0.580
-0.084	-5.505	0.594
-0.101	-5.495	0.602
-0.122	-5.494	0.600
-0.139	-5.501	0.590
-0.145	-5.514	0.574
-0.138	-5.528	0.560
-0.121	-5.537	0.552
-0.100	-5.538	0.554
-0.126	-6.244	1.076
-0.120	-6.234	1.093
-0.126	-6.223	1.110
-0.143	-6.216	1.120
-0.164	-6.215	1.119
-0.181	-6.221	1.108
-0.187	-6.232	1.091
-0.181	-6.242	1.074
-0.164	-6.249	1.064
-0.143	-6.250	1.065
-0.147	-6.848	1.396
-0.140	-6.839	1.414
-0.146	-6.830	1.431
-0.163	-6.823	1.442
-0.184	-6.823	1.442
-0.201	-6.828	1.431
-0.208	-6.837	1.413
-0.202	-6.847	1.395
-0.185	-6.853	1.385
-0.164	-6.854	1.385
0.019	-4.983	-0.026
0.024	-4.969	-0.011
0.019	-4.963	0.008
0.007	-4.967	0.025
-0.008	-4.981	0.032
-0.020	-4.997	0.027
-0.024	-5.011	0.012
-0.019	-5.017	-0.007
-0.007	-5.013	-0.024
0.008	-4.999	-0.031
0.587	-5.459	0.257
0.593	-5.446	0.272
0.589	-5.441	0.292
0.576	-5.444	0.308
0.559	-5.456	0.315
0.546	-5.471	0.309
0.540	-5.483	0.294
0.544	-5.489	0.274
0.557	-5.486	0.258
0.574	-5.474	0.251
1.054	-6.156	0.541
1.061	-6.145	0.558
1.058	-6.140	0.578
1.044	-6.142	0.594
1.026	-6.151	0.599
1.010	-6.163	0.593
1.003	-6.174	0.576
1.006	-6.179	0.556
1.020	-6.177	0.540
1.038	-6.168	0.535
1.373	-6.731	0.736
1.381	-6.721	0.752
1.378	-6.716	0.772
1.364	-6.718	0.788
1.345	-6.727	0.794
1.329	-6.738	0.787
1.321	-6.748	0.770
1.325	-6.753	0.750
1.339	-6.751	0.734
1.357	-6.742	0.729
-0.002	-4.965	-0.023
0.018	-4.965	-0.014
0.030	-4.974	0.000
0.031	-4.990	0.014
0.020	-5.005	0.023
0.001	-5.015	0.024
-0.018	-5.015	0.015
-0.030	-5.006	0.001
-0.031	-4.991	-0.013
-0.020	-4.975	-0.023
0.259	-5.472	-0.576
0.277	-5.473	-0.566
0.287	-5.481	-0.550
0.286	-5.495	-0.534
0.273	-5.509	-0.525
0.253	-5.517	-0.526
0.235	-5.517	-0.536
0.225	-5.508	-0.552
0.226	-5.494	-0.568
0.239	-5.480	-0.577
0.554	-6.180	-1.027
0.571	-6.181	-1.013
0.577	-6.188	-0.995
0.571	-6.199	-0.978
0.555	-6.210	-0.969
0.535	-6.216	-0.972
0.519	-6.215	-0.985
0.513	-6.208	-1.004
0.518	-6.197	-1.021
0.534	-6.186	-1.029
0.769	-6.784	-1.279
0.784	-6.785	-1.265
0.789	-6.791	-1.246
0.782	-6.801	-1.229
0.765	-6.810	-1.220
0.745	-6.816	-1.224
0.729	-6.815	-1.238
0.724	-6.809	-1.258
0.732	-6.799	-1.275
0.749	-6.789	-1.283
0.014	-5.018	0.014
0.003	-5.008	0.029
-0.009	-4.991	0.033
-0.018	-4.974	0.025
-0.020	-4.963	0.007
-0.014	-4.962	-0.013
-0.003	-4.972	-0.028
0.009	-4.989	-0.032
0.018	-5.006	-0.024
0.020	-5.017	-0.006
-0.621	-5.438	-0.190
-0.631	-5.434	-0.171
-0.645	-5.421	-0.162
-0.658	-5.405	-0.165
-0.665	-5.392	-0.180
-0.663	-5.386	-0.200
-0.654	-5.390	-0.218
-0.640	-5.402	-0.227
-0.626	-5.418	-0.224
-0.619	-5.432	-0.210
-1.178	-6.078	-0.400
-1.190	-6.074	-0.384
-1.207	-6.063	-0.377
-1.222	-6.050	-0.384
-1.230	-6.039	-0.400
-1.227	-6.036	-0.421
-1.215	-6.040	-0.437
-1.198	-6.050	-0.443
-1.183	-6.063	-0.437
-1.175	-6.074	-0.421
-1.528	-6.639	-0.574
-1.528	-6.644	-0.554
-1.538	-6.642	-0.536
-1.556	-6.634	-0.527
-1.573	-6.622	-0.531
-1.583	-6.612	-0.545
-1.583	-6.607	-0.566
-1.573	-6.609	-0.584
-1.555	-6.617	-0.593
-1.538	-6.628	-0.589
-0.146	-5.004	0.151
-0.030	-5.005	0.208
0.098	-5.003	0.186
0.188	-5.001	0.093
0.207	-4.998	-0.036
0.146	-4.996	-0.151
0.030	-4.995	-0.208
-0.098	-4.997	-0.186
-0.188	-4.999	-0.093
-0.207	-5.002	0.036
-0.150	-4.253	0.164
-0.035	-4.253	0.222
0.092	-4.253	0.201
0.182	-4.251	0.109
0.201	-4.249	-0.018
0.142	-4.248	-0.132
0.027	-4.247	-0.190
-0.100	-4.248	-0.168
-0.190	-4.249	-0.077
-0.209	-4.251	0.050
-0.149	-3.561	0.166
-0.035	-3.561	0.224
0.091	-3.562	0.204
0.182	-3.561	0.113
0.202	-3.561	-0.013
0.143	-3.560	-0.127
0.029	-3.559	-0.184
-0.097	-3.559	-0.164
-0.187	-3.559	-0.074
-0.207	-3.560	0.053
-0.145	-2.700	0.172
-0.031	-2.702	0.229
0.094	-2.702	0.209
0.184	-2.702	0.119
0.204	-2.701	-0.006
0.146	-2.700	-0.120
0.033	-2.699	-0.177
-0.093	-2.698	-0.157
-0.182	-2.698	-0.067
-0.202	-2.699	0.058
-0.138	-2.101	0.175
-0.025	-2.102	0.233
0.100	-2.103	0.213
0.189	-2.102	0.123
0.209	-2.102	-0.002
0.152	-2.100	-0.115
0.039	-2.099	-0.172
-0.087	-2.098	-0.152
-0.176	-2.098	-0.063
-0.196	-2.099	0.063
-0.133	-1.201	0.184
-0.020	-1.202	0.241
0.104	-1.202	0.221
0.193	-1.202	0.132
0.213	-1.201	0.007
0.155	-1.200	-0.106
0.042	-1.199	-0.163
-0.082	-1.198	-0.142
-0.171	-1.199	-0.053
-0.191	-1.200	0.072
-0.131	-0.301	0.191
-0.019	-0.301	0.248
0.106	-0.302	0.228
0.194	-0.302	0.139
0.214	-0.301	0.015
0.157	-0.300	-0.097
0.044	-0.299	-0.154
-0.080	-0.299	-0.135
-0.169	-0.299	-0.045
-0.188	-0.300	0.079
-0.127	0.560	0.193
-0.015	0.559	0.250
0.109	0.559	0.230
0.197	0.559	0.141
0.217	0.559	0.017
0.160	0.559	-0.094
0.048	0.560	-0.151
-0.076	0.560	-0.132
-0.164	0.560	-0.043
-0.184	0.560	0.081
-0.125	1.440	0.194
-0.013	1.440	0.251
0.110	1.439	0.231
0.199	1.439	0.143
0.219	1.439	0.019
0.162	1.439	-0.092
0.051	1.439	-0.149
-0.073	1.440	-0.130
-0.162	1.440	-0.042
-0.181	1.440	0.082
-0.120	2.316	0.191
-0.009	2.316	0.248
0.114	2.316	0.228
0.202	2.316	0.140
0.221	2.316	0.017
0.165	2.316	-0.094
0.054	2.316	-0.150
-0.069	2.316	-0.130
-0.157	2.316	-0.042
-0.177	2.316	0.080
-0.119	2.568	0.192
-0.009	2.568	0.248
0.113	2.569	0.228
0.200	2.570	0.140
0.219	2.570	0.018
0.162	2.571	-0.092
0.052	2.571	-0.148
-0.070	2.570	-0.128
-0.157	2.569	-0.040
-0.176	2.569	0.082
0.001	-5.087	0.002
0.010	-5.086	0.002
0.018	-5.089	0.003
0.023	-5.097	0.006
0.022	-5.105	0.010
0.015	-5.112	0.012
0.006	-5.113	0.013
-0.002	-5.110	0.011
-0.007	-5.102	0.008
-0.006	-5.094	0.005
0.010	-5.392	-0.772
0.018	-5.392	-0.776
0.026	-5.397	-0.778
0.029	-5.406	-0.778
0.027	-5.415	-0.776
0.020	-5.420	-0.773
0.011	-5.420	-0.770
0.004	-5.415	-0.768
0.000	-5.406	-0.768
0.003	-5.398	-0.770
-0.185	-5.331	-1.014
-0.176	-5.327	-1.014
-0.167	-5.329	-1.014
-0.161	-5.335	-1.014
-0.159	-5.344	-1.014
-0.163	-5.353	-1.014
-0.172	-5.357	-1.014
-0.181	-5.355	-1.014
-0.187	-5.349	-1.014
-0.189	-5.340	-1.014
0.021	-5.192	0.002
0.025	-5.188	0.010
0.026	-5.188	0.019
0.023	-5.193	0.026
0.017	-5.200	0.029
0.011	-5.206	0.027
0.007	-5.210	0.019
0.006	-5.209	0.010
0.009	-5.205	0.002
0.015	-5.198	-0.001
0.634	-5.726	-0.072
0.637	-5.722	-0.064
0.638	-5.723	-0.055
0.636	-5.728	-0.048
0.632	-5.736	-0.045
0.628	-5.743	-0.048
0.624	-5.747	-0.056
0.623	-5.747	-0.065
0.625	-5.741	-0.072
0.629	-5.733	-0.075
1.221	-5.907	-0.184
1.223	-5.903	-0.176
1.225	-5.904	-0.167
1.224	-5.910	-0.160
1.222	-5.919	-0.158
1.219	-5.927	-0.162
1.216	-5.931	-0.169
1.214	-5.930	-0.178
1.215	-5.923	-0.185
1.217	-5.915	-0.187
0.115	-6.096	0.061
0.113	-6.087	0.060
0.114	-6.080	0.054
0.119	-6.077	0.046
0.125	-6.080	0.040
0.130	-6.087	0.037
0.133	-6.095	0.039
0.131	-6.103	0.045
0.127	-6.105	0.052
0.121	-6.103	0.058
-0.537	-6.372	-0.450
-0.537	-6.363	-0.452
-0.534	-6.357	-0.458
-0.529	-6.355	-0.465
-0.523	-6.359	-0.471
-0.518	-6.367	-0.473
-0.518	-6.376	-0.471
-0.521	-6.382	-0.465
-0.526	-6.384	-0.458
-0.532	-6.380	-0.452
-0.657	-6.387	-0.556
-0.656	-6.378	-0.558
-0.652	-6.372	-0.564
-0.646	-6.371	-0.571
-0.640	-6.375	-0.577
-0.637	-6.384	-0.579
-0.638	-6.393	-0.577
-0.642	-6.399	-0.571
-0.648	-6.400	-0.564
-0.654	-6.395	-0.559
0.128	-6.178	0.044
0.137	-6.175	0.045
0.146	-6.178	0.047
0.151	-6.186	0.050
0.150	-6.195	0.052
0.145	-6.202	0.052
0.136	-6.205	0.051
0.127	-6.202	0.049
0.122	-6.195	0.046
0.123	-6.186	0.045
0.273	-6.336	-0.764
0.282	-6.334	-0.762
0.291	-6.336	-0.760
0.296	-6.344	-0.758
0.295	-6.353	-0.756
0.290	-6.360	-0.756
0.281	-6.363	-0.757
0.272	-6.360	-0.759
0.267	-6.353	-0.761
0.268	-6.344	-0.763
0.157	-6.301	0.053
0.159	-6.294	0.059
0.157	-6.285	0.061
0.153	-6.278	0.058
0.147	-6.275	0.051
0.142	-6.277	0.043
0.140	-6.284	0.038
0.142	-6.293	0.036
0.146	-6.301	0.039
0.152	-6.304	0.046
-0.437	-6.478	0.492
-0.435	-6.471	0.497
-0.437	-6.462	0.499
-0.441	-6.454	0.496
-0.447	-6.451	0.489
-0.452	-6.453	0.482
-0.454	-6.460	0.476
-0.452	-6.469	0.475
-0.448	-6.477	0.478
-0.442	-6.480	0.484
0.157	-6.395	0.061
0.155	-6.386	0.061
0.156	-6.378	0.057
0.159	-6.374	0.049
0.164	-6.375	0.041
0.169	-6.382	0.036
0.171	-6.391	0.036
0.170	-6.399	0.041
0.166	-6.403	0.048
0.161	-6.401	0.056
-0.506	-6.526	-0.342
-0.497	-6.521	-0.342
-0.488	-6.523	-0.342
-0.482	-6.529	-0.342
-0.480	-6.539	-0.342
-0.484	-6.547	-0.342
-0.493	-6.551	-0.342
-0.502	-6.550	-0.342
-0.508	-6.543	-0.342
-0.510	-6.534	-0.342
0.171	-6.475	0.043
0.179	-6.473	0.047
0.186	-6.476	0.052
0.189	-6.484	0.056
0.188	-6.493	0.057
0.182	-6.500	0.056
0.175	-6.502	0.051
0.167	-6.499	0.046
0.164	-6.491	0.042
0.165	-6.482	0.041
0.603	-6.646	-0.663
0.611	-6.643	-0.659
0.618	-6.646	-0.654
0.622	-6.654	-0.650
0.621	-6.663	-0.648
0.615	-6.670	-0.650
0.607	-6.673	-0.654
0.600	-6.670	-0.659
0.596	-6.662	-0.663
0.598	-6.653	-0.665
0.188	-6.596	0.061
0.189	-6.587	0.065
0.190	-6.578	0.062
0.192	-6.572	0.055
0.193	-6.572	0.046
0.193	-6.577	0.038
0.193	-6.586	0.035
0.191	-6.595	0.037
0.190	-6.600	0.044
0.189	-6.601	0.054
-0.581	-6.511	-0.030
-0.581	-6.502	-0.027
-0.580	-6.494	-0.029
-0.578	-6.488	-0.036
-0.577	-6.487	-0.045
-0.577	-6.493	-0.053
-0.577	-6.501	-0.056
-0.578	-6.510	-0.054
-0.580	-6.516	-0.047
-0.581	-6.516	-0.038
0.219	-6.694	0.048
0.220	-6.690	0.056
0.216	-6.684	0.062
0.209	-6.679	0.064
0.201	-6.676	0.060
0.195	-6.676	0.053
0.194	-6.680	0.045
0.198	-6.686	0.039
0.205	-6.692	0.037
0.213	-6.695	0.041
-0.149	-7.253	0.370
-0.148	-7.249	0.378
-0.152	-7.243	0.384
-0.159	-7.237	0.386
-0.167	-7.234	0.382
-0.172	-7.234	0.375
-0.174	-7.238	0.366
-0.170	-7.244	0.360
-0.163	-7.250	0.359
-0.155	-7.253	0.362
0.235	-6.795	0.053
0.235	-6.790	0.061
0.232	-6.782	0.065
0.226	-6.775	0.063
0.220	-6.771	0.058
0.216	-6.772	0.049
0.215	-6.777	0.042
0.219	-6.785	0.038
0.225	-6.792	0.039
0.231	-6.796	0.045
[...]
         <CellData>
           <DataArray type="Float32" Name="combinedRootClassID" NumberOfComponents="1" format="ascii">
 -5.000e+000 -5.000e+000 -5.000e+000 -5.000e+000 -5.000e+000 -5.000e+000 -5.000e+000 -5.000e+000 -5.000e+000 -5.000e+000 -5.000e+000 -5.000e+000 -2.000e+000 -2.000e+000 -2.000e+000 -2.000e+000 -2.000e+000 -2.000e+000 -2.000e+000 -2.000e+000 -2.000e+000 -2.000e+000 -7.000e+000 -7.000e+000 -7.000e+000 -7.000e+000 -7.000e+000 -7.000e+000 -7.000e+000 -7.000e+000 -7.000e+000 -7.000e+000 -7.000e+000 -7.000e+000 -7.000e+000 -7.000e+000 -7.000e+000 -7.000e+000 -7.000e+000 -7.000e+000 -7.000e+000 -7.000e+000 -7.000e+000 -7.000e+000 -7.000e+000 -7.000e+000 -7.000e+000 -7.000e+000 -7.000e+000 -7.000e+000 -7.000e+000 -7.000e+000 -7.000e+000 -7.000e+000 -7.000e+000 -7.000e+000 -7.000e+000 -7.000e+000 -7.000e+000 -7.000e+000 -7.000e+000 -7.000e+000 -7.000e+000 -7.000e+000 -7.000e+000 -7.000e+000 -7.000e+000 -7.000e+000 -7.000e+000 -7.000e+000 -7.000e+000 -7.000e+000 -7.000e+000 -9.000e+000 -4.000e+000 -4.000e+000 -4.000e+000 -4.000e+000 -4.000e+000 -4.000e+000 -4.000e+000 -4.000e+000 -4.000e+000 -4.000e+000 -4.000e+000 -4.000e+000 -4.000e+000 -4.000e+000 -4.000e+000 -4.000e+000 -4.000e+000 -4.000e+000 -4.000e+000 -4.000e+000
           </DataArray>
           <DataArray type="Float32" Name="nitrate/Cmin" NumberOfComponents="1" format="ascii">
 1.000e-003 1.000e-003 1.000e-003 1.000e-003 1.000e-003 1.000e-003 1.000e-003 1.000e-003 1.000e-003 1.000e-003 1.000e-003 1.000e-003 1.000e-003 1.000e-003 1.000e-003 1.000e-003 1.000e-003 1.000e-003 1.000e-003 1.000e-003 1.000e-003 1.000e-003 1.000e-003 1.000e-003 1.000e-003 1.000e-003 1.000e-003 1.000e-003 1.000e-003 1.000e-003 1.000e-003 1.000e-003 1.000e-003 1.000e-003 1.000e-003 1.000e-003 1.000e-003 1.000e-003 1.000e-003 1.000e-003 1.000e-003 1.000e-003 1.000e-003 1.000e-003 1.000e-003 1.000e-003 1.000e-003 1.000e-003 1.000e-003 1.000e-003 1.000e-003 1.000e-003 1.000e-003 1.000e-003 1.000e-003 1.000e-003 1.000e-003 1.000e-003 1.000e-003 1.000e-003 1.000e-003 1.000e-003 1.000e-003 1.000e-003 1.000e-003 1.000e-003 1.000e-003 1.000e-003 1.000e-003 1.000e-003 1.000e-003 1.000e-003 1.000e-003 1.000e-003 1.000e-003 1.000e-003 1.000e-003 1.000e-003 1.000e-003 1.000e-003 1.000e-003 1.000e-003 1.000e-003 1.000e-003 1.000e-003 1.000e-003 1.000e-003 1.000e-003 1.000e-003 1.000e-003 1.000e-003 1.000e-003 1.000e-003 1.000e-003
           </DataArray>
           <DataArray type="Float32" Name="nitrate/Imax" NumberOfComponents="1" format="ascii">
 1.900e+000 1.900e+000 1.900e+000 1.900e+000 1.900e+000 1.900e+000 1.900e+000 1.900e+000 1.900e+000 1.900e+000 1.900e+000 1.900e+000 1.900e+000 1.900e+000 1.900e+000 1.900e+000 1.900e+000 1.900e+000 1.900e+000 1.900e+000 1.900e+000 1.900e+000 1.900e+000 1.900e+000 1.900e+000 1.900e+000 1.900e+000 1.900e+000 1.900e+000 1.900e+000 1.900e+000 1.900e+000 1.900e+000 1.900e+000 1.900e+000 1.900e+000 1.900e+000 1.900e+000 1.900e+000 1.900e+000 1.900e+000 1.900e+000 1.900e+000 1.900e+000 1.900e+000 1.900e+000 1.900e+000 1.900e+000 1.900e+000 1.900e+000 1.900e+000 1.900e+000 1.900e+000 1.900e+000 1.900e+000 1.900e+000 1.900e+000 1.900e+000 1.900e+000 1.900e+000 1.900e+000 1.900e+000 1.900e+000 1.900e+000 1.900e+000 1.900e+000 1.900e+000 1.900e+000 1.900e+000 1.900e+000 1.900e+000 1.900e+000 1.900e+000 1.900e+000 1.900e+000 1.900e+000 1.900e+000 1.900e+000 1.900e+000 1.900e+000 1.900e+000 1.900e+000 1.900e+000 1.900e+000 1.900e+000 1.900e+000 1.900e+000 1.900e+000 1.900e+000 1.900e+000 1.900e+000 1.900e+000 1.900e+000 1.900e+000
           </DataArray>
           <DataArray type="Float32" Name="nitrate/Km" NumberOfComponents="1" format="ascii">
 1.610e-002 1.610e-002 1.610e-002 1.610e-002 1.610e-002 1.610e-002 1.610e-002 1.610e-002 1.610e-002 1.610e-002 1.610e-002 1.610e-002 1.610e-002 1.610e-002 1.610e-002 1.610e-002 1.610e-002 1.610e-002 1.610e-002 1.610e-002 1.610e-002 1.610e-002 1.610e-002 1.610e-002 1.610e-002 1.610e-002 1.610e-002 1.610e-002 1.610e-002 1.610e-002 1.610e-002 1.610e-002 1.610e-002 1.610e-002 1.610e-002 1.610e-002 1.610e-002 1.610e-002 1.610e-002 1.610e-002 1.610e-002 1.610e-002 1.610e-002 1.610e-002 1.610e-002 1.610e-002 1.610e-002 1.610e-002 1.610e-002 1.610e-002 1.610e-002 1.610e-002 1.610e-002 1.610e-002 1.610e-002 1.610e-002 1.610e-002 1.610e-002 1.610e-002 1.610e-002 1.610e-002 1.610e-002 1.610e-002 1.610e-002 1.610e-002 1.610e-002 1.610e-002 1.610e-002 1.610e-002 1.610e-002 1.610e-002 1.610e-002 1.610e-002 1.610e-002 1.610e-002 1.610e-002 1.610e-002 1.610e-002 1.610e-002 1.610e-002 1.610e-002 1.610e-002 1.610e-002 1.610e-002 1.610e-002 1.610e-002 1.610e-002 1.610e-002 1.610e-002 1.610e-002 1.610e-002 1.610e-002 1.610e-002 1.610e-002
           </DataArray>
           <DataArray type="Float32" Name="nitrate/minimalNutrientConcentration" NumberOfComponents="1" format="ascii">
 6.000e+002 6.000e+002 6.000e+002 6.000e+002 6.000e+002 6.000e+002 6.000e+002 6.000e+002 6.000e+002 6.000e+002 6.000e+002 6.000e+002 6.000e+002 6.000e+002 6.000e+002 6.000e+002 6.000e+002 6.000e+002 6.000e+002 6.000e+002 6.000e+002 6.000e+002 6.000e+002 6.000e+002 6.000e+002 6.000e+002 6.000e+002 6.000e+002 6.000e+002 6.000e+002 6.000e+002 6.000e+002 6.000e+002 6.000e+002 6.000e+002 6.000e+002 6.000e+002 6.000e+002 6.000e+002 6.000e+002 6.000e+002 6.000e+002 6.000e+002 6.000e+002 6.000e+002 6.000e+002 6.000e+002 6.000e+002 6.000e+002 6.000e+002 6.000e+002 6.000e+002 6.000e+002 6.000e+002 6.000e+002 6.000e+002 6.000e+002 6.000e+002 6.000e+002 6.000e+002 6.000e+002 6.000e+002 6.000e+002 6.000e+002 6.000e+002 6.000e+002 6.000e+002 6.000e+002 6.000e+002 6.000e+002 6.000e+002 6.000e+002 6.000e+002 6.000e+002 6.000e+002 6.000e+002 6.000e+002 6.000e+002 6.000e+002 6.000e+002 6.000e+002 6.000e+002 6.000e+002 6.000e+002 6.000e+002 6.000e+002 6.000e+002 6.000e+002 6.000e+002 6.000e+002 6.000e+002 6.000e+002 6.000e+002 6.000e+002
           </DataArray>
           <DataArray type="Float32" Name="nitrate/nutrientConcentrationAtTheRootSurface" NumberOfComponents="1" format="ascii">
 1.030e+000 1.169e+000 1.448e+000 1.030e+000 1.089e+000 1.364e+000 1.030e+000 1.104e+000 1.370e+000 1.030e+000 1.188e+000 1.556e+000 1.031e+000 8.778e-001 7.265e-001 5.744e-001 5.091e-001 4.191e-001 2.796e-001 0.000e+000 0.000e+000 0.000e+000 1.069e+000 1.194e+000 1.075e+000 1.133e+000 1.188e+000 1.370e+000 1.198e+000 1.213e+000 1.231e+000 1.252e+000 1.270e+000 1.283e+000 1.291e+000 1.294e+000 1.299e+000 1.082e+000 1.176e+000 1.299e+000 1.325e+000 1.332e+000 1.362e+000 1.371e+000 1.371e+000 1.368e+000 1.345e+000 1.331e+000 1.310e+000 1.092e+000 1.276e+000 1.310e+000 1.309e+000 1.335e+000 1.385e+000 1.420e+000 1.434e+000 1.447e+000 1.417e+000 1.386e+000 1.359e+000 1.103e+000 1.139e+000 1.360e+000 1.113e+000 1.120e+000 1.121e+000 1.193e+000 1.126e+000 1.360e+000 1.128e+000 1.344e+000 1.145e+000 1.416e+000 1.031e+000 1.121e+000 1.234e+000 1.305e+000 1.351e+000 1.415e+000 1.411e+000 1.638e+000 1.959e+000 2.120e+000 2.245e+000 2.363e+000 2.404e+000 2.459e+000 2.719e+000 2.944e+000 3.159e+000 3.421e+000 3.564e+000 3.669e+000
           </DataArray>
           <DataArray type="Float32" Name="nitrate/optimalNutrientConcentration" NumberOfComponents="1" format="ascii">
 1.200e+003 1.200e+003 1.200e+003 1.200e+003 1.200e+003 1.200e+003 1.200e+003 1.200e+003 1.200e+003 1.200e+003 1.200e+003 1.200e+003 1.200e+003 1.200e+003 1.200e+003 1.200e+003 1.200e+003 1.200e+003 1.200e+003 1.200e+003 1.200e+003 1.200e+003 1.200e+003 1.200e+003 1.200e+003 1.200e+003 1.200e+003 1.200e+003 1.200e+003 1.200e+003 1.200e+003 1.200e+003 1.200e+003 1.200e+003 1.200e+003 1.200e+003 1.200e+003 1.200e+003 1.200e+003 1.200e+003 1.200e+003 1.200e+003 1.200e+003 1.200e+003 1.200e+003 1.200e+003 1.200e+003 1.200e+003 1.200e+003 1.200e+003 1.200e+003 1.200e+003 1.200e+003 1.200e+003 1.200e+003 1.200e+003 1.200e+003 1.200e+003 1.200e+003 1.200e+003 1.200e+003 1.200e+003 1.200e+003 1.200e+003 1.200e+003 1.200e+003 1.200e+003 1.200e+003 1.200e+003 1.200e+003 1.200e+003 1.200e+003 1.200e+003 1.200e+003 1.200e+003 1.200e+003 1.200e+003 1.200e+003 1.200e+003 1.200e+003 1.200e+003 1.200e+003 1.200e+003 1.200e+003 1.200e+003 1.200e+003 1.200e+003 1.200e+003 1.200e+003 1.200e+003 1.200e+003 1.200e+003 1.200e+003 1.200e+003
           </DataArray>
           <DataArray type="Float32" Name="nitrate/rootSegmentMinimalNutrientContent" NumberOfComponents="1" format="ascii">
 1.632e-001 1.811e-001 1.406e-001 1.632e-001 1.811e-001 1.406e-001 1.632e-001 1.811e-001 1.406e-001 1.632e-001 1.811e-001 1.406e-001 5.806e+000 5.260e+000 6.486e+000 4.502e+000 6.712e+000 6.659e+000 6.322e+000 6.436e+000 6.333e+000 1.809e+000 3.556e-002 1.264e-002 3.507e-002 2.522e-002 3.532e-002 6.472e-003 3.396e-002 3.088e-002 3.203e-002 3.486e-002 3.200e-002 3.108e-002 3.077e-002 2.865e-002 2.624e-002 3.456e-002 2.290e-002 2.309e-002 2.703e-002 2.804e-002 2.152e-002 2.248e-002 2.232e-002 1.923e-002 1.726e-002 1.684e-002 1.206e-002 3.454e-002 2.096e-002 1.402e-002 1.145e-002 9.360e-003 9.595e-003 7.591e-003 5.633e-003 6.188e-003 3.554e-003 2.983e-003 1.939e-003 3.480e-002 8.376e-003 4.694e-004 3.485e-002 1.057e-002 3.529e-002 1.571e-002 3.488e-002 9.354e-003 3.450e-002 7.657e-003 3.381e-002 6.561e-003 3.227e-001 3.135e-001 3.050e-001 2.972e-001 2.901e-001 2.842e-001 2.794e-001 2.756e-001 2.723e-001 2.693e-001 2.666e-001 2.641e-001 2.619e-001 2.600e-001 2.583e-001 2.569e-001 2.557e-001 2.549e-001 2.542e-001 2.538e-001
           </DataArray>
           <DataArray type="Float32" Name="nitrate/rootSegmentNutrientUptake" NumberOfComponents="1" format="ascii">
 0.000e+000 2.073e-001 5.410e-002 0.000e+000 2.071e-001 5.407e-002 0.000e+000 2.071e-001 5.407e-002 0.000e+000 2.073e-001 5.414e-002 0.000e+000 3.411e+000 2.817e+000 2.237e+000 1.883e+000 1.281e+000 6.389e-001 0.000e+000 0.000e+000 0.000e+000 0.000e+000 1.525e-002 0.000e+000 4.470e-002 0.000e+000 4.312e-003 0.000e+000 0.000e+000 0.000e+000 0.000e+000 0.000e+000 0.000e+000 0.000e+000 0.000e+000 0.000e+000 0.000e+000 3.787e-002 0.000e+000 0.000e+000 0.000e+000 0.000e+000 0.000e+000 0.000e+000 0.000e+000 0.000e+000 0.000e+000 0.000e+000 0.000e+000 3.256e-002 0.000e+000 0.000e+000 0.000e+000 0.000e+000 0.000e+000 0.000e+000 0.000e+000 0.000e+000 0.000e+000 0.000e+000 0.000e+000 7.423e-003 0.000e+000 0.000e+000 1.037e-002 0.000e+000 1.896e-002 0.000e+000 8.310e-003 0.000e+000 5.783e-003 0.000e+000 0.000e+000 0.000e+000 2.666e+000 2.547e+000 2.388e+000 2.230e+000 2.073e+000 1.916e+000 1.762e+000 1.608e+000 1.453e+000 1.300e+000 1.146e+000 9.929e-001 8.403e-001 6.899e-001 5.493e-001 4.203e-001 3.028e-001 1.892e-001 7.566e-002
           </DataArray>
           <DataArray type="Float32" Name="nitrate/rootSegmentOptimalNutrientContent" NumberOfComponents="1" format="ascii">
 3.265e-001 3.621e-001 2.812e-001 3.265e-001 3.621e-001 2.812e-001 3.265e-001 3.621e-001 2.812e-001 3.265e-001 3.621e-001 2.812e-001 1.161e+001 1.052e+001 1.297e+001 9.004e+000 1.342e+001 1.332e+001 1.264e+001 1.287e+001 1.267e+001 3.619e+000 7.112e-002 2.527e-002 7.014e-002 5.044e-002 7.064e-002 1.294e-002 6.791e-002 6.175e-002 6.406e-002 6.971e-002 6.401e-002 6.215e-002 6.155e-002 5.730e-002 5.248e-002 6.911e-002 4.580e-002 4.618e-002 5.407e-002 5.608e-002 4.303e-002 4.495e-002 4.464e-002 3.845e-002 3.451e-002 3.368e-002 2.412e-002 6.908e-002 4.193e-002 2.803e-002 2.290e-002 1.872e-002 1.919e-002 1.518e-002 1.127e-002 1.238e-002 7.108e-003 5.967e-003 3.878e-003 6.960e-002 1.675e-002 9.388e-004 6.969e-002 2.114e-002 7.059e-002 3.141e-002 6.977e-002 1.871e-002 6.899e-002 1.531e-002 6.762e-002 1.312e-002 6.454e-001 6.270e-001 6.100e-001 5.944e-001 5.802e-001 5.683e-001 5.587e-001 5.512e-001 5.446e-001 5.386e-001 5.331e-001 5.282e-001 5.238e-001 5.199e-001 5.166e-001 5.138e-001 5.115e-001 5.097e-001 5.084e-001 5.077e-001
           </DataArray>
           <DataArray type="Float32" Name="parentRootClassID" NumberOfComponents="1" format="ascii">
 -2.000e+000 -2.000e+000 -2.000e+000 -2.000e+000 -2.000e+000 -2.000e+000 -2.000e+000 -2.000e+000 -2.000e+000 -2.000e+000 -2.000e+000 -2.000e+000 -3.000e+000 -3.000e+000 -3.000e+000 -3.000e+000 -3.000e+000 -3.000e+000 -3.000e+000 -3.000e+000 -3.000e+000 -3.000e+000 -4.000e+000 -4.000e+000 -4.000e+000 -4.000e+000 -4.000e+000 -4.000e+000 -4.000e+000 -4.000e+000 -4.000e+000 -4.000e+000 -4.000e+000 -4.000e+000 -4.000e+000 -4.000e+000 -4.000e+000 -4.000e+000 -4.000e+000 -4.000e+000 -4.000e+000 -4.000e+000 -4.000e+000 -4.000e+000 -4.000e+000 -4.000e+000 -4.000e+000 -4.000e+000 -4.000e+000 -4.000e+000 -4.000e+000 -4.000e+000 -4.000e+000 -4.000e+000 -4.000e+000 -4.000e+000 -4.000e+000 -4.000e+000 -4.000e+000 -4.000e+000 -4.000e+000 -4.000e+000 -4.000e+000 -4.000e+000 -4.000e+000 -4.000e+000 -4.000e+000 -4.000e+000 -4.000e+000 -4.000e+000 -4.000e+000 -4.000e+000 -4.000e+000 -4.000e+000 -3.000e+000 -3.000e+000 -3.000e+000 -3.000e+000 -3.000e+000 -3.000e+000 -3.000e+000 -3.000e+000 -3.000e+000 -3.000e+000 -3.000e+000 -3.000e+000 -3.000e+000 -3.000e+000 -3.000e+000 -3.000e+000 -3.000e+000 -3.000e+000 -3.000e+000 -3.000e+000
           </DataArray>
           <DataArray type="Float32" Name="plantID" NumberOfComponents="1" format="ascii">
 7.000e+000 7.000e+000 7.000e+000 7.000e+000 7.000e+000 7.000e+000 7.000e+000 7.000e+000 7.000e+000 7.000e+000 7.000e+000 7.000e+000 7.000e+000 7.000e+000 7.000e+000 7.000e+000 7.000e+000 7.000e+000 7.000e+000 7.000e+000 7.000e+000 7.000e+000 7.000e+000 7.000e+000 7.000e+000 7.000e+000 7.000e+000 7.000e+000 7.000e+000 7.000e+000 7.000e+000 7.000e+000 7.000e+000 7.000e+000 7.000e+000 7.000e+000 7.000e+000 7.000e+000 7.000e+000 7.000e+000 7.000e+000 7.000e+000 7.000e+000 7.000e+000 7.000e+000 7.000e+000 7.000e+000 7.000e+000 7.000e+000 7.000e+000 7.000e+000 7.000e+000 7.000e+000 7.000e+000 7.000e+000 7.000e+000 7.000e+000 7.000e+000 7.000e+000 7.000e+000 7.000e+000 7.000e+000 7.000e+000 7.000e+000 7.000e+000 7.000e+000 7.000e+000 7.000e+000 7.000e+000 7.000e+000 7.000e+000 7.000e+000 7.000e+000 7.000e+000 7.000e+000 7.000e+000 7.000e+000 7.000e+000 7.000e+000 7.000e+000 7.000e+000 7.000e+000 7.000e+000 7.000e+000 7.000e+000 7.000e+000 7.000e+000 7.000e+000 7.000e+000 7.000e+000 7.000e+000 7.000e+000 7.000e+000 7.000e+000
           </DataArray>
           <DataArray type="Float32" Name="plantTypeID" NumberOfComponents="1" format="ascii">
 0.000e+000 0.000e+000 0.000e+000 0.000e+000 0.000e+000 0.000e+000 0.000e+000 0.000e+000 0.000e+000 0.000e+000 0.000e+000 0.000e+000 0.000e+000 0.000e+000 0.000e+000 0.000e+000 0.000e+000 0.000e+000 0.000e+000 0.000e+000 0.000e+000 0.000e+000 0.000e+000 0.000e+000 0.000e+000 0.000e+000 0.000e+000 0.000e+000 0.000e+000 0.000e+000 0.000e+000 0.000e+000 0.000e+000 0.000e+000 0.000e+000 0.000e+000 0.000e+000 0.000e+000 0.000e+000 0.000e+000 0.000e+000 0.000e+000 0.000e+000 0.000e+000 0.000e+000 0.000e+000 0.000e+000 0.000e+000 0.000e+000 0.000e+000 0.000e+000 0.000e+000 0.000e+000 0.000e+000 0.000e+000 0.000e+000 0.000e+000 0.000e+000 0.000e+000 0.000e+000 0.000e+000 0.000e+000 0.000e+000 0.000e+000 0.000e+000 0.000e+000 0.000e+000 0.000e+000 0.000e+000 0.000e+000 0.000e+000 0.000e+000 0.000e+000 0.000e+000 0.000e+000 0.000e+000 0.000e+000 0.000e+000 0.000e+000 0.000e+000 0.000e+000 0.000e+000 0.000e+000 0.000e+000 0.000e+000 0.000e+000 0.000e+000 0.000e+000 0.000e+000 0.000e+000 0.000e+000 0.000e+000 0.000e+000 0.000e+000
           </DataArray>
           <DataArray type="Float32" Name="rootCircumference" NumberOfComponents="1" format="ascii">
 2.136e-001 2.136e-001 2.136e-001 2.136e-001 2.136e-001 2.136e-001 2.136e-001 2.136e-001 2.136e-001 2.136e-001 2.136e-001 2.136e-001 1.320e+000 1.307e+000 1.300e+000 1.293e+000 1.289e+000 1.284e+000 1.280e+000 1.276e+000 1.273e+000 1.265e+000 9.431e-002 9.425e-002 9.430e-002 9.426e-002 9.428e-002 9.425e-002 9.428e-002 9.428e-002 9.427e-002 9.427e-002 9.427e-002 9.427e-002 9.427e-002 9.427e-002 9.426e-002 9.430e-002 9.426e-002 9.426e-002 9.426e-002 9.426e-002 9.426e-002 9.426e-002 9.426e-002 9.426e-002 9.425e-002 9.425e-002 9.425e-002 9.430e-002 9.425e-002 9.425e-002 9.425e-002 9.425e-002 9.425e-002 9.425e-002 9.425e-002 9.425e-002 9.425e-002 9.425e-002 9.425e-002 9.429e-002 9.425e-002 9.425e-002 9.429e-002 9.425e-002 9.429e-002 9.425e-002 9.429e-002 9.425e-002 9.428e-002 9.425e-002 9.428e-002 9.425e-002 3.189e-001 3.143e-001 3.100e-001 3.060e-001 3.023e-001 2.992e-001 2.967e-001 2.947e-001 2.929e-001 2.913e-001 2.898e-001 2.885e-001 2.873e-001 2.862e-001 2.853e-001 2.845e-001 2.839e-001 2.834e-001 2.830e-001 2.828e-001
           </DataArray>
           <DataArray type="Float32" Name="rootClassID" NumberOfComponents="1" format="ascii">
 9.900e+001 9.900e+001 9.900e+001 9.900e+001 9.900e+001 9.900e+001 9.900e+001 9.900e+001 9.900e+001 9.900e+001 9.900e+001 9.900e+001 -2.000e+000 -2.000e+000 -2.000e+000 -2.000e+000 -2.000e+000 -2.000e+000 -2.000e+000 -2.000e+000 -2.000e+000 -2.000e+000 9.700e+001 9.700e+001 9.700e+001 9.700e+001 9.700e+001 9.700e+001 9.700e+001 9.700e+001 9.700e+001 9.700e+001 9.700e+001 9.700e+001 9.700e+001 9.700e+001 9.700e+001 9.700e+001 9.700e+001 9.700e+001 9.700e+001 9.700e+001 9.700e+001 9.700e+001 9.700e+001 9.700e+001 9.700e+001 9.700e+001 9.700e+001 9.700e+001 9.700e+001 9.700e+001 9.700e+001 9.700e+001 9.700e+001 9.700e+001 9.700e+001 9.700e+001 9.700e+001 9.700e+001 9.700e+001 9.700e+001 9.700e+001 9.700e+001 9.700e+001 9.700e+001 9.700e+001 9.700e+001 9.700e+001 9.700e+001 9.700e+001 9.700e+001 9.700e+001 9.700e+001 -4.000e+000 -4.000e+000 -4.000e+000 -4.000e+000 -4.000e+000 -4.000e+000 -4.000e+000 -4.000e+000 -4.000e+000 -4.000e+000 -4.000e+000 -4.000e+000 -4.000e+000 -4.000e+000 -4.000e+000 -4.000e+000 -4.000e+000 -4.000e+000 -4.000e+000 -4.000e+000
           </DataArray>
           <DataArray type="Float32" Name="rootDiameter" NumberOfComponents="1" format="ascii">
 6.800e-002 6.800e-002 6.800e-002 6.800e-002 6.800e-002 6.800e-002 6.800e-002 6.800e-002 6.800e-002 6.800e-002 6.800e-002 6.800e-002 4.201e-001 4.160e-001 4.137e-001 4.116e-001 4.103e-001 4.087e-001 4.074e-001 4.063e-001 4.051e-001 4.027e-001 3.002e-002 3.000e-002 3.002e-002 3.000e-002 3.001e-002 3.000e-002 3.001e-002 3.001e-002 3.001e-002 3.001e-002 3.001e-002 3.001e-002 3.001e-002 3.001e-002 3.001e-002 3.002e-002 3.000e-002 3.000e-002 3.000e-002 3.000e-002 3.000e-002 3.000e-002 3.000e-002 3.000e-002 3.000e-002 3.000e-002 3.000e-002 3.002e-002 3.000e-002 3.000e-002 3.000e-002 3.000e-002 3.000e-002 3.000e-002 3.000e-002 3.000e-002 3.000e-002 3.000e-002 3.000e-002 3.001e-002 3.000e-002 3.000e-002 3.001e-002 3.000e-002 3.001e-002 3.000e-002 3.001e-002 3.000e-002 3.001e-002 3.000e-002 3.001e-002 3.000e-002 1.015e-001 1.000e-001 9.868e-002 9.741e-002 9.624e-002 9.525e-002 9.444e-002 9.380e-002 9.324e-002 9.272e-002 9.225e-002 9.182e-002 9.144e-002 9.110e-002 9.081e-002 9.056e-002 9.036e-002 9.020e-002 9.009e-002 9.002e-002
           </DataArray>
           <DataArray type="Float32" Name="rootHairDensity" NumberOfComponents="1" format="ascii">