<?xml version="1.0"?>
<VTKFile type="UnstructuredGrid" version="0.1" byte_order="LittleEndian">
   <UnstructuredGrid>
      <Piece NumberOfPoints="4650" NumberOfCells="328">
         <Points>
            <DataArray type="Float32" Name="Position" NumberOfComponents="3" format="ascii">
-0.034	-5.072	0.137
-0.035	-5.064	0.142
-0.036	-5.055	0.141
-0.037	-5.048	0.135
-0.038	-5.046	0.126
-0.038	-5.049	0.118
-0.037	-5.057	0.113
-0.036	-5.066	0.113
-0.034	-5.073	0.119
-0.034	-5.075	0.128
-0.213	-5.085	0.123
-0.208	-5.085	0.131
-0.210	-5.085	0.141
-0.216	-5.085	0.147
-0.226	-5.085	0.149
-0.234	-5.085	0.144
-0.238	-5.085	0.136
-0.237	-5.085	0.127
-0.230	-5.085	0.120
-0.221	-5.085	0.119
-0.053	-5.165	0.244
-0.048	-5.157	0.246
-0.049	-5.148	0.246
-0.054	-5.141	0.244
-0.063	-5.139	0.242
-0.071	-5.142	0.239
-0.076	-5.150	0.238
-0.075	-5.159	0.238
-0.069	-5.166	0.239
-0.061	-5.169	0.241
-0.112	-5.161	0.440
-0.108	-5.161	0.449
-0.109	-5.161	0.458
-0.116	-5.161	0.464
-0.125	-5.161	0.466
-0.133	-5.161	0.462
-0.137	-5.161	0.453
-0.136	-5.161	0.444
-0.129	-5.161	0.438
-0.120	-5.161	0.436
-0.074	-5.253	0.336
-0.075	-5.245	0.342
-0.079	-5.243	0.350
-0.083	-5.246	0.357
-0.087	-5.253	0.361
-0.089	-5.262	0.360
-0.088	-5.269	0.354
-0.085	-5.272	0.346
-0.080	-5.269	0.339
-0.076	-5.262	0.335
0.075	-5.293	0.410
0.074	-5.286	0.416
0.071	-5.283	0.425
0.066	-5.286	0.432
0.062	-5.294	0.436
0.061	-5.303	0.435
0.062	-5.310	0.429
0.065	-5.313	0.421
0.069	-5.310	0.413
0.073	-5.302	0.409
-0.091	-5.362	0.436
-0.091	-5.356	0.443
-0.093	-5.354	0.451
-0.097	-5.357	0.459
-0.101	-5.365	0.462
-0.104	-5.374	0.460
-0.104	-5.380	0.454
-0.102	-5.382	0.445
-0.098	-5.378	0.437
-0.094	-5.371	0.434
0.042	-5.425	0.510
0.050	-5.425	0.514
0.059	-5.425	0.513
0.066	-5.425	0.506
0.067	-5.425	0.497
0.063	-5.425	0.489
0.055	-5.425	0.485
0.046	-5.425	0.486
0.039	-5.425	0.493
0.038	-5.425	0.502
-0.103	-5.474	0.534
-0.103	-5.468	0.541
-0.105	-5.467	0.550
-0.109	-5.471	0.558
-0.112	-5.479	0.561
-0.113	-5.488	0.558
-0.113	-5.494	0.551
-0.111	-5.495	0.543
-0.108	-5.491	0.535
-0.105	-5.483	0.532
0.001	-5.502	0.562
0.001	-5.496	0.569
-0.001	-5.495	0.577
-0.005	-5.499	0.585
-0.008	-5.508	0.588
-0.010	-5.516	0.586
-0.009	-5.522	0.579
-0.007	-5.524	0.570
-0.004	-5.519	0.562
-0.001	-5.511	0.559
-0.118	-5.609	0.649
-0.120	-5.602	0.654
-0.122	-5.593	0.654
-0.124	-5.586	0.648
-0.124	-5.583	0.639
-0.124	-5.586	0.631
-0.122	-5.593	0.625
-0.120	-5.602	0.625
-0.118	-5.609	0.631
-0.118	-5.612	0.640
-0.210	-5.630	0.649
-0.211	-5.623	0.654
-0.214	-5.614	0.654
-0.215	-5.607	0.649
-0.216	-5.604	0.640
-0.215	-5.607	0.631
-0.214	-5.614	0.626
-0.212	-5.623	0.626
-0.210	-5.631	0.631
-0.209	-5.633	0.640
-0.128	-5.709	0.717
-0.120	-5.711	0.720
-0.116	-5.716	0.727
-0.118	-5.721	0.734
-0.124	-5.726	0.739
-0.133	-5.727	0.740
-0.142	-5.725	0.736
-0.146	-5.720	0.729
-0.144	-5.714	0.722
-0.138	-5.710	0.717
-0.124	-5.759	0.678
-0.116	-5.761	0.682
-0.111	-5.766	0.689
-0.113	-5.772	0.696
-0.120	-5.776	0.701
-0.129	-5.777	0.701
-0.137	-5.775	0.698
-0.141	-5.770	0.691
-0.140	-5.765	0.684
-0.133	-5.760	0.679
-0.127	-5.851	0.817
-0.122	-5.843	0.818
-0.123	-5.834	0.819
-0.130	-5.827	0.818
-0.139	-5.825	0.816
-0.147	-5.829	0.815
-0.151	-5.837	0.813
-0.150	-5.846	0.813
-0.144	-5.853	0.813
-0.135	-5.855	0.815
-0.136	-5.843	0.858
-0.132	-5.843	0.866
-0.134	-5.843	0.875
-0.140	-5.843	0.882
-0.149	-5.843	0.883
-0.158	-5.843	0.879
-0.162	-5.843	0.871
-0.160	-5.843	0.862
-0.154	-5.843	0.855
-0.145	-5.843	0.854
-0.137	-5.953	0.892
-0.138	-5.947	0.899
-0.139	-5.947	0.908
-0.142	-5.952	0.916
-0.144	-5.960	0.919
-0.145	-5.969	0.916
-0.144	-5.975	0.909
-0.142	-5.975	0.900
-0.140	-5.970	0.892
-0.138	-5.961	0.889
-0.118	-5.956	0.896
-0.118	-5.950	0.903
-0.120	-5.950	0.912
-0.123	-5.955	0.920
-0.125	-5.963	0.923
-0.126	-5.972	0.920
-0.125	-5.978	0.913
-0.123	-5.978	0.904
-0.121	-5.973	0.896
-0.119	-5.965	0.893
0.027	-5.007	-0.010
0.034	-4.993	0.004
0.027	-4.978	0.017
0.010	-4.967	0.023
-0.011	-4.965	0.021
-0.028	-4.973	0.011
-0.034	-4.987	-0.003
-0.027	-5.003	-0.016
-0.010	-5.013	-0.023
0.011	-5.015	-0.020
-0.083	-5.531	0.564
-0.077	-5.518	0.580
-0.084	-5.504	0.594
-0.101	-5.495	0.602
-0.122	-5.494	0.600
-0.139	-5.501	0.590
-0.145	-5.514	0.574
-0.138	-5.528	0.560
-0.121	-5.537	0.552
-0.100	-5.538	0.554
-0.126	-6.244	1.076
-0.120	-6.234	1.093
-0.126	-6.223	1.110
-0.143	-6.216	1.120
-0.164	-6.215	1.119
-0.181	-6.221	1.108
-0.187	-6.232	1.091
-0.181	-6.242	1.074
-0.164	-6.249	1.064
-0.143	-6.250	1.065
-0.147	-6.848	1.396
-0.140	-6.839	1.414
-0.146	-6.830	1.432
-0.163	-6.824	1.442
-0.184	-6.823	1.442
-0.201	-6.828	1.431
-0.208	-6.837	1.413
-0.202	-6.846	1.395
-0.185	-6.853	1.385
-0.164	-6.853	1.385
-0.170	-7.571	1.742
-0.163	-7.563	1.760
-0.170	-7.555	1.779
-0.186	-7.549	1.790
-0.207	-7.549	1.790
-0.225	-7.553	1.779
-0.231	-7.562	1.761
-0.225	-7.570	1.742
-0.208	-7.575	1.731
-0.187	-7.576	1.731
-0.174	-8.123	1.975
-0.167	-8.115	1.994
-0.173	-8.108	2.012
-0.190	-8.103	2.024
-0.211	-8.103	2.025
-0.228	-8.107	2.014
-0.235	-8.115	1.996
-0.229	-8.123	1.977
-0.212	-8.127	1.965
-0.191	-8.128	1.965
-0.167	-8.728	2.218
-0.160	-8.722	2.237
-0.166	-8.715	2.256
-0.182	-8.710	2.268
-0.203	-8.710	2.268
-0.221	-8.713	2.257
-0.228	-8.720	2.238
-0.222	-8.727	2.219
-0.205	-8.732	2.207
-0.184	-8.732	2.207
-0.203	-9.398	2.430
-0.195	-9.393	2.449
-0.201	-9.388	2.468
-0.217	-9.384	2.481
-0.238	-9.383	2.481
-0.256	-9.385	2.470
-0.263	-9.390	2.451
-0.258	-9.396	2.432
-0.241	-9.400	2.419
-0.220	-9.401	2.418
-0.212	-10.134	2.597
-0.204	-10.130	2.617
-0.209	-10.126	2.636
-0.226	-10.122	2.649
-0.246	-10.121	2.650
-0.264	-10.124	2.639
-0.272	-10.128	2.620
-0.266	-10.132	2.600
-0.250	-10.136	2.587
-0.229	-10.137	2.586
-0.243	-10.909	2.776
-0.235	-10.906	2.795
-0.241	-10.901	2.815
-0.257	-10.898	2.828
-0.278	-10.897	2.829
-0.295	-10.898	2.817
-0.303	-10.902	2.798
-0.298	-10.906	2.778
-0.281	-10.910	2.765
-0.261	-10.911	2.764
-0.275	-11.694	2.926
-0.268	-11.690	2.945
-0.273	-11.686	2.965
-0.289	-11.683	2.978
-0.310	-11.683	2.979
-0.328	-11.684	2.968
-0.335	-11.687	2.949
-0.330	-11.691	2.929
-0.314	-11.694	2.916
-0.293	-11.695	2.914
-0.297	-12.480	3.068
-0.289	-12.477	3.088
-0.293	-12.473	3.108
-0.309	-12.471	3.121
-0.330	-12.470	3.123
-0.348	-12.471	3.112
-0.356	-12.475	3.093
-0.352	-12.478	3.073
-0.336	-12.480	3.059
-0.315	-12.481	3.058
-0.303	-13.269	3.188
-0.294	-13.267	3.207
-0.299	-13.264	3.227
-0.314	-13.263	3.241
-0.335	-13.262	3.243
-0.353	-13.263	3.233
-0.362	-13.266	3.214
-0.357	-13.268	3.193
-0.342	-13.270	3.179
-0.321	-13.271	3.177
-0.305	-13.667	3.226
-0.296	-13.665	3.245
-0.301	-13.663	3.266
-0.316	-13.662	3.280
-0.337	-13.661	3.282
-0.355	-13.662	3.272
-0.364	-13.664	3.253
-0.360	-13.666	3.232
-0.344	-13.667	3.218
-0.323	-13.668	3.216
0.128	-5.052	0.043
0.127	-5.045	0.048
0.123	-5.043	0.057
0.119	-5.046	0.064
0.115	-5.053	0.068
0.114	-5.063	0.067
0.115	-5.070	0.061
0.119	-5.072	0.053
0.123	-5.069	0.046
0.127	-5.061	0.042
0.302	-5.088	0.128
0.300	-5.081	0.134
0.297	-5.079	0.142
0.292	-5.082	0.150
0.289	-5.090	0.154
0.287	-5.099	0.153
0.289	-5.106	0.147
0.292	-5.108	0.139
0.297	-5.105	0.131
0.300	-5.098	0.127
0.227	-5.129	0.102
0.235	-5.126	0.107
0.241	-5.129	0.113
0.245	-5.137	0.117
0.244	-5.146	0.118
0.239	-5.153	0.116
0.231	-5.156	0.110
0.225	-5.153	0.105
0.221	-5.145	0.101
0.222	-5.136	0.100
0.321	-5.152	-0.021
0.328	-5.149	-0.016
0.335	-5.152	-0.010
0.339	-5.160	-0.006
0.338	-5.169	-0.005
0.332	-5.176	-0.008
0.325	-5.179	-0.013
0.318	-5.176	-0.019
0.315	-5.168	-0.023
0.316	-5.159	-0.024
0.344	-5.227	0.152
0.342	-5.220	0.158
0.338	-5.218	0.166
0.334	-5.221	0.174
0.331	-5.229	0.178
0.331	-5.239	0.177
0.333	-5.246	0.171
0.337	-5.248	0.163
0.341	-5.244	0.156
0.344	-5.236	0.151
0.518	-5.242	0.238
0.516	-5.235	0.244
0.512	-5.233	0.252
0.508	-5.237	0.260
0.505	-5.245	0.264
0.505	-5.254	0.263
0.507	-5.261	0.257
0.511	-5.263	0.249
0.515	-5.260	0.241
0.518	-5.252	0.237
0.447	-5.326	0.204
0.446	-5.319	0.209
0.441	-5.315	0.217
0.436	-5.318	0.224
0.433	-5.325	0.229
0.431	-5.334	0.228
0.433	-5.342	0.224
0.438	-5.345	0.216
0.442	-5.343	0.209
0.446	-5.335	0.204
0.556	-5.342	0.272
0.555	-5.334	0.277
0.550	-5.331	0.285
0.545	-5.333	0.292
0.542	-5.341	0.296
0.540	-5.350	0.296
0.542	-5.358	0.291
0.547	-5.361	0.284
0.552	-5.358	0.276
0.555	-5.351	0.272
0.546	-5.444	0.269
0.551	-5.436	0.271
0.550	-5.427	0.272
0.544	-5.420	0.271
0.535	-5.417	0.269
0.527	-5.421	0.266
0.523	-5.429	0.264
0.524	-5.438	0.263
0.530	-5.445	0.264
0.538	-5.447	0.266
0.511	-5.458	0.382
0.515	-5.450	0.385
0.514	-5.441	0.385
0.508	-5.434	0.385
0.500	-5.432	0.382
0.492	-5.435	0.379
0.487	-5.443	0.377
0.488	-5.453	0.376
0.494	-5.460	0.377
0.503	-5.462	0.379
0.636	-5.540	0.309
0.639	-5.545	0.316
0.638	-5.549	0.324
0.631	-5.550	0.331
0.623	-5.547	0.333
0.616	-5.542	0.331
0.612	-5.536	0.324
0.614	-5.532	0.316
0.620	-5.532	0.309
0.629	-5.535	0.307
0.600	-5.609	0.271
0.604	-5.614	0.277
0.602	-5.618	0.285
0.596	-5.619	0.292
0.587	-5.616	0.295
0.580	-5.611	0.293
0.577	-5.605	0.286
0.578	-5.601	0.278
0.585	-5.601	0.271
0.593	-5.604	0.268
0.723	-5.660	0.366
0.722	-5.663	0.375
0.717	-5.662	0.382
0.709	-5.658	0.386
0.702	-5.652	0.384
0.698	-5.647	0.378
0.699	-5.644	0.369
0.704	-5.645	0.361
0.712	-5.649	0.358
0.719	-5.654	0.359
0.680	-5.719	0.343
0.679	-5.722	0.351
0.674	-5.721	0.359
0.667	-5.717	0.363
0.660	-5.712	0.361
0.656	-5.706	0.354
0.657	-5.704	0.346
0.662	-5.704	0.338
0.669	-5.708	0.334
0.676	-5.714	0.336
0.786	-5.759	0.412
0.793	-5.757	0.417
0.799	-5.760	0.423
0.801	-5.767	0.428
0.799	-5.776	0.430
0.794	-5.783	0.428
0.787	-5.785	0.422
0.781	-5.782	0.416
0.778	-5.775	0.411
0.780	-5.766	0.409
0.819	-5.773	0.374
0.826	-5.771	0.380
0.832	-5.774	0.386
0.834	-5.781	0.391
0.832	-5.790	0.393
0.827	-5.797	0.391
0.819	-5.800	0.385
0.814	-5.796	0.379
0.811	-5.789	0.374
0.813	-5.780	0.372
0.879	-5.897	0.460
0.879	-5.900	0.468
0.874	-5.899	0.476
0.866	-5.896	0.480
0.859	-5.890	0.479
0.854	-5.885	0.473
0.854	-5.883	0.464
0.859	-5.883	0.456
0.867	-5.887	0.452
0.874	-5.892	0.453
0.866	-5.917	0.453
[...]
         <CellData>
           <DataArray type="Float32" Name="combinedRootClassID" NumberOfComponents="1" format="ascii">
 -1.300e+001 -1.300e+001 -1.300e+001 -1.300e+001 -1.300e+001 -1.300e+001 -1.300e+001 -1.300e+001 -1.300e+001 -5.000e+000 -5.000e+000 -5.000e+000 -5.000e+000 -5.000e+000 -5.000e+000 -5.000e+000 -5.000e+000 -5.000e+000 -5.000e+000 -5.000e+000 -5.000e+000 -5.000e+000 -1.300e+001 -1.300e+001 -1.300e+001 -1.300e+001 -1.300e+001 -1.300e+001 -1.300e+001 -1.300e+001 -1.300e+001 -5.000e+000 -5.000e+000 -5.000e+000 -5.000e+000 -5.000e+000 -5.000e+000 -5.000e+000 -5.000e+000 -5.000e+000 -5.000e+000 -5.000e+000 -5.000e+000 -5.000e+000 -1.300e+001 -1.300e+001 -1.300e+001 -1.300e+001 -1.300e+001 -1.300e+001 -1.300e+001 -1.300e+001 -1.300e+001 -5.000e+000 -5.000e+000 -5.000e+000 -5.000e+000 -5.000e+000 -5.000e+000 -5.000e+000 -5.000e+000 -5.000e+000 -5.000e+000 -5.000e+000 -5.000e+000 -5.000e+000 -1.300e+001 -1.300e+001 -1.300e+001 -1.300e+001 -1.300e+001 -1.300e+001 -1.300e+001 -1.300e+001 -1.300e+001 -5.000e+000 -5.000e+000 -5.000e+000 -5.000e+000 -5.000e+000 -5.000e+000 -5.000e+000 -5.000e+000 -5.000e+000 -5.000e+000 -5.000e+000 -5.000e+000 -5.000e+000 -1.100e+001 -1.100e+001 -1.100e+001 -1.100e+001 -1.100e+001 -1.100e+001 -1.100e+001 -1.100e+001 -1.100e+001 -1.100e+001 -1.100e+001 -1.100e+001 -2.000e+000 -2.000e+000 -2.000e+000 -2.000e+000 -2.000e+000 -2.000e+000 -2.000e+000 -2.000e+000 -2.000e+000 -2.000e+000 -7.000e+000 -7.000e+000 -7.000e+000 -7.000e+000 -7.000e+000 -7.000e+000 -7.000e+000 -7.000e+000 -7.000e+000 -7.000e+000 -7.000e+000 -7.000e+000 -7.000e+000 -7.000e+000 -7.000e+000 -7.000e+000 -7.000e+000 -7.000e+000 -7.000e+000 -7.000e+000 -7.000e+000 -7.000e+000 -7.000e+000 -7.000e+000 -7.000e+000 -7.000e+000 -7.000e+000 -7.000e+000 -7.000e+000 -7.000e+000 -7.000e+000 -7.000e+000 -7.000e+000 -7.000e+000 -7.000e+000 -7.000e+000 -7.000e+000 -7.000e+000 -7.000e+000 -7.000e+000 -7.000e+000 -7.000e+000 -7.000e+000 -7.000e+000 -7.000e+000 -7.000e+000 -7.000e+000 -7.000e+000 -7.000e+000 -7.000e+000 -7.000e+000 -7.000e+000 -7.000e+000 -7.000e+000 -7.000e+000 -7.000e+000 -7.000e+000 -7.000e+000 -7.000e+000 -7.000e+000 -7.000e+000 -7.000e+000 -7.000e+000 -7.000e+000 -7.000e+000 -7.000e+000 -7.000e+000 -7.000e+000 -7.000e+000 -7.000e+000 -7.000e+000 -7.000e+000 -7.000e+000 -7.000e+000 -7.000e+000 -7.000e+000 -7.000e+000 -7.000e+000 -7.000e+000 -7.000e+000 -7.000e+000 -7.000e+000 -7.000e+000 -7.000e+000 -7.000e+000 -7.000e+000 -7.000e+000 -7.000e+000 -7.000e+000 -7.000e+000 -7.000e+000 -7.000e+000 -7.000e+000 -7.000e+000 -7.000e+000 -7.000e+000 -7.000e+000 -7.000e+000 -7.000e+000 -7.000e+000 -7.000e+000 -7.000e+000 -7.000e+000 -7.000e+000 -7.000e+000 -7.000e+000 -7.000e+000 -7.000e+000 -7.000e+000 -7.000e+000 -7.000e+000 -7.000e+000 -7.000e+000 -7.000e+000 -7.000e+000 -7.000e+000 -7.000e+000 -7.000e+000 -7.000e+000 -7.000e+000 -7.000e+000 -7.000e+000 -7.000e+000 -7.000e+000 -7.000e+000 -7.000e+000 -7.000e+000 -7.000e+000 -7.000e+000 -7.000e+000 -7.000e+000 -7.000e+000 -7.000e+000 -7.000e+000 -7.000e+000 -7.000e+000 -7.000e+000 -7.000e+000 -7.000e+000 -7.000e+000 -7.000e+000 -7.000e+000 -7.000e+000 -7.000e+000 -7.000e+000 -7.000e+000 -7.000e+000 -7.000e+000 -7.000e+000 -7.000e+000 -7.000e+000 -7.000e+000 -7.000e+000 -7.000e+000 -7.000e+000 -7.000e+000 -7.000e+000 -7.000e+000 -7.000e+000 -7.000e+000 -7.000e+000 -7.000e+000 -7.000e+000 -7.000e+000 -7.000e+000 -7.000e+000 -7.000e+000 -7.000e+000 -7.000e+000 -7.000e+000 -7.000e+000 -7.000e+000 -7.000e+000 -7.000e+000 -7.000e+000 -7.000e+000 -7.000e+000 -7.000e+000 -7.000e+000 -7.000e+000 -7.000e+000 -7.000e+000 -7.000e+000 -7.000e+000 -7.000e+000 -9.000e+000 -9.000e+000 -9.000e+000 -9.000e+000 -9.000e+000 -9.000e+000 -4.000e+000 -4.000e+000 -4.000e+000 -4.000e+000 -4.000e+000 -4.000e+000 -4.000e+000 -4.000e+000 -4.000e+000 -4.000e+000 -4.000e+000 -4.000e+000 -4.000e+000 -4.000e+000 -4.000e+000 -4.000e+000 -4.000e+000 -4.000e+000 -4.000e+000 -4.000e+000 -4.000e+000 -4.000e+000 -4.000e+000 -4.000e+000 -4.000e+000 -4.000e+000 -4.000e+000
           </DataArray>
           <DataArray type="Float32" Name="nitrate/Cmin" NumberOfComponents="1" format="ascii">
 1.000e-003 1.000e-003 1.000e-003 1.000e-003 1.000e-003 1.000e-003 1.000e-003 1.000e-003 1.000e-003 1.000e-003 1.000e-003 1.000e-003 1.000e-003 1.000e-003 1.000e-003 1.000e-003 1.000e-003 1.000e-003 1.000e-003 1.000e-003 1.000e-003 1.000e-003 1.000e-003 1.000e-003 1.000e-003 1.000e-003 1.000e-003 1.000e-003 1.000e-003 1.000e-003 1.000e-003 1.000e-003 1.000e-003 1.000e-003 1.000e-003 1.000e-003 1.000e-003 1.000e-003 1.000e-003 1.000e-003 1.000e-003 1.000e-003 1.000e-003 1.000e-003 1.000e-003 1.000e-003 1.000e-003 1.000e-003 1.000e-003 1.000e-003 1.000e-003 1.000e-003 1.000e-003 1.000e-003 1.000e-003 1.000e-003 1.000e-003 1.000e-003 1.000e-003 1.000e-003 1.000e-003 1.000e-003 1.000e-003 1.000e-003 1.000e-003 1.000e-003 1.000e-003 1.000e-003 1.000e-003 1.000e-003 1.000e-003 1.000e-003 1.000e-003 1.000e-003 1.000e-003 1.000e-003 1.000e-003 1.000e-003 1.000e-003 1.000e-003 1.000e-003 1.000e-003 1.000e-003 1.000e-003 1.000e-003 1.000e-003 1.000e-003 1.000e-003 1.000e-003 1.000e-003 1.000e-003 1.000e-003 1.000e-003 1.000e-003 1.000e-003 1.000e-003 1.000e-003 1.000e-003 1.000e-003 1.000e-003 1.000e-003 1.000e-003 1.000e-003 1.000e-003 1.000e-003 1.000e-003 1.000e-003 1.000e-003 1.000e-003 1.000e-003 1.000e-003 1.000e-003 1.000e-003 1.000e-003 1.000e-003 1.000e-003 1.000e-003 1.000e-003 1.000e-003 1.000e-003 1.000e-003 1.000e-003 1.000e-003 1.000e-003 1.000e-003 1.000e-003 1.000e-003 1.000e-003 1.000e-003 1.000e-003 1.000e-003 1.000e-003 1.000e-003 1.000e-003 1.000e-003 1.000e-003 1.000e-003 1.000e-003 1.000e-003 1.000e-003 1.000e-003 1.000e-003 1.000e-003 1.000e-003 1.000e-003 1.000e-003 1.000e-003 1.000e-003 1.000e-003 1.000e-003 1.000e-003 1.000e-003 1.000e-003 1.000e-003 1.000e-003 1.000e-003 1.000e-003 1.000e-003 1.000e-003 1.000e-003 1.000e-003 1.000e-003 1.000e-003 1.000e-003 1.000e-003 1.000e-003 1.000e-003 1.000e-003 1.000e-003 1.000e-003 1.000e-003 1.000e-003 1.000e-003 1.000e-003 1.000e-003 1.000e-003 1.000e-003 1.000e-003 1.000e-003 1.000e-003 1.000e-003 1.000e-003 1.000e-003 1.000e-003 1.000e-003 1.000e-003 1.000e-003 1.000e-003 1.000e-003 1.000e-003 1.000e-003 1.000e-003 1.000e-003 1.000e-003 1.000e-003 1.000e-003 1.000e-003 1.000e-003 1.000e-003 1.000e-003 1.000e-003 1.000e-003 1.000e-003 1.000e-003 1.000e-003 1.000e-003 1.000e-003 1.000e-003 1.000e-003 1.000e-003 1.000e-003 1.000e-003 1.000e-003 1.000e-003 1.000e-003 1.000e-003 1.000e-003 1.000e-003 1.000e-003 1.000e-003 1.000e-003 1.000e-003 1.000e-003 1.000e-003 1.000e-003 1.000e-003 1.000e-003 1.000e-003 1.000e-003 1.000e-003 1.000e-003 1.000e-003 1.000e-003 1.000e-003 1.000e-003 1.000e-003 1.000e-003 1.000e-003 1.000e-003 1.000e-003 1.000e-003 1.000e-003 1.000e-003 1.000e-003 1.000e-003 1.000e-003 1.000e-003 1.000e-003 1.000e-003 1.000e-003 1.000e-003 1.000e-003 1.000e-003 1.000e-003 1.000e-003 1.000e-003 1.000e-003 1.000e-003 1.000e-003 1.000e-003 1.000e-003 1.000e-003 1.000e-003 1.000e-003 1.000e-003 1.000e-003 1.000e-003 1.000e-003 1.000e-003 1.000e-003 1.000e-003 1.000e-003 1.000e-003 1.000e-003 1.000e-003 1.000e-003 1.000e-003 1.000e-003 1.000e-003 1.000e-003 1.000e-003 1.000e-003 1.000e-003 1.000e-003 1.000e-003 1.000e-003 1.000e-003 1.000e-003 1.000e-003 1.000e-003 1.000e-003 1.000e-003 1.000e-003 1.000e-003 1.000e-003 1.000e-003 1.000e-003 1.000e-003 1.000e-003 1.000e-003 1.000e-003 1.000e-003 1.000e-003 1.000e-003 1.000e-003 1.000e-003 1.000e-003 1.000e-003 1.000e-003 1.000e-003 1.000e-003 1.000e-003 1.000e-003 1.000e-003 1.000e-003 1.000e-003 1.000e-003 1.000e-003 1.000e-003 1.000e-003 1.000e-003 1.000e-003 1.000e-003 1.000e-003 1.000e-003 1.000e-003 1.000e-003 1.000e-003
           </DataArray>
           <DataArray type="Float32" Name="nitrate/Imax" NumberOfComponents="1" format="ascii">
 1.900e+000 1.900e+000 1.900e+000 1.900e+000 1.900e+000 1.900e+000 1.900e+000 1.900e+000 1.900e+000 1.900e+000 1.900e+000 1.900e+000 1.900e+000 1.900e+000 1.900e+000 1.900e+000 1.900e+000 1.900e+000 1.900e+000 1.900e+000 1.900e+000 1.900e+000 1.900e+000 1.900e+000 1.900e+000 1.900e+000 1.900e+000 1.900e+000 1.900e+000 1.900e+000 1.900e+000 1.900e+000 1.900e+000 1.900e+000 1.900e+000 1.900e+000 1.900e+000 1.900e+000 1.900e+000 1.900e+000 1.900e+000 1.900e+000 1.900e+000 1.900e+000 1.900e+000 1.900e+000 1.900e+000 1.900e+000 1.900e+000 1.900e+000 1.900e+000 1.900e+000 1.900e+000 1.900e+000 1.900e+000 1.900e+000 1.900e+000 1.900e+000 1.900e+000 1.900e+000 1.900e+000 1.900e+000 1.900e+000 1.900e+000 1.900e+000 1.900e+000 1.900e+000 1.900e+000 1.900e+000 1.900e+000 1.900e+000 1.900e+000 1.900e+000 1.900e+000 1.900e+000 1.900e+000 1.900e+000 1.900e+000 1.900e+000 1.900e+000 1.900e+000 1.900e+000 1.900e+000 1.900e+000 1.900e+000 1.900e+000 1.900e+000 1.900e+000 1.900e+000 1.900e+000 1.900e+000 1.900e+000 1.900e+000 1.900e+000 1.900e+000 1.900e+000 1.900e+000 1.900e+000 1.900e+000 1.900e+000 1.900e+000 1.900e+000 1.900e+000 1.900e+000 1.900e+000 1.900e+000 1.900e+000 1.900e+000 1.900e+000 1.900e+000 1.900e+000 1.900e+000 1.900e+000 1.900e+000 1.900e+000 1.900e+000 1.900e+000 1.900e+000 1.900e+000 1.900e+000 1.900e+000 1.900e+000 1.900e+000 1.900e+000 1.900e+000 1.900e+000 1.900e+000 1.900e+000 1.900e+000 1.900e+000 1.900e+000 1.900e+000 1.900e+000 1.900e+000 1.900e+000 1.900e+000 1.900e+000 1.900e+000 1.900e+000 1.900e+000 1.900e+000 1.900e+000 1.900e+000 1.900e+000 1.900e+000 1.900e+000 1.900e+000 1.900e+000 1.900e+000 1.900e+000 1.900e+000 1.900e+000 1.900e+000 1.900e+000 1.900e+000 1.900e+000 1.900e+000 1.900e+000 1.900e+000 1.900e+000 1.900e+000 1.900e+000 1.900e+000 1.900e+000 1.900e+000 1.900e+000 1.900e+000 1.900e+000 1.900e+000 1.900e+000 1.900e+000 1.900e+000 1.900e+000 1.900e+000 1.900e+000 1.900e+000 1.900e+000 1.900e+000 1.900e+000 1.900e+000 1.900e+000 1.900e+000 1.900e+000 1.900e+000 1.900e+000 1.900e+000 1.900e+000 1.900e+000 1.900e+000 1.900e+000 1.900e+000 1.900e+000 1.900e+000 1.900e+000 1.900e+000 1.900e+000 1.900e+000 1.900e+000 1.900e+000 1.900e+000 1.900e+000 1.900e+000 1.900e+000 1.900e+000 1.900e+000 1.900e+000 1.900e+000 1.900e+000 1.900e+000 1.900e+000 1.900e+000 1.900e+000 1.900e+000 1.900e+000 1.900e+000 1.900e+000 1.900e+000 1.900e+000 1.900e+000 1.900e+000 1.900e+000 1.900e+000 1.900e+000 1.900e+000 1.900e+000 1.900e+000 1.900e+000 1.900e+000 1.900e+000 1.900e+000 1.900e+000 1.900e+000 1.900e+000 1.900e+000 1.900e+000 1.900e+000 1.900e+000 1.900e+000 1.900e+000 1.900e+000 1.900e+000 1.900e+000 1.900e+000 1.900e+000 1.900e+000 1.900e+000 1.900e+000 1.900e+000 1.900e+000 1.900e+000 1.900e+000 1.900e+000 1.900e+000 1.900e+000 1.900e+000 1.900e+000 1.900e+000 1.900e+000 1.900e+000 1.900e+000 1.900e+000 1.900e+000 1.900e+000 1.900e+000 1.900e+000 1.900e+000 1.900e+000 1.900e+000 1.900e+000 1.900e+000 1.900e+000 1.900e+000 1.900e+000 1.900e+000 1.900e+000 1.900e+000 1.900e+000 1.900e+000 1.900e+000 1.900e+000 1.900e+000 1.900e+000 1.900e+000 1.900e+000 1.900e+000 1.900e+000 1.900e+000 1.900e+000 1.900e+000 1.900e+000 1.900e+000 1.900e+000 1.900e+000 1.900e+000 1.900e+000 1.900e+000 1.900e+000 1.900e+000 1.900e+000 1.900e+000 1.900e+000 1.900e+000 1.900e+000 1.900e+000 1.900e+000 1.900e+000 1.900e+000 1.900e+000 1.900e+000 1.900e+000 1.900e+000 1.900e+000 1.900e+000 1.900e+000 1.900e+000 1.900e+000 1.900e+000 1.900e+000 1.900e+000 1.900e+000 1.900e+000 1.900e+000 1.900e+000 1.900e+000 1.900e+000 1.900e+000 1.900e+000 1.900e+000
           </DataArray>
           <DataArray type="Float32" Name="nitrate/Km" NumberOfComponents="1" format="ascii">
 1.610e-002 1.610e-002 1.610e-002 1.610e-002 1.610e-002 1.610e-002 1.610e-002 1.610e-002 1.610e-002 1.610e-002 1.610e-002 1.610e-002 1.610e-002 1.610e-002 1.610e-002 1.610e-002 1.610e-002 1.610e-002 1.610e-002 1.610e-002 1.610e-002 1.610e-002 1.610e-002 1.610e-002 1.610e-002 1.610e-002 1.610e-002 1.610e-002 1.610e-002 1.610e-002 1.610e-002 1.610e-002 1.610e-002 1.610e-002 1.610e-002 1.610e-002 1.610e-002 1.610e-002 1.610e-002 1.610e-002 1.610e-002 1.610e-002 1.610e-002 1.610e-002 1.610e-002 1.610e-002 1.610e-002 1.610e-002 1.610e-002 1.610e-002 1.610e-002 1.610e-002 1.610e-002 1.610e-002 1.610e-002 1.610e-002 1.610e-002 1.610e-002 1.610e-002 1.610e-002 1.610e-002 1.610e-002 1.610e-002 1.610e-002 1.610e-002 1.610e-002 1.610e-002 1.610e-002 1.610e-002 1.610e-002 1.610e-002 1.610e-002 1.610e-002 1.610e-002 1.610e-002 1.610e-002 1.610e-002 1.610e-002 1.610e-002 1.610e-002 1.610e-002 1.610e-002 1.610e-002 1.610e-002 1.610e-002 1.610e-002 1.610e-002 1.610e-002 1.610e-002 1.610e-002 1.610e-002 1.610e-002 1.610e-002 1.610e-002 1.610e-002 1.610e-002 1.610e-002 1.610e-002 1.610e-002 1.610e-002 1.610e-002 1.610e-002 1.610e-002 1.610e-002 1.610e-002 1.610e-002 1.610e-002 1.610e-002 1.610e-002 1.610e-002 1.610e-002 1.610e-002 1.610e-002 1.610e-002 1.610e-002 1.610e-002 1.610e-002 1.610e-002 1.610e-002 1.610e-002 1.610e-002 1.610e-002 1.610e-002 1.610e-002 1.610e-002 1.610e-002 1.610e-002 1.610e-002 1.610e-002 1.610e-002 1.610e-002 1.610e-002 1.610e-002 1.610e-002 1.610e-002 1.610e-002 1.610e-002 1.610e-002 1.610e-002 1.610e-002 1.610e-002 1.610e-002 1.610e-002 1.610e-002 1.610e-002 1.610e-002 1.610e-002 1.610e-002 1.610e-002 1.610e-002 1.610e-002 1.610e-002 1.610e-002 1.610e-002 1.610e-002 1.610e-002 1.610e-002 1.610e-002 1.610e-002 1.610e-002 1.610e-002 1.610e-002 1.610e-002 1.610e-002 1.610e-002 1.610e-002 1.610e-002 1.610e-002 1.610e-002 1.610e-002 1.610e-002 1.610e-002 1.610e-002 1.610e-002 1.610e-002 1.610e-002 1.610e-002 1.610e-002 1.610e-002 1.610e-002 1.610e-002 1.610e-002 1.610e-002 1.610e-002 1.610e-002 1.610e-002 1.610e-002 1.610e-002 1.610e-002 1.610e-002 1.610e-002 1.610e-002 1.610e-002 1.610e-002 1.610e-002 1.610e-002 1.610e-002 1.610e-002 1.610e-002 1.610e-002 1.610e-002 1.610e-002 1.610e-002 1.610e-002 1.610e-002 1.610e-002 1.610e-002 1.610e-002 1.610e-002 1.610e-002 1.610e-002 1.610e-002 1.610e-002 1.610e-002 1.610e-002 1.610e-002 1.610e-002 1.610e-002 1.610e-002 1.610e-002 1.610e-002 1.610e-002 1.610e-002 1.610e-002 1.610e-002 1.610e-002 1.610e-002 1.610e-002 1.610e-002 1.610e-002 1.610e-002 1.610e-002 1.610e-002 1.610e-002 1.610e-002 1.610e-002 1.610e-002 1.610e-002 1.610e-002 1.610e-002 1.610e-002 1.610e-002 1.610e-002 1.610e-002 1.610e-002 1.610e-002 1.610e-002 1.610e-002 1.610e-002 1.610e-002 1.610e-002 1.610e-002 1.610e-002 1.610e-002 1.610e-002 1.610e-002 1.610e-002 1.610e-002 1.610e-002 1.610e-002 1.610e-002 1.610e-002 1.610e-002 1.610e-002 1.610e-002 1.610e-002 1.610e-002 1.610e-002 1.610e-002 1.610e-002 1.610e-002 1.610e-002 1.610e-002 1.610e-002 1.610e-002 1.610e-002 1.610e-002 1.610e-002 1.610e-002 1.610e-002 1.610e-002 1.610e-002 1.610e-002 1.610e-002 1.610e-002 1.610e-002 1.610e-002 1.610e-002 1.610e-002 1.610e-002 1.610e-002 1.610e-002 1.610e-002 1.610e-002 1.610e-002 1.610e-002 1.610e-002 1.610e-002 1.610e-002 1.610e-002 1.610e-002 1.610e-002 1.610e-002 1.610e-002 1.610e-002 1.610e-002 1.610e-002 1.610e-002 1.610e-002 1.610e-002 1.610e-002 1.610e-002 1.610e-002 1.610e-002 1.610e-002 1.610e-002 1.610e-002 1.610e-002 1.610e-002 1.610e-002 1.610e-002 1.610e-002 1.610e-002 1.610e-002 1.610e-002 1.610e-002 1.610e-002 1.610e-002
           </DataArray>
           <DataArray type="Float32" Name="nitrate/minimalNutrientConcentration" NumberOfComponents="1" format="ascii">
 6.000e+002 6.000e+002 6.000e+002 6.000e+002 6.000e+002 6.000e+002 6.000e+002 6.000e+002 6.000e+002 6.000e+002 6.000e+002 6.000e+002 6.000e+002 6.000e+002 6.000e+002 6.000e+002 6.000e+002 6.000e+002 6.000e+002 6.000e+002 6.000e+002 6.000e+002 6.000e+002 6.000e+002 6.000e+002 6.000e+002 6.000e+002 6.000e+002 6.000e+002 6.000e+002 6.000e+002 6.000e+002 6.000e+002 6.000e+002 6.000e+002 6.000e+002 6.000e+002 6.000e+002 6.000e+002 6.000e+002 6.000e+002 6.000e+002 6.000e+002 6.000e+002 6.000e+002 6.000e+002 6.000e+002 6.000e+002 6.000e+002 6.000e+002 6.000e+002 6.000e+002 6.000e+002 6.000e+002 6.000e+002 6.000e+002 6.000e+002 6.000e+002 6.000e+002 6.000e+002 6.000e+002 6.000e+002 6.000e+002 6.000e+002 6.000e+002 6.000e+002 6.000e+002 6.000e+002 6.000e+002 6.000e+002 6.000e+002 6.000e+002 6.000e+002 6.000e+002 6.000e+002 6.000e+002 6.000e+002 6.000e+002 6.000e+002 6.000e+002 6.000e+002 6.000e+002 6.000e+002 6.000e+002 6.000e+002 6.000e+002 6.000e+002 6.000e+002 6.000e+002 6.000e+002 6.000e+002 6.000e+002 6.000e+002 6.000e+002 6.000e+002 6.000e+002 6.000e+002 6.000e+002 6.000e+002 6.000e+002 6.000e+002 6.000e+002 6.000e+002 6.000e+002 6.000e+002 6.000e+002 6.000e+002 6.000e+002 6.000e+002 6.000e+002 6.000e+002 6.000e+002 6.000e+002 6.000e+002 6.000e+002 6.000e+002 6.000e+002 6.000e+002 6.000e+002 6.000e+002 6.000e+002 6.000e+002 6.000e+002 6.000e+002 6.000e+002 6.000e+002 6.000e+002 6.000e+002 6.000e+002 6.000e+002 6.000e+002 6.000e+002 6.000e+002 6.000e+002 6.000e+002 6.000e+002 6.000e+002 6.000e+002 6.000e+002 6.000e+002 6.000e+002 6.000e+002 6.000e+002 6.000e+002 6.000e+002 6.000e+002 6.000e+002 6.000e+002 6.000e+002 6.000e+002 6.000e+002 6.000e+002 6.000e+002 6.000e+002 6.000e+002 6.000e+002 6.000e+002 6.000e+002 6.000e+002 6.000e+002 6.000e+002 6.000e+002 6.000e+002 6.000e+002 6.000e+002 6.000e+002 6.000e+002 6.000e+002 6.000e+002 6.000e+002 6.000e+002 6.000e+002 6.000e+002 6.000e+002 6.000e+002 6.000e+002 6.000e+002 6.000e+002 6.000e+002 6.000e+002 6.000e+002 6.000e+002 6.000e+002 6.000e+002 6.000e+002 6.000e+002 6.000e+002 6.000e+002 6.000e+002 6.000e+002 6.000e+002 6.000e+002 6.000e+002 6.000e+002 6.000e+002 6.000e+002 6.000e+002 6.000e+002 6.000e+002 6.000e+002 6.000e+002 6.000e+002 6.000e+002 6.000e+002 6.000e+002 6.000e+002 6.000e+002 6.000e+002 6.000e+002 6.000e+002 6.000e+002 6.000e+002 6.000e+002 6.000e+002 6.000e+002 6.000e+002 6.000e+002 6.000e+002 6.000e+002 6.000e+002 6.000e+002 6.000e+002 6.000e+002 6.000e+002 6.000e+002 6.000e+002 6.000e+002 6.000e+002 6.000e+002 6.000e+002 6.000e+002 6.000e+002 6.000e+002 6.000e+002 6.000e+002 6.000e+002 6.000e+002 6.000e+002 6.000e+002 6.000e+002 6.000e+002 6.000e+002 6.000e+002 6.000e+002 6.000e+002 6.000e+002 6.000e+002 6.000e+002 6.000e+002 6.000e+002 6.000e+002 6.000e+002 6.000e+002 6.000e+002 6.000e+002 6.000e+002 6.000e+002 6.000e+002 6.000e+002 6.000e+002 6.000e+002 6.000e+002 6.000e+002 6.000e+002 6.000e+002 6.000e+002 6.000e+002 6.000e+002 6.000e+002 6.000e+002 6.000e+002 6.000e+002 6.000e+002 6.000e+002 6.000e+002 6.000e+002 6.000e+002 6.000e+002 6.000e+002 6.000e+002 6.000e+002 6.000e+002 6.000e+002 6.000e+002 6.000e+002 6.000e+002 6.000e+002 6.000e+002 6.000e+002 6.000e+002 6.000e+002 6.000e+002 6.000e+002 6.000e+002 6.000e+002 6.000e+002 6.000e+002 6.000e+002 6.000e+002 6.000e+002 6.000e+002 6.000e+002 6.000e+002 6.000e+002 6.000e+002 6.000e+002 6.000e+002 6.000e+002 6.000e+002 6.000e+002 6.000e+002 6.000e+002 6.000e+002 6.000e+002 6.000e+002 6.000e+002 6.000e+002 6.000e+002 6.000e+002 6.000e+002 6.000e+002 6.000e+002 6.000e+002 6.000e+002 6.000e+002 6.000e+002 6.000e+002 6.000e+002
           </DataArray>
           <DataArray type="Float32" Name="nitrate/nutrientConcentrationAtTheRootSurface" NumberOfComponents="1" format="ascii">