<?xml version="1.0"?>
<VTKFile type="UnstructuredGrid" version="0.1" byte_order="LittleEndian">
   <UnstructuredGrid>
      <Piece NumberOfPoints="44790" NumberOfCells="3214">
         <Points>
            <DataArray type="Float32" Name="Position" NumberOfComponents="3" format="ascii">
-0.034	-5.072	0.137
-0.035	-5.064	0.142
-0.036	-5.055	0.141
-0.036	-5.048	0.135
-0.037	-5.046	0.126
-0.037	-5.049	0.117
-0.037	-5.057	0.113
-0.036	-5.066	0.113
-0.035	-5.073	0.119
-0.035	-5.075	0.129
-0.896	-5.139	0.181
-0.898	-5.131	0.186
-0.899	-5.122	0.186
-0.901	-5.115	0.180
-0.901	-5.113	0.171
-0.901	-5.116	0.162
-0.899	-5.123	0.157
-0.897	-5.132	0.157
-0.896	-5.140	0.163
-0.895	-5.142	0.172
-1.719	-5.408	0.137
-1.722	-5.402	0.143
-1.726	-5.394	0.144
-1.728	-5.386	0.139
-1.729	-5.383	0.130
-1.728	-5.384	0.121
-1.725	-5.391	0.115
-1.721	-5.399	0.115
-1.719	-5.407	0.119
-1.718	-5.410	0.128
-2.497	-5.794	0.060
-2.501	-5.790	0.067
-2.506	-5.782	0.068
-2.510	-5.775	0.064
-2.511	-5.770	0.056
-2.509	-5.770	0.047
-2.504	-5.774	0.041
-2.499	-5.782	0.039
-2.495	-5.790	0.043
-2.494	-5.794	0.051
-2.652	-5.915	-0.013
-2.657	-5.912	-0.007
-2.663	-5.905	-0.004
-2.668	-5.898	-0.008
-2.669	-5.892	-0.015
-2.666	-5.891	-0.024
-2.660	-5.894	-0.030
-2.654	-5.900	-0.033
-2.650	-5.908	-0.029
-2.649	-5.913	-0.022
-0.052	-5.165	0.243
-0.047	-5.157	0.244
-0.049	-5.148	0.245
-0.055	-5.141	0.244
-0.064	-5.139	0.242
-0.072	-5.143	0.240
-0.076	-5.151	0.239
-0.075	-5.160	0.238
-0.069	-5.167	0.239
-0.060	-5.168	0.241
-0.223	-5.233	1.096
-0.219	-5.225	1.099
-0.220	-5.216	1.100
-0.226	-5.209	1.100
-0.235	-5.207	1.097
-0.243	-5.211	1.094
-0.247	-5.218	1.091
-0.245	-5.227	1.089
-0.239	-5.234	1.090
-0.230	-5.236	1.092
-0.591	-5.552	1.827
-0.588	-5.545	1.832
-0.591	-5.537	1.836
-0.597	-5.530	1.836
-0.605	-5.528	1.833
-0.612	-5.530	1.827
-0.615	-5.537	1.821
-0.612	-5.545	1.817
-0.606	-5.552	1.817
-0.598	-5.554	1.821
-1.024	-6.054	2.409
-1.022	-6.047	2.415
-1.024	-6.038	2.418
-1.030	-6.032	2.418
-1.038	-6.029	2.414
-1.045	-6.032	2.408
-1.048	-6.039	2.403
-1.046	-6.047	2.399
-1.039	-6.054	2.400
-1.031	-6.056	2.404
-1.438	-6.294	3.130
-1.434	-6.287	3.134
-1.435	-6.278	3.135
-1.441	-6.271	3.134
-1.449	-6.268	3.130
-1.457	-6.271	3.125
-1.461	-6.279	3.122
-1.459	-6.288	3.120
-1.454	-6.295	3.121
-1.445	-6.298	3.125
-1.504	-6.314	3.265
-1.499	-6.307	3.268
-1.500	-6.298	3.269
-1.506	-6.290	3.267
-1.514	-6.288	3.264
-1.522	-6.291	3.260
-1.526	-6.299	3.256
-1.525	-6.308	3.255
-1.519	-6.315	3.257
-1.511	-6.318	3.261
-0.152	-6.217	1.086
-0.154	-6.209	1.090
-0.155	-6.200	1.088
-0.155	-6.194	1.081
-0.154	-6.192	1.072
-0.152	-6.197	1.064
-0.150	-6.205	1.060
-0.149	-6.214	1.062
-0.149	-6.220	1.069
-0.150	-6.222	1.078
-1.002	-6.338	0.937
-1.004	-6.330	0.942
-1.006	-6.321	0.941
-1.007	-6.315	0.934
-1.006	-6.312	0.926
-1.004	-6.316	0.917
-1.001	-6.323	0.913
-0.999	-6.332	0.914
-0.998	-6.339	0.920
-0.999	-6.341	0.929
-1.807	-6.644	0.785
-1.810	-6.637	0.790
-1.813	-6.628	0.791
-1.815	-6.621	0.785
-1.815	-6.618	0.776
-1.813	-6.620	0.768
-1.811	-6.627	0.762
-1.808	-6.636	0.762
-1.806	-6.643	0.767
-1.806	-6.646	0.776
-2.646	-6.880	0.799
-2.647	-6.872	0.804
-2.649	-6.863	0.804
-2.651	-6.856	0.798
-2.651	-6.853	0.789
-2.650	-6.856	0.781
-2.649	-6.864	0.775
-2.647	-6.873	0.776
-2.645	-6.880	0.781
-2.645	-6.883	0.790
-2.921	-6.922	0.787
-2.923	-6.915	0.792
-2.924	-6.906	0.791
-2.925	-6.899	0.785
-2.925	-6.897	0.776
-2.924	-6.900	0.767
-2.922	-6.908	0.762
-2.921	-6.917	0.763
-2.920	-6.924	0.769
-2.920	-6.926	0.778
-0.453	-19.329	3.615
-0.450	-19.322	3.619
-0.450	-19.313	3.620
-0.454	-19.305	3.616
-0.461	-19.302	3.610
-0.467	-19.305	3.603
-0.470	-19.312	3.599
-0.469	-19.322	3.598
-0.465	-19.329	3.602
-0.459	-19.332	3.608
-1.083	-19.402	4.206
-1.081	-19.395	4.212
-1.083	-19.386	4.214
-1.087	-19.379	4.210
-1.093	-19.376	4.204
-1.098	-19.378	4.196
-1.100	-19.385	4.191
-1.098	-19.394	4.189
-1.094	-19.402	4.192
-1.088	-19.405	4.199
-1.158	-19.435	4.247
-1.157	-19.429	4.253
-1.160	-19.420	4.256
-1.165	-19.413	4.253
-1.170	-19.409	4.246
-1.174	-19.411	4.238
-1.174	-19.418	4.231
-1.172	-19.426	4.229
-1.167	-19.434	4.232
-1.162	-19.437	4.238
-0.461	-19.463	3.611
-0.462	-19.455	3.615
-0.467	-19.452	3.623
-0.472	-19.453	3.630
-0.477	-19.460	3.635
-0.478	-19.469	3.634
-0.477	-19.477	3.630
-0.473	-19.481	3.623
-0.467	-19.479	3.615
-0.463	-19.472	3.611
0.251	-19.616	4.106
0.249	-19.609	4.111
0.245	-19.606	4.119
0.241	-19.609	4.127
0.237	-19.616	4.131
0.236	-19.625	4.131
0.238	-19.633	4.125
0.242	-19.636	4.117
0.247	-19.633	4.110
0.250	-19.625	4.106
0.337	-19.619	4.145
0.334	-19.612	4.151
0.331	-19.610	4.159
0.327	-19.614	4.167
0.325	-19.623	4.171
0.325	-19.632	4.170
0.327	-19.638	4.164
0.331	-19.640	4.155
0.335	-19.636	4.148
0.337	-19.628	4.144
-0.487	-19.620	3.649
-0.488	-19.611	3.648
-0.485	-19.603	3.643
-0.481	-19.600	3.636
-0.476	-19.603	3.629
-0.472	-19.610	3.624
-0.471	-19.620	3.625
-0.473	-19.627	3.630
-0.478	-19.630	3.637
-0.483	-19.628	3.644
-1.121	-19.710	3.211
-1.117	-19.702	3.211
-1.118	-19.693	3.211
-1.125	-19.686	3.211
-1.134	-19.685	3.211
-1.142	-19.689	3.211
-1.146	-19.697	3.211
-1.145	-19.707	3.211
-1.138	-19.713	3.211
-1.129	-19.715	3.211
-0.477	-19.763	3.638
-0.478	-19.755	3.641
-0.483	-19.750	3.647
-0.489	-19.751	3.654
-0.494	-19.757	3.659
-0.496	-19.766	3.660
-0.495	-19.774	3.657
-0.490	-19.779	3.651
-0.484	-19.778	3.644
-0.479	-19.772	3.639
0.171	-19.849	4.204
0.169	-19.840	4.207
0.165	-19.835	4.212
0.158	-19.835	4.219
0.152	-19.840	4.224
0.149	-19.849	4.225
0.150	-19.858	4.222
0.155	-19.863	4.216
0.162	-19.863	4.210
0.168	-19.858	4.205
0.236	-19.871	4.328
0.245	-19.871	4.332
0.254	-19.871	4.330
0.260	-19.871	4.324
0.262	-19.871	4.315
0.257	-19.871	4.306
0.249	-19.871	4.302
0.240	-19.871	4.304
0.234	-19.871	4.310
0.232	-19.871	4.319
-0.481	-19.923	3.659
-0.478	-19.915	3.659
-0.480	-19.906	3.660
-0.488	-19.900	3.662
-0.497	-19.900	3.663
-0.504	-19.905	3.663
-0.508	-19.913	3.663
-0.505	-19.922	3.662
-0.498	-19.928	3.661
-0.489	-19.928	3.659
-0.378	-19.992	4.451
-0.375	-19.983	4.452
-0.377	-19.974	4.453
-0.384	-19.968	4.454
-0.394	-19.968	4.455
-0.401	-19.973	4.456
-0.405	-19.982	4.455
-0.402	-19.991	4.454
-0.395	-19.996	4.453
-0.386	-19.997	4.452
-0.492	-20.058	3.661
-0.493	-20.051	3.667
-0.497	-20.049	3.676
-0.501	-20.052	3.683
-0.504	-20.060	3.687
-0.506	-20.069	3.686
-0.505	-20.076	3.680
-0.502	-20.078	3.672
-0.497	-20.075	3.664
-0.494	-20.067	3.660
0.289	-20.241	4.021
0.288	-20.233	4.027
0.284	-20.230	4.034
0.279	-20.232	4.042
0.275	-20.239	4.046
0.273	-20.248	4.045
0.274	-20.256	4.040
0.278	-20.259	4.033
0.283	-20.257	4.025
0.287	-20.250	4.021
0.343	-20.258	4.063
0.342	-20.250	4.068
0.338	-20.245	4.075
0.332	-20.247	4.082
0.327	-20.253	4.086
0.324	-20.262	4.086
0.325	-20.270	4.082
0.329	-20.274	4.075
0.335	-20.273	4.068
0.340	-20.267	4.064
-0.508	-20.221	3.701
-0.510	-20.212	3.703
-0.510	-20.204	3.700
-0.508	-20.198	3.693
-0.505	-20.198	3.684
-0.501	-20.204	3.677
-0.499	-20.212	3.675
-0.499	-20.221	3.678
-0.501	-20.227	3.685
-0.504	-20.227	3.694
-1.273	-20.324	3.427
-1.275	-20.315	3.429
-1.275	-20.306	3.426
-1.273	-20.301	3.419
-1.270	-20.301	3.410
-1.267	-20.306	3.403
-1.265	-20.315	3.401
-1.265	-20.324	3.404
-1.267	-20.329	3.411
-1.270	-20.329	3.420
-0.504	-20.355	3.692
-0.503	-20.349	3.700
-0.505	-20.348	3.709
-0.508	-20.352	3.716
-0.512	-20.360	3.719
-0.516	-20.368	3.717
-0.517	-20.374	3.710
-0.515	-20.375	3.701
-0.512	-20.371	3.693
-0.507	-20.363	3.690
0.257	-20.708	3.874
0.258	-20.702	3.881
0.256	-20.701	3.890
0.253	-20.705	3.898
0.248	-20.713	3.901
0.245	-20.721	3.898
0.244	-20.727	3.891
0.246	-20.728	3.882
0.249	-20.724	3.875
0.254	-20.717	3.871
-0.504	-20.522	3.721
-0.500	-20.514	3.724
-0.501	-20.505	3.725
-0.507	-20.498	3.724
-0.516	-20.496	3.722
-0.524	-20.499	3.718
-0.528	-20.507	3.716
-0.527	-20.516	3.714
-0.521	-20.523	3.715
-0.512	-20.525	3.718
-0.718	-20.633	4.355
-0.714	-20.625	4.357
-0.715	-20.616	4.359
-0.721	-20.609	4.358
-0.730	-20.607	4.355
-0.738	-20.610	4.352
-0.742	-20.618	4.349
-0.741	-20.627	4.348
-0.735	-20.634	4.349
-0.726	-20.636	4.351
-0.507	-20.672	3.737
-0.503	-20.664	3.739
-0.504	-20.655	3.740
-0.509	-20.647	3.738
-0.518	-20.645	3.735
-0.526	-20.648	3.732
-0.530	-20.656	3.729
-0.529	-20.665	3.729
-0.524	-20.672	3.730
-0.515	-20.675	3.733
-0.772	-20.739	4.398
-0.767	-20.731	4.401
-0.768	-20.722	4.402
-0.774	-20.715	4.400
-0.782	-20.713	4.397
-0.790	-20.716	4.394
-0.795	-20.724	4.391
-0.794	-20.733	4.390
-0.788	-20.740	4.392
-0.780	-20.742	4.395
-0.156	-6.326	1.140
-0.154	-6.322	1.148
-0.152	-6.323	1.157
-0.152	-6.329	1.164
-0.155	-6.338	1.166
-0.158	-6.346	1.162
-0.160	-6.350	1.154
-0.162	-6.349	1.145
-0.162	-6.342	1.138
-0.159	-6.334	1.137
0.663	-6.558	0.969
0.666	-6.554	0.977
0.669	-6.556	0.986
0.669	-6.563	0.992
0.667	-6.572	0.994
0.664	-6.580	0.990
0.661	-6.583	0.982
0.658	-6.581	0.973
0.658	-6.574	0.967
0.659	-6.565	0.966
1.435	-6.710	0.594
1.440	-6.707	0.601
1.445	-6.710	0.608
1.447	-6.717	0.613
1.446	-6.726	0.614
1.442	-6.734	0.610
1.437	-6.737	0.603
1.432	-6.734	0.596
1.430	-6.727	0.591
1.431	-6.717	0.590
2.072	-6.817	0.007
2.078	-6.814	0.013
2.084	-6.817	0.020
2.086	-6.825	0.025
2.084	-6.834	0.027
2.080	-6.841	0.023
2.073	-6.844	0.017
2.068	-6.841	0.010
2.066	-6.834	0.005
2.067	-6.824	0.004
2.338	-6.935	-0.193
2.342	-6.927	-0.193
2.341	-6.918	-0.193
2.334	-6.911	-0.193
2.325	-6.910	-0.193
2.317	-6.914	-0.193
2.312	-6.922	-0.193
2.314	-6.931	-0.193
2.320	-6.938	-0.193
2.330	-6.939	-0.193
-0.517	-20.800	3.737
-0.516	-20.795	3.745
-0.516	-20.796	3.754
-0.518	-20.801	3.761
-0.520	-20.810	3.764
-0.522	-20.818	3.760
-0.523	-20.823	3.752
-0.522	-20.823	3.743
-0.521	-20.817	3.736
-0.519	-20.808	3.734
0.241	-20.981	3.752
0.242	-20.977	3.760
0.242	-20.977	3.769
0.240	-20.983	3.776
0.238	-20.991	3.779
0.236	-21.000	3.775
0.235	-21.005	3.768
0.235	-21.004	3.758
0.237	-20.999	3.751
0.239	-20.990	3.749
-0.512	-20.969	3.765
-0.508	-20.961	3.769
-0.510	-20.952	3.771
-0.517	-20.946	3.771
-0.526	-20.944	3.769
-0.534	-20.948	3.766
-0.537	-20.956	3.762
[...]
         <CellData>
           <DataArray type="Float32" Name="combinedRootClassID" NumberOfComponents="1" format="ascii">
 -1.300e+001 -1.300e+001 -1.300e+001 -1.300e+001 -1.300e+001 -1.300e+001 -1.300e+001 -1.300e+001 -1.300e+001 -1.300e+001 -1.300e+001 -1.300e+001 -1.300e+001 -1.300e+001 -1.300e+001 -1.300e+001 -1.300e+001 -1.300e+001 -1.300e+001 -1.300e+001 -1.300e+001 -1.300e+001 -1.300e+001 -1.300e+001 -1.300e+001 -1.300e+001 -1.300e+001 -1.300e+001 -1.300e+001 -1.300e+001 -1.300e+001 -1.300e+001 -1.300e+001 -1.300e+001 -1.300e+001 -1.300e+001 -1.300e+001 -1.300e+001 -1.300e+001 -1.300e+001 -1.300e+001 -1.300e+001 -1.300e+001 -1.300e+001 -1.300e+001 -1.300e+001 -1.300e+001 -1.300e+001 -1.300e+001 -1.300e+001 -1.300e+001 -1.300e+001 -1.300e+001 -1.300e+001 -1.300e+001 -1.300e+001 -1.300e+001 -1.300e+001 -1.300e+001 -1.300e+001 -1.300e+001 -1.300e+001 -1.300e+001 -1.300e+001 -1.300e+001 -1.300e+001 -1.300e+001 -1.300e+001 -1.300e+001 -1.300e+001 -1.300e+001 -1.300e+001 -1.300e+001 -1.300e+001 -1.300e+001 -1.300e+001 -1.300e+001 -1.300e+001 -1.300e+001 -1.300e+001 -1.300e+001 -1.300e+001 -1.300e+001 -1.300e+001 -1.300e+001 -1.300e+001 -1.300e+001 -1.300e+001 -1.300e+001 -1.300e+001 -1.300e+001 -1.300e+001 -1.300e+001 -1.300e+001 -1.300e+001 -1.300e+001 -1.300e+001 -1.300e+001 -1.300e+001 -1.300e+001 -1.300e+001 -1.300e+001 -1.300e+001 -1.300e+001 -1.300e+001 -1.300e+001 -1.300e+001 -1.300e+001 -1.300e+001 -1.300e+001 -1.300e+001 -1.300e+001 -1.300e+001 -1.300e+001 -1.300e+001 -1.300e+001 -1.300e+001 -1.300e+001 -1.300e+001 -1.300e+001 -1.300e+001 -1.300e+001 -1.300e+001 -1.300e+001 -1.300e+001 -1.300e+001 -1.300e+001 -1.300e+001 -1.300e+001 -1.300e+001 -1.300e+001 -1.300e+001 -1.300e+001 -1.300e+001 -1.300e+001 -1.300e+001 -1.300e+001 -1.300e+001 -1.300e+001 -1.300e+001 -1.300e+001 -1.300e+001 -1.300e+001 -1.300e+001 -1.300e+001 -1.300e+001 -1.300e+001 -1.300e+001 -1.300e+001 -1.300e+001 -1.300e+001 -1.300e+001 -1.300e+001 -1.300e+001 -1.300e+001 -1.300e+001 -1.300e+001 -1.300e+001 -1.300e+001 -1.300e+001 -1.300e+001 -1.300e+001 -1.300e+001 -1.300e+001 -1.300e+001 -1.300e+001 -1.300e+001 -1.300e+001 -1.300e+001 -1.300e+001 -1.300e+001 -1.300e+001 -1.300e+001 -1.300e+001 -1.300e+001 -1.300e+001 -1.300e+001 -1.300e+001 -1.300e+001 -1.300e+001 -1.300e+001 -1.300e+001 -1.300e+001 -1.300e+001 -1.300e+001 -1.300e+001 -1.300e+001 -1.300e+001 -1.300e+001 -1.300e+001 -1.300e+001 -1.300e+001 -1.300e+001 -1.300e+001 -1.300e+001 -1.300e+001 -1.300e+001 -1.300e+001 -1.300e+001 -1.300e+001 -1.300e+001 -1.300e+001 -1.300e+001 -1.300e+001 -1.300e+001 -1.300e+001 -1.300e+001 -1.300e+001 -1.300e+001 -1.300e+001 -1.300e+001 -1.300e+001 -1.300e+001 -1.300e+001 -1.300e+001 -1.300e+001 -1.300e+001 -1.300e+001 -1.300e+001 -1.300e+001 -1.300e+001 -1.300e+001 -1.300e+001 -1.300e+001 -1.300e+001 -1.300e+001 -1.300e+001 -1.300e+001 -1.300e+001 -1.300e+001 -1.300e+001 -1.300e+001 -1.300e+001 -1.300e+001 -1.300e+001 -1.300e+001 -1.300e+001 -1.300e+001 -1.300e+001 -1.300e+001 -1.300e+001 -1.300e+001 -1.300e+001 -1.300e+001 -1.300e+001 -1.300e+001 -1.300e+001 -1.300e+001 -1.300e+001 -1.300e+001 -1.300e+001 -1.300e+001 -1.300e+001 -1.300e+001 -1.300e+001 -1.300e+001 -1.300e+001 -1.300e+001 -1.300e+001 -1.300e+001 -1.300e+001 -1.300e+001 -1.300e+001 -1.300e+001 -1.300e+001 -1.300e+001 -1.300e+001 -1.300e+001 -1.300e+001 -1.300e+001 -1.300e+001 -1.300e+001 -1.300e+001 -1.300e+001 -1.300e+001 -1.300e+001 -1.300e+001 -1.300e+001 -1.300e+001 -1.300e+001 -1.300e+001 -1.300e+001 -1.300e+001 -1.300e+001 -1.300e+001 -1.300e+001 -1.300e+001 -1.300e+001 -1.300e+001 -1.300e+001 -1.300e+001 -1.300e+001 -1.300e+001 -1.300e+001 -1.300e+001 -1.300e+001 -1.300e+001 -1.300e+001 -1.300e+001 -1.300e+001 -1.300e+001 -1.300e+001 -1.300e+001 -1.300e+001 -1.300e+001 -1.300e+001 -1.300e+001 -1.300e+001 -1.300e+001 -1.300e+001 -1.300e+001 -1.300e+001 -1.300e+001 -1.300e+001 -1.300e+001 -1.300e+001 -1.300e+001 -1.300e+001 -1.300e+001 -1.300e+001 -1.300e+001 -1.300e+001 -1.300e+001 -1.300e+001 -1.300e+001 -1.300e+001 -1.300e+001 -1.300e+001 -1.300e+001 -1.300e+001 -1.300e+001 -1.300e+001 -1.300e+001 -1.300e+001 -1.300e+001 -1.300e+001 -1.300e+001 -1.300e+001 -5.000e+000 -5.000e+000 -5.000e+000 -5.000e+000 -5.000e+000 -5.000e+000 -5.000e+000 -5.000e+000 -5.000e+000 -5.000e+000 -5.000e+000 -5.000e+000 -5.000e+000 -5.000e+000 -5.000e+000 -5.000e+000 -5.000e+000 -5.000e+000 -5.000e+000 -5.000e+000 -5.000e+000 -5.000e+000 -5.000e+000 -5.000e+000 -5.000e+000 -5.000e+000 -5.000e+000 -5.000e+000 -5.000e+000 -5.000e+000 -5.000e+000 -5.000e+000 -5.000e+000 -5.000e+000 -5.000e+000 -5.000e+000 -5.000e+000 -5.000e+000 -1.300e+001 -1.300e+001 -1.300e+001 -1.300e+001 -1.300e+001 -1.300e+001 -1.300e+001 -1.300e+001 -1.300e+001 -1.300e+001 -1.300e+001 -1.300e+001 -1.300e+001 -1.300e+001 -1.300e+001 -1.300e+001 -1.300e+001 -1.300e+001 -1.300e+001 -1.300e+001 -1.300e+001 -1.300e+001 -1.300e+001 -1.300e+001 -1.300e+001 -1.300e+001 -1.300e+001 -1.300e+001 -1.300e+001 -1.300e+001 -1.300e+001 -1.300e+001 -1.300e+001 -1.300e+001 -1.300e+001 -1.300e+001 -1.300e+001 -1.300e+001 -1.300e+001 -1.300e+001 -1.300e+001 -1.300e+001 -1.300e+001 -1.300e+001 -1.300e+001 -1.300e+001 -1.300e+001 -1.300e+001 -1.300e+001 -1.300e+001 -1.300e+001 -1.300e+001 -1.300e+001 -1.300e+001 -1.300e+001 -1.300e+001 -1.300e+001 -1.300e+001 -1.300e+001 -1.300e+001 -1.300e+001 -1.300e+001 -1.300e+001 -1.300e+001 -1.300e+001 -1.300e+001 -1.300e+001 -1.300e+001 -1.300e+001 -1.300e+001 -1.300e+001 -1.300e+001 -1.300e+001 -1.300e+001 -1.300e+001 -1.300e+001 -1.300e+001 -1.300e+001 -1.300e+001 -1.300e+001 -1.300e+001 -1.300e+001 -1.300e+001 -1.300e+001 -1.300e+001 -1.300e+001 -1.300e+001 -1.300e+001 -1.300e+001 -1.300e+001 -1.300e+001 -1.300e+001 -1.300e+001 -1.300e+001 -1.300e+001 -1.300e+001 -1.300e+001 -1.300e+001 -1.300e+001 -1.300e+001 -1.300e+001 -1.300e+001 -1.300e+001 -1.300e+001 -1.300e+001 -1.300e+001 -1.300e+001 -1.300e+001 -1.300e+001 -1.300e+001 -1.300e+001 -1.300e+001 -1.300e+001 -1.300e+001 -1.300e+001 -1.300e+001 -1.300e+001 -1.300e+001 -1.300e+001 -1.300e+001 -1.300e+001 -1.300e+001 -1.300e+001 -1.300e+001 -1.300e+001 -1.300e+001 -1.300e+001 -1.300e+001 -1.300e+001 -1.300e+001 -1.300e+001 -1.300e+001 -1.300e+001 -1.300e+001 -1.300e+001 -1.300e+001 -1.300e+001 -1.300e+001 -1.300e+001 -1.300e+001 -1.300e+001 -1.300e+001 -1.300e+001 -1.300e+001 -1.300e+001 -1.300e+001 -1.300e+001 -1.300e+001 -1.300e+001 -1.300e+001 -1.300e+001 -1.300e+001 -1.300e+001 -1.300e+001 -1.300e+001 -1.300e+001 -1.300e+001 -1.300e+001 -1.300e+001 -1.300e+001 -1.300e+001 -1.300e+001 -1.300e+001 -1.300e+001 -1.300e+001 -1.300e+001 -1.300e+001 -1.300e+001 -1.300e+001 -1.300e+001 -1.300e+001 -1.300e+001 -1.300e+001 -1.300e+001 -1.300e+001 -1.300e+001 -1.300e+001 -1.300e+001 -1.300e+001 -1.300e+001 -1.300e+001 -1.300e+001 -1.300e+001 -1.300e+001 -1.300e+001 -1.300e+001 -1.300e+001 -1.300e+001 -1.300e+001 -1.300e+001 -1.300e+001 -1.300e+001 -1.300e+001 -1.300e+001 -1.300e+001 -1.300e+001 -1.300e+001 -1.300e+001 -1.300e+001 -1.300e+001 -1.300e+001 -1.300e+001 -1.300e+001 -1.300e+001 -1.300e+001 -1.300e+001 -1.300e+001 -1.300e+001 -1.300e+001 -1.300e+001 -1.300e+001 -1.300e+001 -1.300e+001 -1.300e+001 -1.300e+001 -1.300e+001 -1.300e+001 -1.300e+001 -1.300e+001 -1.300e+001 -1.300e+001 -1.300e+001 -1.300e+001 -1.300e+001 -1.300e+001 -1.300e+001 -1.300e+001 -1.300e+001 -1.300e+001 -1.300e+001 -1.300e+001 -1.300e+001 -1.300e+001 -1.300e+001 -1.300e+001 -1.300e+001 -1.300e+001 -1.300e+001 -1.300e+001 -1.300e+001 -1.300e+001 -1.300e+001 -1.300e+001 -1.300e+001 -1.300e+001 -1.300e+001 -1.300e+001 -1.300e+001 -1.300e+001 -1.300e+001 -1.300e+001 -1.300e+001 -1.300e+001 -1.300e+001 -1.300e+001 -1.300e+001 -1.300e+001 -1.300e+001 -1.300e+001 -1.300e+001 -1.300e+001 -1.300e+001 -1.300e+001 -1.300e+001 -1.300e+001 -1.300e+001 -1.300e+001 -1.300e+001 -1.300e+001 -1.300e+001 -1.300e+001 -1.300e+001 -1.300e+001 -1.300e+001 -1.300e+001 -1.300e+001 -1.300e+001 -1.300e+001 -1.300e+001 -1.300e+001 -1.300e+001 -1.300e+001 -1.300e+001 -1.300e+001 -1.300e+001 -1.300e+001 -1.300e+001 -1.300e+001 -1.300e+001 -1.300e+001 -1.300e+001 -1.300e+001 -1.300e+001 -1.300e+001 -1.300e+001 -1.300e+001 -1.300e+001 -1.300e+001 -1.300e+001 -1.300e+001 -1.300e+001 -1.300e+001 -1.300e+001 -1.300e+001 -1.300e+001 -1.300e+001 -1.300e+001 -1.300e+001 -1.300e+001 -1.300e+001 -1.300e+001 -1.300e+001 -1.300e+001 -1.300e+001 -1.300e+001 -1.300e+001 -1.300e+001 -1.300e+001 -1.300e+001 -1.300e+001 -1.300e+001 -1.300e+001 -1.300e+001 -1.300e+001 -1.300e+001 -1.300e+001 -1.300e+001 -1.300e+001 -1.300e+001 -1.300e+001 -1.300e+001 -1.300e+001 -1.300e+001 -1.300e+001 -1.300e+001 -1.300e+001 -1.300e+001 -1.300e+001 -1.300e+001 -1.300e+001 -1.300e+001 -5.000e+000 -5.000e+000 -5.000e+000 -5.000e+000 -5.000e+000 -5.000e+000 -5.000e+000 -5.000e+000 -5.000e+000 -5.000e+000 -5.000e+000 -5.000e+000 -5.000e+000 -5.000e+000 -5.000e+000 -5.000e+000 -5.000e+000 -5.000e+000 -5.000e+000 -5.000e+000 -5.000e+000 -5.000e+000 -5.000e+000 -5.000e+000 -5.000e+000 -5.000e+000 -5.000e+000 -5.000e+000 -5.000e+000 -5.000e+000 -5.000e+000 -5.000e+000 -5.000e+000 -5.000e+000 -5.000e+000 -5.000e+000 -5.000e+000 -5.000e+000 -1.300e+001 -1.300e+001 -1.300e+001 -1.300e+001 -1.300e+001 -1.300e+001 -1.300e+001 -1.300e+001 -1.300e+001 -1.300e+001 -1.300e+001 -1.300e+001 -1.300e+001 -1.300e+001 -1.300e+001 -1.300e+001 -1.300e+001 -1.300e+001 -1.300e+001 -1.300e+001 -1.300e+001 -1.300e+001 -1.300e+001 -1.300e+001 -1.300e+001 -1.300e+001 -1.300e+001 -1.300e+001 -1.300e+001 -1.300e+001 -1.300e+001 -1.300e+001 -1.300e+001 -1.300e+001 -1.300e+001 -1.300e+001 -1.300e+001 -1.300e+001 -1.300e+001 -1.300e+001 -1.300e+001 -1.300e+001 -1.300e+001 -1.300e+001 -1.300e+001 -1.300e+001 -1.300e+001 -1.300e+001 -1.300e+001 -1.300e+001 -1.300e+001 -1.300e+001 -1.300e+001 -1.300e+001 -1.300e+001 -1.300e+001 -1.300e+001 -1.300e+001 -1.300e+001 -1.300e+001 -1.300e+001 -1.300e+001 -1.300e+001 -1.300e+001 -1.300e+001 -1.300e+001 -1.300e+001 -1.300e+001 -1.300e+001 -1.300e+001 -1.300e+001 -1.300e+001 -1.300e+001 -1.300e+001 -1.300e+001 -1.300e+001 -1.300e+001 -1.300e+001 -1.300e+001 -1.300e+001 -1.300e+001 -1.300e+001 -1.300e+001 -1.300e+001 -1.300e+001 -1.300e+001 -1.300e+001 -1.300e+001 -1.300e+001 -1.300e+001 -1.300e+001 -1.300e+001 -1.300e+001 -1.300e+001 -1.300e+001 -1.300e+001 -1.300e+001 -1.300e+001 -1.300e+001 -1.300e+001 -1.300e+001 -1.300e+001 -1.300e+001 -1.300e+001 -1.300e+001 -1.300e+001 -1.300e+001 -1.300e+001 -1.300e+001 -1.300e+001 -1.300e+001 -1.300e+001 -1.300e+001 -1.300e+001 -1.300e+001 -1.300e+001 -1.300e+001 -1.300e+001 -1.300e+001 -1.300e+001 -1.300e+001 -1.300e+001 -1.300e+001 -1.300e+001 -1.300e+001 -1.300e+001 -1.300e+001 -1.300e+001 -1.300e+001 -1.300e+001 -1.300e+001 -1.300e+001 -1.300e+001 -1.300e+001 -1.300e+001 -1.300e+001 -1.300e+001 -1.300e+001 -1.300e+001 -1.300e+001 -1.300e+001 -1.300e+001 -1.300e+001 -1.300e+001 -1.300e+001 -1.300e+001 -1.300e+001 -1.300e+001 -1.300e+001 -1.300e+001 -1.300e+001 -1.300e+001 -1.300e+001 -1.300e+001 -1.300e+001 -1.300e+001 -1.300e+001 -1.300e+001 -1.300e+001 -1.300e+001 -1.300e+001 -1.300e+001 -1.300e+001 -1.300e+001 -1.300e+001 -1.300e+001 -1.300e+001 -1.300e+001 -1.300e+001 -1.300e+001 -1.300e+001 -1.300e+001 -1.300e+001 -1.300e+001 -1.300e+001 -1.300e+001 -1.300e+001 -1.300e+001 -1.300e+001 -1.300e+001 -1.300e+001 -1.300e+001 -1.300e+001 -1.300e+001 -1.300e+001 -1.300e+001 -1.300e+001 -1.300e+001 -1.300e+001 -1.300e+001 -1.300e+001 -1.300e+001 -1.300e+001 -1.300e+001 -1.300e+001 -1.300e+001 -1.300e+001 -1.300e+001 -1.300e+001 -1.300e+001 -1.300e+001 -1.300e+001 -1.300e+001 -1.300e+001 -1.300e+001 -1.300e+001 -1.300e+001 -1.300e+001 -1.300e+001 -1.300e+001 -1.300e+001 -1.300e+001 -1.300e+001 -1.300e+001 -1.300e+001 -1.300e+001 -1.300e+001 -1.300e+001 -1.300e+001 -1.300e+001 -1.300e+001 -1.300e+001 -1.300e+001 -1.300e+001 -1.300e+001 -1.300e+001 -1.300e+001 -1.300e+001 -1.300e+001 -1.300e+001 -1.300e+001 -1.300e+001 -1.300e+001 -1.300e+001 -1.300e+001 -1.300e+001 -1.300e+001 -1.300e+001 -1.300e+001 -1.300e+001 -1.300e+001 -1.300e+001 -1.300e+001 -1.300e+001 -1.300e+001 -1.300e+001 -1.300e+001 -1.300e+001 -1.300e+001 -1.300e+001 -1.300e+001 -1.300e+001 -1.300e+001 -1.300e+001 -1.300e+001 -1.300e+001 -1.300e+001 -1.300e+001 -1.300e+001 -1.300e+001 -1.300e+001 -1.300e+001 -1.300e+001 -1.300e+001 -1.300e+001 -1.300e+001 -1.300e+001 -1.300e+001 -1.300e+001 -1.300e+001 -1.300e+001 -1.300e+001 -1.300e+001 -1.300e+001 -1.300e+001 -1.300e+001 -1.300e+001 -1.300e+001 -1.300e+001 -1.300e+001 -1.300e+001 -1.300e+001 -1.300e+001 -1.300e+001 -1.300e+001 -1.300e+001 -1.300e+001 -1.300e+001 -1.300e+001 -1.300e+001 -1.300e+001 -1.300e+001 -1.300e+001 -1.300e+001 -1.300e+001 -1.300e+001 -1.300e+001 -1.300e+001 -1.300e+001 -1.300e+001 -1.300e+001 -1.300e+001 -1.300e+001 -1.300e+001 -1.300e+001 -1.300e+001 -1.300e+001 -1.300e+001 -1.300e+001 -1.300e+001 -1.300e+001 -1.300e+001 -1.300e+001 -1.300e+001 -1.300e+001 -1.300e+001 -1.300e+001 -1.300e+001 -1.300e+001 -1.300e+001 -1.300e+001 -1.300e+001 -1.300e+001 -1.300e+001 -1.300e+001 -1.300e+001 -1.300e+001 -1.300e+001 -1.300e+001 -1.300e+001 -1.300e+001 -1.300e+001 -5.000e+000 -5.000e+000 -5.000e+000 -5.000e+000 -5.000e+000 -5.000e+000 -5.000e+000 -5.000e+000 -5.000e+000 -5.000e+000 -5.000e+000 -5.000e+000 -5.000e+000 -5.000e+000 -5.000e+000 -5.000e+000 -5.000e+000 -5.000e+000 -5.000e+000 -5.000e+000 -5.000e+000 -5.000e+000 -5.000e+000 -5.000e+000 -5.000e+000 -5.000e+000 -5.000e+000 -5.000e+000 -5.000e+000 -5.000e+000 -5.000e+000 -5.000e+000 -5.000e+000 -5.000e+000 -5.000e+000 -5.000e+000 -5.000e+000 -5.000e+000 -1.300e+001 -1.300e+001 -1.300e+001 -1.300e+001 -1.300e+001 -1.300e+001 -1.300e+001 -1.300e+001 -1.300e+001 -1.300e+001 -1.300e+001 -1.300e+001 -1.300e+001 -1.300e+001 -1.300e+001 -1.300e+001 -1.300e+001 -1.300e+001 -1.300e+001 -1.300e+001 -1.300e+001 -1.300e+001 -1.300e+001 -1.300e+001 -1.300e+001 -1.300e+001 -1.300e+001 -1.300e+001 -1.300e+001 -1.300e+001 -1.300e+001 -1.300e+001 -1.300e+001 -1.300e+001 -1.300e+001 -1.300e+001 -1.300e+001 -1.300e+001 -1.300e+001 -1.300e+001 -1.300e+001 -1.300e+001 -1.300e+001 -1.300e+001 -1.300e+001 -1.300e+001 -1.300e+001 -1.300e+001 -1.300e+001 -1.300e+001 -1.300e+001 -1.300e+001 -1.300e+001 -1.300e+001 -1.300e+001 -1.300e+001 -1.300e+001 -1.300e+001 -1.300e+001 -1.300e+001 -1.300e+001 -1.300e+001 -1.300e+001 -1.300e+001 -1.300e+001 -1.300e+001 -1.300e+001 -1.300e+001 -1.300e+001 -1.300e+001 -1.300e+001 -1.300e+001 -1.300e+001 -1.300e+001 -1.300e+001 -1.300e+001 -1.300e+001 -1.300e+001 -1.300e+001 -1.300e+001 -1.300e+001 -1.300e+001 -1.300e+001 -1.300e+001 -1.300e+001 -1.300e+001 -1.300e+001 -1.300e+001 -1.300e+001 -1.300e+001 -1.300e+001 -1.300e+001 -1.300e+001 -1.300e+001 -1.300e+001 -1.300e+001 -1.300e+001 -1.300e+001 -1.300e+001 -1.300e+001 -1.300e+001 -1.300e+001 -1.300e+001 -1.300e+001 -1.300e+001 -1.300e+001 -1.300e+001 -1.300e+001 -1.300e+001 -1.300e+001 -1.300e+001 -1.300e+001 -1.300e+001 -1.300e+001 -1.300e+001 -1.300e+001 -1.300e+001 -1.300e+001 -1.300e+001 -1.300e+001 -1.300e+001 -1.300e+001 -1.300e+001 -1.300e+001 -1.300e+001 -1.300e+001 -1.300e+001 -1.300e+001 -1.300e+001 -1.300e+001 -1.300e+001 -1.300e+001 -1.300e+001 -1.300e+001 -1.300e+001 -1.300e+001 -1.300e+001 -1.300e+001 -1.300e+001 -1.300e+001 -1.300e+001 -1.300e+001 -1.300e+001 -1.300e+001 -1.300e+001 -1.300e+001 -1.300e+001 -1.300e+001 -1.300e+001 -1.300e+001 -1.300e+001 -1.300e+001 -1.300e+001 -1.300e+001 -1.300e+001 -1.300e+001 -1.300e+001 -1.300e+001 -1.300e+001 -1.300e+001 -1.300e+001 -1.300e+001 -1.300e+001 -1.300e+001 -1.300e+001 -1.300e+001 -1.300e+001 -1.300e+001 -1.300e+001 -1.300e+001 -1.300e+001 -1.300e+001 -1.300e+001 -1.300e+001 -1.300e+001 -1.300e+001 -1.300e+001 -1.300e+001 -1.300e+001 -1.300e+001 -1.300e+001 -1.300e+001 -1.300e+001 -1.300e+001 -1.300e+001 -1.300e+001 -1.300e+001 -1.300e+001 -1.300e+001 -1.300e+001 -1.300e+001 -1.300e+001 -1.300e+001 -1.300e+001 -1.300e+001 -1.300e+001 -1.300e+001 -1.300e+001 -1.300e+001 -1.300e+001 -1.300e+001 -1.300e+001 -1.300e+001 -1.300e+001 -1.300e+001 -1.300e+001 -1.300e+001 -1.300e+001 -1.300e+001 -1.300e+001 -1.300e+001 -1.300e+001 -1.300e+001 -1.300e+001 -1.300e+001 -1.300e+001 -1.300e+001 -1.300e+001 -1.300e+001 -1.300e+001 -1.300e+001 -1.300e+001 -1.300e+001 -1.300e+001 -1.300e+001 -1.300e+001 -1.300e+001 -1.300e+001 -1.300e+001 -1.300e+001 -1.300e+001 -1.300e+001 -1.300e+001 -1.300e+001 -1.300e+001 -1.300e+001 -1.300e+001 -1.300e+001 -1.300e+001 -1.300e+001 -1.300e+001 -1.300e+001 -1.300e+001 -1.300e+001 -1.300e+001 -1.300e+001 -1.300e+001 -1.300e+001 -1.300e+001 -1.300e+001 -1.300e+001 -1.300e+001 -1.300e+001 -1.300e+001 -1.300e+001 -1.300e+001 -1.300e+001 -1.300e+001 -1.300e+001 -1.300e+001 -1.300e+001 -1.300e+001 -1.300e+001 -1.300e+001 -1.300e+001 -1.300e+001 -1.300e+001 -1.300e+001 -1.300e+001 -1.300e+001 -1.300e+001 -1.300e+001 -1.300e+001 -1.300e+001 -1.300e+001 -1.300e+001 -1.300e+001 -1.300e+001 -1.300e+001 -1.300e+001 -1.300e+001 -1.300e+001 -1.300e+001 -1.300e+001 -1.300e+001 -1.300e+001 -1.300e+001 -1.300e+001 -1.300e+001 -1.300e+001 -1.300e+001 -1.300e+001 -1.300e+001 -1.300e+001 -1.300e+001 -1.300e+001 -1.300e+001 -1.300e+001 -1.300e+001 -1.300e+001 -1.300e+001 -1.300e+001 -1.300e+001 -1.300e+001 -1.300e+001 -1.300e+001 -1.300e+001 -1.300e+001 -1.300e+001 -1.300e+001 -1.300e+001 -1.300e+001 -1.300e+001 -1.300e+001 -1.300e+001 -1.300e+001 -1.300e+001 -1.300e+001 -1.300e+001 -1.300e+001 -1.300e+001 -1.300e+001 -1.300e+001 -1.300e+001 -1.300e+001 -1.300e+001 -1.300e+001 -1.300e+001 -1.300e+001 -1.300e+001 -1.300e+001 -1.300e+001 -1.300e+001 -1.300e+001 -1.300e+001 -1.300e+001 -1.300e+001 -5.000e+000 -5.000e+000 -5.000e+000 -5.000e+000 -5.000e+000 -5.000e+000 -5.000e+000 -5.000e+000 -5.000e+000 -5.000e+000 -5.000e+000 -5.000e+000 -5.000e+000 -5.000e+000 -5.000e+000 -5.000e+000 -5.000e+000 -5.000e+000 -5.000e+000 -5.000e+000 -5.000e+000 -5.000e+000 -5.000e+000 -5.000e+000 -5.000e+000 -5.000e+000 -5.000e+000 -5.000e+000 -5.000e+000 -5.000e+000 -5.000e+000 -5.000e+000 -5.000e+000 -5.000e+000 -5.000e+000 -5.000e+000 -5.000e+000 -5.000e+000 -1.900e+001 -1.900e+001 -1.900e+001 -1.900e+001 -1.900e+001 -1.900e+001 -1.900e+001 -1.900e+001 -1.900e+001 -1.900e+001 -1.900e+001 -1.900e+001 -1.900e+001 -1.900e+001 -1.900e+001 -1.900e+001 -1.900e+001 -1.900e+001 -1.900e+001 -1.900e+001 -1.900e+001 -1.900e+001 -1.900e+001 -1.900e+001 -1.900e+001 -1.900e+001 -1.900e+001 -1.900e+001 -1.900e+001 -1.900e+001 -1.900e+001 -1.900e+001 -1.900e+001 -1.900e+001 -1.900e+001 -1.900e+001 -1.900e+001 -1.900e+001 -1.900e+001 -1.900e+001 -1.900e+001 -1.900e+001 -1.900e+001 -1.900e+001 -1.900e+001 -1.900e+001 -1.900e+001 -1.900e+001 -1.900e+001 -1.900e+001 -1.900e+001 -1.900e+001 -1.900e+001 -1.900e+001 -1.900e+001 -1.900e+001 -1.900e+001 -1.900e+001 -1.900e+001 -1.900e+001 -1.900e+001 -1.900e+001 -1.900e+001 -1.900e+001 -1.900e+001 -1.900e+001 -1.900e+001 -1.900e+001 -1.900e+001 -1.900e+001 -1.900e+001 -1.900e+001 -1.900e+001 -1.900e+001 -1.900e+001 -1.900e+001 -1.900e+001 -1.900e+001 -1.900e+001 -1.900e+001 -1.900e+001 -1.900e+001 -1.900e+001 -1.900e+001 -1.900e+001 -1.900e+001 -1.900e+001 -1.900e+001 -1.900e+001 -1.900e+001 -1.900e+001 -1.900e+001 -1.900e+001 -1.900e+001 -1.900e+001 -1.900e+001 -1.900e+001 -1.900e+001 -1.900e+001 -1.900e+001 -1.900e+001 -1.900e+001 -1.900e+001 -1.900e+001 -1.900e+001 -1.900e+001 -1.900e+001 -1.900e+001 -1.900e+001 -1.900e+001 -1.900e+001 -1.100e+001 -1.100e+001 -1.100e+001 -1.100e+001 -1.100e+001 -1.100e+001 -1.100e+001 -1.100e+001 -1.100e+001 -1.100e+001 -1.100e+001 -1.100e+001 -1.100e+001 -1.100e+001 -1.100e+001 -1.100e+001 -1.100e+001 -1.100e+001 -1.100e+001 -1.100e+001 -1.100e+001 -1.100e+001 -1.100e+001 -1.100e+001 -1.100e+001 -1.100e+001 -1.100e+001 -1.900e+001 -1.900e+001 -1.900e+001 -1.900e+001 -1.900e+001 -1.900e+001 -1.900e+001 -1.900e+001 -1.900e+001 -1.900e+001 -1.900e+001 -1.900e+001 -1.900e+001 -1.900e+001 -1.900e+001 -1.900e+001 -1.900e+001 -1.900e+001 -1.9