<?xml version="1.0"?>
<VTKFile type="UnstructuredGrid" version="0.1" byte_order="LittleEndian">
   <UnstructuredGrid>
      <Piece NumberOfPoints="160" NumberOfCells="14">
         <Points>
            <DataArray type="Float32" Name="Position" NumberOfComponents="3" format="ascii">
-0.140	-5.004	0.144
-0.029	-5.004	0.199
0.094	-5.003	0.178
0.180	-5.001	0.089
0.198	-4.998	-0.034
0.140	-4.996	-0.144
0.029	-4.996	-0.199
-0.094	-4.997	-0.178
-0.180	-4.999	-0.089
-0.198	-5.002	0.034
-0.145	-4.252	0.159
-0.034	-4.253	0.214
0.088	-4.252	0.194
0.175	-4.251	0.106
0.194	-4.249	-0.017
0.137	-4.248	-0.127
0.026	-4.248	-0.182
-0.096	-4.248	-0.162
-0.183	-4.249	-0.074
-0.202	-4.251	0.049
-0.144	-3.561	0.162
-0.034	-3.561	0.218
0.089	-3.562	0.198
0.176	-3.561	0.111
0.195	-3.561	-0.012
0.139	-3.560	-0.122
0.028	-3.559	-0.178
-0.094	-3.559	-0.158
-0.181	-3.559	-0.071
-0.201	-3.560	0.052
-0.141	-2.700	0.168
-0.030	-2.702	0.224
0.092	-2.702	0.204
0.179	-2.702	0.117
0.199	-2.701	-0.005
0.142	-2.700	-0.116
0.032	-2.699	-0.172
-0.090	-2.698	-0.152
-0.177	-2.698	-0.065
-0.197	-2.699	0.057
-0.135	-2.101	0.172
-0.025	-2.102	0.228
0.098	-2.103	0.209
0.185	-2.102	0.121
0.204	-2.101	-0.001
0.148	-2.100	-0.111
0.038	-2.099	-0.167
-0.084	-2.098	-0.148
-0.172	-2.098	-0.060
-0.191	-2.099	0.062
-0.130	-1.201	0.181
-0.020	-1.202	0.237
0.102	-1.202	0.217
0.190	-1.202	0.130
0.209	-1.201	0.007
0.152	-1.200	-0.103
0.042	-1.199	-0.158
-0.080	-1.198	-0.139
-0.167	-1.199	-0.051
-0.186	-1.200	0.071
-0.128	-0.301	0.188
-0.018	-0.302	0.244
0.104	-0.302	0.225
0.191	-0.302	0.137
0.210	-0.301	0.015
0.154	-0.300	-0.095
0.044	-0.299	-0.151
-0.078	-0.299	-0.131
-0.165	-0.299	-0.044
-0.185	-0.300	0.078
-0.127	-0.000	0.190
-0.017	-0.001	0.246
0.105	-0.002	0.226
0.192	-0.002	0.139
0.212	-0.001	0.017
0.156	-0.000	-0.093
0.046	0.000	-0.149
-0.077	0.001	-0.130
-0.164	0.001	-0.043
-0.183	0.000	0.079
0.032	-4.999	-0.033
0.045	-4.996	-0.008
0.041	-4.995	0.020
0.021	-4.996	0.040
-0.006	-4.998	0.045
-0.032	-5.001	0.033
-0.045	-5.004	0.008
-0.041	-5.005	-0.020
-0.021	-5.004	-0.040
0.006	-5.002	-0.045
0.100	-5.700	0.008
0.113	-5.697	0.033
0.110	-5.697	0.061
0.091	-5.698	0.081
0.063	-5.701	0.087
0.038	-5.705	0.075
0.025	-5.707	0.050
0.028	-5.708	0.023
0.047	-5.706	0.002
0.075	-5.703	-0.003
0.194	-6.398	0.015
0.208	-6.396	0.039
0.205	-6.396	0.067
0.187	-6.398	0.088
0.160	-6.402	0.094
0.135	-6.407	0.083
0.121	-6.409	0.058
0.124	-6.409	0.031
0.142	-6.407	0.010
0.169	-6.403	0.004
0.323	-7.092	0.034
0.336	-7.088	0.058
0.334	-7.087	0.086
0.315	-7.090	0.107
0.289	-7.095	0.113
0.264	-7.101	0.102
0.250	-7.106	0.078
0.253	-7.107	0.051
0.271	-7.104	0.030
0.298	-7.098	0.023
0.495	-7.777	0.097
0.508	-7.771	0.121
0.504	-7.769	0.149
0.486	-7.771	0.169
0.459	-7.776	0.175
0.434	-7.783	0.164
0.421	-7.788	0.140
0.425	-7.791	0.112
0.443	-7.789	0.092
0.470	-7.783	0.086
0.632	-8.467	0.184
0.645	-8.462	0.209
0.641	-8.460	0.236
0.621	-8.460	0.256
0.594	-8.464	0.261
0.570	-8.469	0.249
0.557	-8.474	0.225
0.561	-8.477	0.197
0.581	-8.476	0.177
0.608	-8.472	0.172
0.713	-9.166	0.264
0.725	-9.161	0.289
0.721	-9.159	0.316
0.701	-9.159	0.336
0.674	-9.162	0.341
0.649	-9.166	0.328
0.637	-9.170	0.304
0.641	-9.173	0.276
0.661	-9.173	0.257
0.688	-9.170	0.252
0.772	-9.630	0.319
0.784	-9.626	0.343
0.780	-9.623	0.371
0.760	-9.623	0.390
0.733	-9.626	0.395
0.709	-9.631	0.383
0.696	-9.635	0.358
0.701	-9.638	0.331
0.720	-9.637	0.311
0.747	-9.635	0.306
		    </DataArray>
         </Points>
         <Cells>
            <DataArray type="Int32" Name="connectivity" NumberOfComponents="1" format="ascii">
 0 10 1 11 2 12 3 13 4 14 5 15 6 16 7 17 8 18 9 19 0 10
 10 20 11 21 12 22 13 23 14 24 15 25 16 26 17 27 18 28 19 29 10 20
 20 30 21 31 22 32 23 33 24 34 25 35 26 36 27 37 28 38 29 39 20 30
 30 40 31 41 32 42 33 43 34 44 35 45 36 46 37 47 38 48 39 49 30 40
 40 50 41 51 42 52 43 53 44 54 45 55 46 56 47 57 48 58 49 59 40 50
 50 60 51 61 52 62 53 63 54 64 55 65 56 66 57 67 58 68 59 69 50 60
 60 70 61 71 62 72 63 73 64 74 65 75 66 76 67 77 68 78 69 79 60 70
 80 90 81 91 82 92 83 93 84 94 85 95 86 96 87 97 88 98 89 99 80 90
 90 100 91 101 92 102 93 103 94 104 95 105 96 106 97 107 98 108 99 109 90 100
 100 110 101 111 102 112 103 113 104 114 105 115 106 116 107 117 108 118 109 119 100 110
 110 120 111 121 112 122 113 123 114 124 115 125 116 126 117 127 118 128 119 129 110 120
 120 130 121 131 122 132 123 133 124 134 125 135 126 136 127 137 128 138 129 139 120 130
 130 140 131 141 132 142 133 143 134 144 135 145 136 146 137 147 138 148 139 149 130 140
 140 150 141 151 142 152 143 153 144 154 145 155 146 156 147 157 148 158 149 159 140 150

            </DataArray>
            <DataArray type="Int32" Name="offsets" NumberOfComponents="1" format="ascii">
 22 44 66 88 110 132 154 176 198 220 242 264 286 308
            </DataArray>
            <DataArray type="UInt8"  Name="types" NumberOfComponents="1" format="ascii">
6 6 6 6 6 6 6 6 6 6 6 6 6 6
            </DataArray>
         </Cells>
         <CellData>
           <DataArray type="Float32" Name="combinedRootClassID" NumberOfComponents="1" format="ascii">
 -2.000e+000 -2.000e+000 -2.000e+000 -2.000e+000 -2.000e+000 -2.000e+000 -2.000e+000 -4.000e+000 -4.000e+000 -4.000e+000 -4.000e+000 -4.000e+000 -4.000e+000 -4.000e+000
           </DataArray>
           <DataArray type="Float32" Name="nitrate/Cmin" NumberOfComponents="1" format="ascii">
 1.000e-003 1.000e-003 1.000e-003 1.000e-003 1.000e-003 1.000e-003 1.000e-003 1.000e-003 1.000e-003 1.000e-003 1.000e-003 1.000e-003 1.000e-003 1.000e-003
           </DataArray>
           <DataArray type="Float32" Name="nitrate/Imax" NumberOfComponents="1" format="ascii">
 1.900e+000 1.900e+000 1.900e+000 1.900e+000 1.900e+000 1.900e+000 1.900e+000 1.900e+000 1.900e+000 1.900e+000 1.900e+000 1.900e+000 1.900e+000 1.900e+000
           </DataArray>
           <DataArray type="Float32" Name="nitrate/Km" NumberOfComponents="1" format="ascii">
 1.610e-002 1.610e-002 1.610e-002 1.610e-002 1.610e-002 1.610e-002 1.610e-002 1.610e-002 1.610e-002 1.610e-002 1.610e-002 1.610e-002 1.610e-002 1.610e-002
           </DataArray>
           <DataArray type="Float32" Name="nitrate/minimalNutrientConcentration" NumberOfComponents="1" format="ascii">
 6.000e+002 6.000e+002 6.000e+002 6.000e+002 6.000e+002 6.000e+002 6.000e+002 6.000e+002 6.000e+002 6.000e+002 6.000e+002 6.000e+002 6.000e+002 6.000e+002
           </DataArray>
           <DataArray type="Float32" Name="nitrate/nutrientConcentrationAtTheRootSurface" NumberOfComponents="1" format="ascii">
 2.200e+000 2.032e+000 1.991e+000 2.103e+000 2.221e+000 2.512e+000 1.830e+000 2.200e+000 2.316e+000 2.435e+000 2.526e+000 2.714e+000 2.894e+000 3.085e+000
           </DataArray>
           <DataArray type="Float32" Name="nitrate/optimalNutrientConcentration" NumberOfComponents="1" format="ascii">
 1.200e+003 1.200e+003 1.200e+003 1.200e+003 1.200e+003 1.200e+003 1.200e+003 1.200e+003 1.200e+003 1.200e+003 1.200e+003 1.200e+003 1.200e+003 1.200e+003
           </DataArray>
           <DataArray type="Float32" Name="nitrate/rootSegmentMinimalNutrientContent" NumberOfComponents="1" format="ascii">
 5.362e+000 4.914e+000 6.114e+000 4.260e+000 6.386e+000 6.381e+000 2.126e+000 2.594e-001 2.578e-001 2.565e-001 2.554e-001 2.546e-001 2.541e-001 1.692e-001
           </DataArray>
           <DataArray type="Float32" Name="nitrate/rootSegmentNutrientUptake" NumberOfComponents="1" format="ascii">
 0.000e+000 1.384e+000 1.102e+000 8.633e-001 6.842e-001 4.145e-001 7.163e-002 0.000e+000 6.409e-001 5.044e-001 3.793e-001 2.646e-001 1.512e-001 3.780e-002
           </DataArray>
           <DataArray type="Float32" Name="nitrate/rootSegmentOptimalNutrientContent" NumberOfComponents="1" format="ascii">
 1.072e+001 9.829e+000 1.223e+001 8.520e+000 1.277e+001 1.276e+001 4.253e+000 5.188e-001 5.156e-001 5.130e-001 5.108e-001 5.092e-001 5.081e-001 3.384e-001
           </DataArray>
           <DataArray type="Float32" Name="parentRootClassID" NumberOfComponents="1" format="ascii">
 -3.000e+000 -3.000e+000 -3.000e+000 -3.000e+000 -3.000e+000 -3.000e+000 -3.000e+000 -3.000e+000 -3.000e+000 -3.000e+000 -3.000e+000 -3.000e+000 -3.000e+000 -3.000e+000
           </DataArray>
           <DataArray type="Float32" Name="plantID" NumberOfComponents="1" format="ascii">
 3.000e+000 3.000e+000 3.000e+000 3.000e+000 3.000e+000 3.000e+000 3.000e+000 3.000e+000 3.000e+000 3.000e+000 3.000e+000 3.000e+000 3.000e+000 3.000e+000
           </DataArray>
           <DataArray type="Float32" Name="plantTypeID" NumberOfComponents="1" format="ascii">
 0.000e+000 0.000e+000 0.000e+000 0.000e+000 0.000e+000 0.000e+000 0.000e+000 0.000e+000 0.000e+000 0.000e+000 0.000e+000 0.000e+000 0.000e+000 0.000e+000
           </DataArray>
           <DataArray type="Float32" Name="rootCircumference" NumberOfComponents="1" format="ascii">
 1.262e+000 1.260e+000 1.259e+000 1.258e+000 1.257e+000 1.257e+000 1.257e+000 2.859e-001 2.850e-001 2.843e-001 2.837e-001 2.832e-001 2.829e-001 2.828e-001
           </DataArray>
           <DataArray type="Float32" Name="rootClassID" NumberOfComponents="1" format="ascii">
 -2.000e+000 -2.000e+000 -2.000e+000 -2.000e+000 -2.000e+000 -2.000e+000 -2.000e+000 -4.000e+000 -4.000e+000 -4.000e+000 -4.000e+000 -4.000e+000 -4.000e+000 -4.000e+000
           </DataArray>
           <DataArray type="Float32" Name="rootDiameter" NumberOfComponents="1" format="ascii">
 4.017e-001 4.010e-001 4.006e-001 4.004e-001 4.002e-001 4.001e-001 4.000e-001 9.100e-002 9.072e-002 9.049e-002 9.030e-002 9.016e-002 9.006e-002 9.001e-002
           </DataArray>
           <DataArray type="Float32" Name="rootHairDensity" NumberOfComponents="1" format="ascii">
 0.000e+000 0.000e+000 0.000e+000 0.000e+000 0.000e+000 0.000e+000 0.000e+000 2.000e+003 2.000e+003 2.000e+003 2.000e+003 2.000e+003 2.000e+003 2.000e+003
           </DataArray>
           <DataArray type="Float32" Name="rootHairDiameter" NumberOfComponents="1" format="ascii">
 5.000e-004 5.000e-004 5.000e-004 5.000e-004 5.000e-004 5.000e-004 5.000e-004 5.000e-004 5.000e-004 5.000e-004 5.000e-004 5.000e-004 5.000e-004 5.000e-004
           </DataArray>
           <DataArray type="Float32" Name="rootHairLength" NumberOfComponents="1" format="ascii">
 3.000e-002 1.500e-002 6.000e-003 0.000e+000 0.000e+000 0.000e+000 0.000e+000 3.000e-002 2.100e-002 1.200e-002 3.000e-003 0.000e+000 0.000e+000 0.000e+000
           </DataArray>
           <DataArray type="Float32" Name="rootHairSurfaceArea" NumberOfComponents="1" format="ascii">
 0.000e+000 0.000e+000 0.000e+000 0.000e+000 0.000e+000 0.000e+000 0.000e+000 9.425e-002 6.597e-002 3.770e-002 9.425e-003 0.000e+000 0.000e+000 0.000e+000
           </DataArray>
           <DataArray type="Float32" Name="rootLength2Base" NumberOfComponents="1" format="ascii">
 0.000e+000 7.500e-001 1.440e+000 2.300e+000 2.900e+000 3.800e+000 4.700e+000 0.000e+000 7.071e-001 1.414e+000 2.121e+000 2.828e+000 3.535e+000 4.243e+000
           </DataArray>
           <DataArray type="Float32" Name="rootPotentialSecondaryGrowth" NumberOfComponents="1" format="ascii">
 4.018e-001 4.010e-001 4.006e-001 4.004e-001 4.002e-001 4.001e-001 4.000e-001 9.100e-002 9.072e-002 9.049e-002 9.030e-002 9.016e-002 9.006e-002 9.001e-002
           </DataArray>
           <DataArray type="Float32" Name="rootSegmentAge" NumberOfComponents="1" format="ascii">
 2.000e+000 1.500e+000 1.200e+000 9.000e-001 7.000e-001 4.000e-001 1.000e-001 2.000e+000 1.700e+000 1.400e+000 1.100e+000 8.000e-001 5.000e-001 2.000e-001
           </DataArray>
           <DataArray type="Float32" Name="rootSegmentCarbonCostOfExudates" NumberOfComponents="1" format="ascii">
 0.000e+000 0.000e+000 0.000e+000 0.000e+000 0.000e+000 0.000e+000 0.000e+000 2.203e-005 1.872e-005 1.547e-005 1.193e-005 8.390e-006 4.565e-006 8.886e-007
           </DataArray>
           <DataArray type="Float32" Name="rootSegmentDryWeight" NumberOfComponents="1" format="ascii">
 8.937e-003 8.191e-003 1.019e-002 7.100e-003 1.064e-002 1.063e-002 3.544e-003 4.323e-004 4.297e-004 4.275e-004 4.257e-004 4.244e-004 4.234e-004 2.820e-004
           </DataArray>
           <DataArray type="Float32" Name="rootSegmentLength" NumberOfComponents="1" format="ascii">
 7.500e-001 6.900e-001 8.600e-001 6.000e-001 9.000e-001 9.000e-001 3.000e-001 7.071e-001 7.071e-001 7.071e-001 7.071e-001 7.071e-001 7.071e-001 4.714e-001
           </DataArray>
           <DataArray type="Float32" Name="rootSegmentLengthDuration" NumberOfComponents="1" format="ascii">
 1.295e+000 9.313e-001 9.047e-001 4.800e-001 5.000e-001 2.300e-001 2.983e-002 1.312e+000 1.100e+000 8.878e-001 6.757e-001 4.635e-001 2.514e-001 4.714e-002
           </DataArray>
           <DataArray type="Float32" Name="rootSegmentRespiration" NumberOfComponents="1" format="ascii">
 3.575e-004 4.300e-004 6.114e-004 4.792e-004 7.716e-004 8.508e-004 3.101e-004 1.729e-005 2.041e-005 2.351e-005 2.661e-005 2.970e-005 3.282e-005 2.397e-005
           </DataArray>
           <DataArray type="Float32" Name="rootSegmentSecondaryPotentialCarbonSinkForGrowth" NumberOfComponents="1" format="ascii">
 2.690e-005 1.469e-005 1.110e-005 4.490e-006 3.245e-006 7.326e-007 1.163e-008 3.647e-006 2.558e-006 1.665e-006 9.637e-007 4.550e-007 1.375e-007 9.397e-009
           </DataArray>
           <DataArray type="Float32" Name="rootSegmentSurfaceArea" NumberOfComponents="1" format="ascii">
 9.466e-001 8.692e-001 1.082e+000 7.547e-001 1.132e+000 1.131e+000 3.770e-001 2.021e-001 2.015e-001 2.010e-001 2.006e-001 2.003e-001 2.001e-001 1.333e-001
           </DataArray>
           <DataArray type="Float32" Name="rootSegmentVolume" NumberOfComponents="1" format="ascii">
 9.507e-002 8.714e-002 1.084e-001 7.553e-002 1.132e-001 1.131e-001 3.770e-002 4.599e-003 4.571e-003 4.547e-003 4.529e-003 4.514e-003 4.505e-003 3.000e-003
           </DataArray>
           <DataArray type="Float32" Name="rootSegmentWaterUptake" NumberOfComponents="1" format="ascii">
 0.000e+000 0.000e+000 0.000e+000 0.000e+000 0.000e+000 0.000e+000 0.000e+000 0.000e+000 0.000e+000 0.000e+000 0.000e+000 0.000e+000 0.000e+000 0.000e+000
           </DataArray>
           <DataArray type="Float32" Name="spatialRootDensity" NumberOfComponents="1" format="ascii">
 3.376e-001 1.688e-001 0.000e+000 0.000e+000 0.000e+000 0.000e+000 0.000e+000 3.438e-001 1.790e-001 0.000e+000 0.000e+000 0.000e+000 0.000e+000 0.000e+000
           </DataArray>
           <DataArray type="Float32" Name="volumetricWaterContentAtTheRootSurface" NumberOfComponents="1" format="ascii">
 2.123e-001 2.121e-001 2.119e-001 2.117e-001 2.116e-001 2.113e-001 2.111e-001 2.123e-001 2.125e-001 2.127e-001 2.128e-001 2.131e-001 2.132e-001 2.134e-001
           </DataArray>
         </CellData>
      </Piece>
   </UnstructuredGrid>
</VTKFile>
