<?xml version="1.0"?>
<VTKFile type="UnstructuredGrid" version="0.1" byte_order="LittleEndian">
   <UnstructuredGrid>
      <Piece NumberOfPoints="2570" NumberOfCells="181">
         <Points>
            <DataArray type="Float32" Name="Position" NumberOfComponents="3" format="ascii">
0.027	-5.007	-0.010
0.034	-4.993	0.004
0.027	-4.978	0.017
0.010	-4.967	0.023
-0.011	-4.965	0.021
-0.028	-4.973	0.011
-0.034	-4.987	-0.003
-0.027	-5.002	-0.016
-0.010	-5.013	-0.022
0.011	-5.015	-0.020
-0.083	-5.531	0.564
-0.077	-5.518	0.580
-0.084	-5.505	0.594
-0.101	-5.495	0.602
-0.122	-5.494	0.600
-0.139	-5.501	0.590
-0.145	-5.514	0.574
-0.138	-5.528	0.560
-0.121	-5.537	0.552
-0.100	-5.538	0.554
-0.126	-6.244	1.076
-0.120	-6.234	1.093
-0.126	-6.223	1.110
-0.143	-6.216	1.120
-0.164	-6.215	1.119
-0.181	-6.221	1.108
-0.187	-6.232	1.091
-0.181	-6.242	1.074
-0.164	-6.249	1.064
-0.143	-6.250	1.065
-0.147	-6.848	1.396
-0.140	-6.839	1.414
-0.146	-6.830	1.432
-0.163	-6.824	1.442
-0.184	-6.823	1.442
-0.201	-6.828	1.431
-0.208	-6.837	1.413
-0.202	-6.846	1.395
-0.185	-6.853	1.385
-0.164	-6.853	1.385
-0.170	-7.571	1.742
-0.163	-7.563	1.760
-0.170	-7.555	1.779
-0.186	-7.549	1.790
-0.207	-7.549	1.790
-0.225	-7.553	1.779
-0.231	-7.562	1.761
-0.225	-7.570	1.742
-0.208	-7.575	1.731
-0.187	-7.576	1.731
-0.174	-8.123	1.975
-0.167	-8.115	1.994
-0.173	-8.108	2.012
-0.190	-8.103	2.024
-0.211	-8.103	2.025
-0.228	-8.107	2.014
-0.235	-8.115	1.996
-0.229	-8.123	1.977
-0.212	-8.127	1.965
-0.191	-8.128	1.965
-0.167	-8.728	2.218
-0.160	-8.722	2.237
-0.166	-8.715	2.256
-0.182	-8.710	2.268
-0.203	-8.710	2.268
-0.221	-8.713	2.257
-0.228	-8.720	2.238
-0.222	-8.727	2.219
-0.205	-8.732	2.207
-0.184	-8.732	2.207
-0.203	-9.398	2.430
-0.195	-9.393	2.449
-0.201	-9.387	2.468
-0.217	-9.383	2.481
-0.238	-9.382	2.481
-0.256	-9.385	2.470
-0.263	-9.390	2.451
-0.258	-9.396	2.432
-0.241	-9.400	2.419
-0.220	-9.401	2.418
-0.205	-9.757	2.521
-0.198	-9.753	2.540
-0.203	-9.748	2.559
-0.219	-9.744	2.572
-0.240	-9.744	2.573
-0.258	-9.747	2.562
-0.265	-9.751	2.543
-0.260	-9.756	2.524
-0.244	-9.760	2.511
-0.223	-9.760	2.510
0.019	-4.983	-0.026
0.024	-4.969	-0.011
0.019	-4.963	0.008
0.007	-4.967	0.025
-0.008	-4.981	0.032
-0.020	-4.997	0.027
-0.024	-5.011	0.012
-0.019	-5.017	-0.007
-0.007	-5.013	-0.024
0.008	-5.000	-0.031
0.587	-5.459	0.257
0.593	-5.446	0.272
0.589	-5.441	0.292
0.576	-5.444	0.308
0.559	-5.456	0.315
0.546	-5.471	0.309
0.540	-5.483	0.294
0.544	-5.489	0.274
0.557	-5.486	0.258
0.574	-5.474	0.251
1.054	-6.156	0.541
1.061	-6.145	0.558
1.058	-6.140	0.578
1.044	-6.142	0.594
1.026	-6.151	0.599
1.010	-6.163	0.593
1.003	-6.174	0.576
1.006	-6.179	0.556
1.020	-6.177	0.540
1.038	-6.168	0.535
1.373	-6.731	0.736
1.382	-6.722	0.753
1.378	-6.718	0.773
1.365	-6.720	0.789
1.346	-6.728	0.794
1.329	-6.738	0.787
1.321	-6.747	0.770
1.324	-6.751	0.750
1.338	-6.749	0.734
1.356	-6.741	0.728
1.698	-7.448	0.895
1.707	-7.440	0.912
1.704	-7.437	0.933
1.690	-7.439	0.949
1.671	-7.447	0.954
1.654	-7.456	0.947
1.645	-7.464	0.929
1.648	-7.467	0.909
1.661	-7.464	0.893
1.680	-7.457	0.887
1.931	-7.989	1.012
1.940	-7.982	1.030
1.937	-7.979	1.050
1.924	-7.981	1.066
1.905	-7.988	1.071
1.887	-7.996	1.064
1.878	-8.004	1.046
1.881	-8.007	1.025
1.894	-8.004	1.010
1.913	-7.997	1.004
2.160	-8.590	1.119
2.170	-8.584	1.137
2.167	-8.581	1.157
2.153	-8.584	1.173
2.134	-8.590	1.178
2.116	-8.598	1.170
2.107	-8.604	1.153
2.109	-8.607	1.132
2.123	-8.605	1.116
2.142	-8.598	1.111
2.398	-9.245	1.228
2.407	-9.239	1.246
2.405	-9.237	1.266
2.391	-9.239	1.282
2.371	-9.245	1.287
2.353	-9.252	1.279
2.344	-9.257	1.261
2.346	-9.260	1.240
2.360	-9.258	1.225
2.380	-9.252	1.220
2.499	-9.600	1.275
2.509	-9.595	1.293
2.507	-9.593	1.314
2.493	-9.594	1.329
2.473	-9.600	1.334
2.455	-9.606	1.326
2.445	-9.611	1.308
2.447	-9.613	1.287
2.461	-9.611	1.272
2.481	-9.606	1.267
-0.002	-4.965	-0.023
0.018	-4.965	-0.014
0.030	-4.974	0.000
0.031	-4.990	0.014
0.020	-5.005	0.024
0.001	-5.015	0.024
-0.018	-5.015	0.015
-0.030	-5.006	0.001
-0.031	-4.991	-0.014
-0.020	-4.975	-0.023
0.259	-5.472	-0.576
0.277	-5.473	-0.566
0.287	-5.481	-0.550
0.286	-5.495	-0.534
0.273	-5.509	-0.525
0.253	-5.517	-0.526
0.235	-5.517	-0.536
0.225	-5.508	-0.552
0.226	-5.494	-0.568
0.239	-5.480	-0.577
0.554	-6.180	-1.027
0.571	-6.181	-1.013
0.577	-6.188	-0.995
0.571	-6.199	-0.978
0.555	-6.210	-0.969
0.535	-6.216	-0.972
0.519	-6.215	-0.985
0.513	-6.208	-1.004
0.518	-6.197	-1.021
0.534	-6.186	-1.029
0.770	-6.785	-1.279
0.785	-6.786	-1.265
0.789	-6.793	-1.245
0.781	-6.802	-1.228
0.764	-6.810	-1.220
0.743	-6.814	-1.224
0.728	-6.813	-1.239
0.724	-6.807	-1.258
0.732	-6.798	-1.275
0.750	-6.790	-1.284
0.948	-7.531	-1.529
0.962	-7.532	-1.514
0.965	-7.538	-1.494
0.955	-7.545	-1.476
0.936	-7.551	-1.469
0.916	-7.554	-1.474
0.902	-7.553	-1.489
0.899	-7.547	-1.509
0.909	-7.540	-1.526
0.928	-7.534	-1.534
1.063	-8.102	-1.681
1.077	-8.103	-1.665
1.079	-8.108	-1.644
1.068	-8.114	-1.627
1.049	-8.120	-1.620
1.029	-8.122	-1.626
1.016	-8.121	-1.642
1.014	-8.116	-1.662
1.024	-8.110	-1.679
1.043	-8.104	-1.686
1.186	-8.728	-1.825
1.199	-8.728	-1.808
1.200	-8.732	-1.788
1.189	-8.738	-1.771
1.170	-8.743	-1.764
1.150	-8.745	-1.771
1.137	-8.745	-1.787
1.136	-8.741	-1.808
1.147	-8.735	-1.825
1.167	-8.730	-1.831
1.314	-9.412	-1.940
1.326	-9.412	-1.923
1.327	-9.416	-1.902
1.315	-9.421	-1.885
1.295	-9.425	-1.879
1.275	-9.428	-1.886
1.263	-9.427	-1.903
1.262	-9.424	-1.923
1.274	-9.419	-1.940
1.294	-9.415	-1.946
1.385	-9.805	-1.971
1.395	-9.786	-1.971
1.392	-9.766	-1.971
1.377	-9.751	-1.971
1.356	-9.747	-1.971
1.337	-9.757	-1.971
1.328	-9.776	-1.971
1.331	-9.797	-1.971
1.346	-9.811	-1.971
1.367	-9.815	-1.971
0.014	-5.018	0.014
0.003	-5.008	0.029
-0.009	-4.991	0.033
-0.018	-4.974	0.025
-0.020	-4.963	0.007
-0.014	-4.962	-0.013
-0.003	-4.972	-0.028
0.009	-4.989	-0.032
0.018	-5.006	-0.024
0.020	-5.017	-0.006
-0.621	-5.438	-0.190
-0.631	-5.434	-0.171
-0.645	-5.421	-0.162
-0.658	-5.405	-0.165
-0.665	-5.392	-0.180
-0.663	-5.386	-0.200
-0.654	-5.390	-0.218
-0.640	-5.402	-0.227
-0.626	-5.418	-0.224
-0.619	-5.432	-0.210
-1.178	-6.078	-0.400
-1.190	-6.074	-0.384
-1.207	-6.063	-0.377
-1.222	-6.050	-0.384
-1.230	-6.039	-0.400
-1.227	-6.036	-0.421
-1.215	-6.040	-0.437
-1.198	-6.050	-0.443
-1.183	-6.063	-0.437
-1.175	-6.074	-0.421
-1.527	-6.643	-0.555
-1.536	-6.641	-0.537
-1.554	-6.634	-0.527
-1.571	-6.623	-0.530
-1.583	-6.613	-0.544
-1.584	-6.608	-0.564
-1.575	-6.610	-0.583
-1.557	-6.617	-0.593
-1.540	-6.628	-0.590
-1.528	-6.638	-0.575
-1.883	-7.348	-0.688
-1.892	-7.347	-0.669
-1.909	-7.341	-0.658
-1.927	-7.332	-0.660
-1.941	-7.323	-0.673
-1.944	-7.317	-0.693
-1.935	-7.318	-0.712
-1.918	-7.324	-0.723
-1.899	-7.334	-0.722
-1.886	-7.343	-0.708
-2.129	-7.883	-0.793
-2.137	-7.883	-0.773
-2.154	-7.878	-0.762
-2.173	-7.870	-0.762
-2.188	-7.862	-0.775
-2.192	-7.857	-0.794
-2.184	-7.857	-0.814
-2.168	-7.861	-0.826
-2.148	-7.870	-0.825
-2.134	-7.878	-0.813
-2.353	-8.487	-0.889
-2.359	-8.487	-0.869
-2.376	-8.484	-0.856
-2.396	-8.477	-0.856
-2.411	-8.469	-0.868
-2.417	-8.464	-0.887
-2.410	-8.463	-0.907
-2.394	-8.467	-0.920
-2.374	-8.474	-0.920
-2.358	-8.482	-0.908
-2.577	-9.145	-0.995
-2.583	-9.146	-0.975
-2.600	-9.142	-0.963
-2.620	-9.136	-0.962
-2.636	-9.129	-0.974
-2.641	-9.124	-0.993
-2.635	-9.124	-1.013
-2.619	-9.127	-1.026
-2.599	-9.134	-1.027
-2.583	-9.141	-1.015
-2.694	-9.493	-1.054
-2.688	-9.498	-1.034
-2.694	-9.498	-1.014
-2.711	-9.494	-1.001
-2.731	-9.488	-1.001
-2.747	-9.481	-1.013
-2.753	-9.477	-1.033
-2.746	-9.477	-1.053
-2.730	-9.481	-1.065
-2.710	-9.487	-1.066
0.022	-4.722	0.006
0.030	-4.703	0.011
0.025	-4.684	0.016
0.010	-4.670	0.019
-0.011	-4.668	0.018
-0.029	-4.678	0.014
-0.037	-4.697	0.009
-0.032	-4.717	0.004
-0.017	-4.730	0.001
0.004	-4.732	0.002
-0.007	-4.831	0.431
0.002	-4.813	0.436
-0.003	-4.793	0.441
-0.019	-4.779	0.443
-0.040	-4.777	0.442
-0.058	-4.788	0.438
-0.066	-4.806	0.433
-0.061	-4.826	0.428
-0.045	-4.840	0.426
-0.024	-4.842	0.427
0.002	-4.679	-0.016
0.003	-4.668	0.001
0.001	-4.669	0.022
-0.002	-4.682	0.038
-0.006	-4.702	0.044
-0.009	-4.721	0.036
-0.010	-4.732	0.019
-0.008	-4.732	-0.002
-0.005	-4.719	-0.018
-0.001	-4.699	-0.024
0.435	-4.755	0.016
0.435	-4.744	0.033
0.434	-4.745	0.054
0.430	-4.758	0.070
0.426	-4.777	0.076
0.423	-4.797	0.068
0.423	-4.808	0.051
0.424	-4.808	0.030
0.428	-4.795	0.014
0.432	-4.775	0.008
-0.021	-4.673	0.000
-0.001	-4.667	0.003
0.018	-4.674	0.008
0.029	-4.691	0.014
0.027	-4.711	0.019
0.014	-4.728	0.020
-0.006	-4.733	0.017
-0.025	-4.727	0.012
-0.036	-4.710	0.006
-0.034	-4.689	0.001
0.063	-4.767	-0.421
0.083	-4.761	-0.418
0.103	-4.768	-0.413
0.114	-4.785	-0.407
0.112	-4.805	-0.402
0.099	-4.821	-0.401
0.079	-4.827	-0.404
0.060	-4.820	-0.410
0.049	-4.804	-0.415
0.050	-4.783	-0.420
-0.006	-4.723	0.035
-0.009	-4.704	0.043
-0.010	-4.684	0.039
-0.009	-4.669	0.023
-0.006	-4.667	0.003
-0.001	-4.677	-0.015
0.002	-4.696	-0.023
0.003	-4.717	-0.019
0.002	-4.731	-0.003
-0.001	-4.733	0.017
-0.437	-4.767	-0.043
-0.440	-4.748	-0.035
-0.441	-4.728	-0.039
-0.440	-4.714	-0.055
-0.436	-4.711	-0.076
-0.432	-4.722	-0.093
-0.429	-4.741	-0.102
-0.427	-4.761	-0.097
-0.429	-4.775	-0.082
-0.432	-4.778	-0.061
-0.150	-5.004	0.154
-0.031	-5.005	0.213
0.100	-5.004	0.190
0.193	-5.001	0.095
0.212	-4.998	-0.036
0.150	-4.996	-0.154
0.031	-4.995	-0.213
-0.100	-4.996	-0.190
-0.193	-4.999	-0.095
-0.212	-5.002	0.036
-0.153	-4.253	0.167
-0.036	-4.253	0.226
0.094	-4.253	0.205
0.186	-4.251	0.111
0.205	-4.249	-0.019
0.145	-4.248	-0.135
0.028	-4.247	-0.194
-0.102	-4.248	-0.172
-0.194	-4.249	-0.079
-0.214	-4.251	0.051
-0.152	-3.561	0.169
-0.035	-3.561	0.228
0.093	-3.562	0.208
0.185	-3.561	0.115
0.206	-3.561	-0.013
0.146	-3.560	-0.130
0.030	-3.559	-0.189
-0.099	-3.559	-0.168
-0.191	-3.559	-0.076
-0.211	-3.560	0.053
-0.147	-2.700	0.174
-0.032	-2.702	0.233
0.096	-2.702	0.213
0.188	-2.702	0.121
0.208	-2.701	-0.007
0.149	-2.700	-0.122
0.034	-2.699	-0.181
-0.094	-2.698	-0.161
-0.186	-2.698	-0.069
-0.206	-2.699	0.059
-0.141	-2.101	0.178
-0.026	-2.102	0.237
0.102	-2.103	0.216
0.193	-2.102	0.125
0.213	-2.102	-0.002
0.154	-2.100	-0.117
[...]
         <CellData>
           <DataArray type="Float32" Name="combinedRootClassID" NumberOfComponents="1" format="ascii">
 -5.000e+000 -5.000e+000 -5.000e+000 -5.000e+000 -5.000e+000 -5.000e+000 -5.000e+000 -5.000e+000 -5.000e+000 -5.000e+000 -5.000e+000 -5.000e+000 -5.000e+000 -5.000e+000 -5.000e+000 -5.000e+000 -5.000e+000 -5.000e+000 -5.000e+000 -5.000e+000 -5.000e+000 -5.000e+000 -5.000e+000 -5.000e+000 -5.000e+000 -5.000e+000 -5.000e+000 -5.000e+000 -5.000e+000 -5.000e+000 -5.000e+000 -5.000e+000 -1.100e+001 -1.100e+001 -1.100e+001 -1.100e+001 -2.000e+000 -2.000e+000 -2.000e+000 -2.000e+000 -2.000e+000 -2.000e+000 -2.000e+000 -2.000e+000 -2.000e+000 -2.000e+000 -7.000e+000 -7.000e+000 -7.000e+000 -7.000e+000 -7.000e+000 -7.000e+000 -7.000e+000 -7.000e+000 -7.000e+000 -7.000e+000 -7.000e+000 -7.000e+000 -7.000e+000 -7.000e+000 -7.000e+000 -7.000e+000 -7.000e+000 -7.000e+000 -7.000e+000 -7.000e+000 -7.000e+000 -7.000e+000 -7.000e+000 -7.000e+000 -7.000e+000 -7.000e+000 -7.000e+000 -7.000e+000 -7.000e+000 -7.000e+000 -7.000e+000 -7.000e+000 -7.000e+000 -7.000e+000 -7.000e+000 -7.000e+000 -7.000e+000 -7.000e+000 -7.000e+000 -7.000e+000 -7.000e+000 -7.000e+000 -7.000e+000 -7.000e+000 -7.000e+000 -7.000e+000 -7.000e+000 -7.000e+000 -7.000e+000 -7.000e+000 -7.000e+000 -7.000e+000 -7.000e+000 -7.000e+000 -7.000e+000 -7.000e+000 -7.000e+000 -7.000e+000 -7.000e+000 -7.000e+000 -7.000e+000 -7.000e+000 -7.000e+000 -7.000e+000 -7.000e+000 -7.000e+000 -7.000e+000 -7.000e+000 -7.000e+000 -7.000e+000 -7.000e+000 -7.000e+000 -7.000e+000 -7.000e+000 -7.000e+000 -7.000e+000 -7.000e+000 -7.000e+000 -7.000e+000 -7.000e+000 -7.000e+000 -7.000e+000 -7.000e+000 -7.000e+000 -7.000e+000 -7.000e+000 -7.000e+000 -7.000e+000 -7.000e+000 -7.000e+000 -7.000e+000 -7.000e+000 -7.000e+000 -7.000e+000 -7.000e+000 -7.000e+000 -7.000e+000 -7.000e+000 -7.000e+000 -7.000e+000 -7.000e+000 -7.000e+000 -7.000e+000 -7.000e+000 -7.000e+000 -7.000e+000 -7.000e+000 -7.000e+000 -9.000e+000 -9.000e+000 -9.000e+000 -4.000e+000 -4.000e+000 -4.000e+000 -4.000e+000 -4.000e+000 -4.000e+000 -4.000e+000 -4.000e+000 -4.000e+000 -4.000e+000 -4.000e+000 -4.000e+000 -4.000e+000 -4.000e+000 -4.000e+000 -4.000e+000 -4.000e+000 -4.000e+000 -4.000e+000 -4.000e+000 -4.000e+000 -4.000e+000 -4.000e+000 -4.000e+000
           </DataArray>
           <DataArray type="Float32" Name="nitrate/Cmin" NumberOfComponents="1" format="ascii">
 1.000e-003 1.000e-003 1.000e-003 1.000e-003 1.000e-003 1.000e-003 1.000e-003 1.000e-003 1.000e-003 1.000e-003 1.000e-003 1.000e-003 1.000e-003 1.000e-003 1.000e-003 1.000e-003 1.000e-003 1.000e-003 1.000e-003 1.000e-003 1.000e-003 1.000e-003 1.000e-003 1.000e-003 1.000e-003 1.000e-003 1.000e-003 1.000e-003 1.000e-003 1.000e-003 1.000e-003 1.000e-003 1.000e-003 1.000e-003 1.000e-003 1.000e-003 1.000e-003 1.000e-003 1.000e-003 1.000e-003 1.000e-003 1.000e-003 1.000e-003 1.000e-003 1.000e-003 1.000e-003 1.000e-003 1.000e-003 1.000e-003 1.000e-003 1.000e-003 1.000e-003 1.000e-003 1.000e-003 1.000e-003 1.000e-003 1.000e-003 1.000e-003 1.000e-003 1.000e-003 1.000e-003 1.000e-003 1.000e-003 1.000e-003 1.000e-003 1.000e-003 1.000e-003 1.000e-003 1.000e-003 1.000e-003 1.000e-003 1.000e-003 1.000e-003 1.000e-003 1.000e-003 1.000e-003 1.000e-003 1.000e-003 1.000e-003 1.000e-003 1.000e-003 1.000e-003 1.000e-003 1.000e-003 1.000e-003 1.000e-003 1.000e-003 1.000e-003 1.000e-003 1.000e-003 1.000e-003 1.000e-003 1.000e-003 1.000e-003 1.000e-003 1.000e-003 1.000e-003 1.000e-003 1.000e-003 1.000e-003 1.000e-003 1.000e-003 1.000e-003 1.000e-003 1.000e-003 1.000e-003 1.000e-003 1.000e-003 1.000e-003 1.000e-003 1.000e-003 1.000e-003 1.000e-003 1.000e-003 1.000e-003 1.000e-003 1.000e-003 1.000e-003 1.000e-003 1.000e-003 1.000e-003 1.000e-003 1.000e-003 1.000e-003 1.000e-003 1.000e-003 1.000e-003 1.000e-003 1.000e-003 1.000e-003 1.000e-003 1.000e-003 1.000e-003 1.000e-003 1.000e-003 1.000e-003 1.000e-003 1.000e-003 1.000e-003 1.000e-003 1.000e-003 1.000e-003 1.000e-003 1.000e-003 1.000e-003 1.000e-003 1.000e-003 1.000e-003 1.000e-003 1.000e-003 1.000e-003 1.000e-003 1.000e-003 1.000e-003 1.000e-003 1.000e-003 1.000e-003 1.000e-003 1.000e-003 1.000e-003 1.000e-003 1.000e-003 1.000e-003 1.000e-003 1.000e-003 1.000e-003 1.000e-003 1.000e-003 1.000e-003 1.000e-003 1.000e-003 1.000e-003 1.000e-003 1.000e-003 1.000e-003 1.000e-003 1.000e-003 1.000e-003 1.000e-003 1.000e-003 1.000e-003
           </DataArray>
           <DataArray type="Float32" Name="nitrate/Imax" NumberOfComponents="1" format="ascii">
 1.900e+000 1.900e+000 1.900e+000 1.900e+000 1.900e+000 1.900e+000 1.900e+000 1.900e+000 1.900e+000 1.900e+000 1.900e+000 1.900e+000 1.900e+000 1.900e+000 1.900e+000 1.900e+000 1.900e+000 1.900e+000 1.900e+000 1.900e+000 1.900e+000 1.900e+000 1.900e+000 1.900e+000 1.900e+000 1.900e+000 1.900e+000 1.900e+000 1.900e+000 1.900e+000 1.900e+000 1.900e+000 1.900e+000 1.900e+000 1.900e+000 1.900e+000 1.900e+000 1.900e+000 1.900e+000 1.900e+000 1.900e+000 1.900e+000 1.900e+000 1.900e+000 1.900e+000 1.900e+000 1.900e+000 1.900e+000 1.900e+000 1.900e+000 1.900e+000 1.900e+000 1.900e+000 1.900e+000 1.900e+000 1.900e+000 1.900e+000 1.900e+000 1.900e+000 1.900e+000 1.900e+000 1.900e+000 1.900e+000 1.900e+000 1.900e+000 1.900e+000 1.900e+000 1.900e+000 1.900e+000 1.900e+000 1.900e+000 1.900e+000 1.900e+000 1.900e+000 1.900e+000 1.900e+000 1.900e+000 1.900e+000 1.900e+000 1.900e+000 1.900e+000 1.900e+000 1.900e+000 1.900e+000 1.900e+000 1.900e+000 1.900e+000 1.900e+000 1.900e+000 1.900e+000 1.900e+000 1.900e+000 1.900e+000 1.900e+000 1.900e+000 1.900e+000 1.900e+000 1.900e+000 1.900e+000 1.900e+000 1.900e+000 1.900e+000 1.900e+000 1.900e+000 1.900e+000 1.900e+000 1.900e+000 1.900e+000 1.900e+000 1.900e+000 1.900e+000 1.900e+000 1.900e+000 1.900e+000 1.900e+000 1.900e+000 1.900e+000 1.900e+000 1.900e+000 1.900e+000 1.900e+000 1.900e+000 1.900e+000 1.900e+000 1.900e+000 1.900e+000 1.900e+000 1.900e+000 1.900e+000 1.900e+000 1.900e+000 1.900e+000 1.900e+000 1.900e+000 1.900e+000 1.900e+000 1.900e+000 1.900e+000 1.900e+000 1.900e+000 1.900e+000 1.900e+000 1.900e+000 1.900e+000 1.900e+000 1.900e+000 1.900e+000 1.900e+000 1.900e+000 1.900e+000 1.900e+000 1.900e+000 1.900e+000 1.900e+000 1.900e+000 1.900e+000 1.900e+000 1.900e+000 1.900e+000 1.900e+000 1.900e+000 1.900e+000 1.900e+000 1.900e+000 1.900e+000 1.900e+000 1.900e+000 1.900e+000 1.900e+000 1.900e+000 1.900e+000 1.900e+000 1.900e+000 1.900e+000 1.900e+000 1.900e+000 1.900e+000 1.900e+000 1.900e+000 1.900e+000 1.900e+000
           </DataArray>
           <DataArray type="Float32" Name="nitrate/Km" NumberOfComponents="1" format="ascii">
 1.610e-002 1.610e-002 1.610e-002 1.610e-002 1.610e-002 1.610e-002 1.610e-002 1.610e-002 1.610e-002 1.610e-002 1.610e-002 1.610e-002 1.610e-002 1.610e-002 1.610e-002 1.610e-002 1.610e-002 1.610e-002 1.610e-002 1.610e-002 1.610e-002 1.610e-002 1.610e-002 1.610e-002 1.610e-002 1.610e-002 1.610e-002 1.610e-002 1.610e-002 1.610e-002 1.610e-002 1.610e-002 1.610e-002 1.610e-002 1.610e-002 1.610e-002 1.610e-002 1.610e-002 1.610e-002 1.610e-002 1.610e-002 1.610e-002 1.610e-002 1.610e-002 1.610e-002 1.610e-002 1.610e-002 1.610e-002 1.610e-002 1.610e-002 1.610e-002 1.610e-002 1.610e-002 1.610e-002 1.610e-002 1.610e-002 1.610e-002 1.610e-002 1.610e-002 1.610e-002 1.610e-002 1.610e-002 1.610e-002 1.610e-002 1.610e-002 1.610e-002 1.610e-002 1.610e-002 1.610e-002 1.610e-002 1.610e-002 1.610e-002 1.610e-002 1.610e-002 1.610e-002 1.610e-002 1.610e-002 1.610e-002 1.610e-002 1.610e-002 1.610e-002 1.610e-002 1.610e-002 1.610e-002 1.610e-002 1.610e-002 1.610e-002 1.610e-002 1.610e-002 1.610e-002 1.610e-002 1.610e-002 1.610e-002 1.610e-002 1.610e-002 1.610e-002 1.610e-002 1.610e-002 1.610e-002 1.610e-002 1.610e-002 1.610e-002 1.610e-002 1.610e-002 1.610e-002 1.610e-002 1.610e-002 1.610e-002 1.610e-002 1.610e-002 1.610e-002 1.610e-002 1.610e-002 1.610e-002 1.610e-002 1.610e-002 1.610e-002 1.610e-002 1.610e-002 1.610e-002 1.610e-002 1.610e-002 1.610e-002 1.610e-002 1.610e-002 1.610e-002 1.610e-002 1.610e-002 1.610e-002 1.610e-002 1.610e-002 1.610e-002 1.610e-002 1.610e-002 1.610e-002 1.610e-002 1.610e-002 1.610e-002 1.610e-002 1.610e-002 1.610e-002 1.610e-002 1.610e-002 1.610e-002 1.610e-002 1.610e-002 1.610e-002 1.610e-002 1.610e-002 1.610e-002 1.610e-002 1.610e-002 1.610e-002 1.610e-002 1.610e-002 1.610e-002 1.610e-002 1.610e-002 1.610e-002 1.610e-002 1.610e-002 1.610e-002 1.610e-002 1.610e-002 1.610e-002 1.610e-002 1.610e-002 1.610e-002 1.610e-002 1.610e-002 1.610e-002 1.610e-002 1.610e-002 1.610e-002 1.610e-002 1.610e-002 1.610e-002 1.610e-002 1.610e-002 1.610e-002 1.610e-002
           </DataArray>
           <DataArray type="Float32" Name="nitrate/minimalNutrientConcentration" NumberOfComponents="1" format="ascii">
 6.000e+002 6.000e+002 6.000e+002 6.000e+002 6.000e+002 6.000e+002 6.000e+002 6.000e+002 6.000e+002 6.000e+002 6.000e+002 6.000e+002 6.000e+002 6.000e+002 6.000e+002 6.000e+002 6.000e+002 6.000e+002 6.000e+002 6.000e+002 6.000e+002 6.000e+002 6.000e+002 6.000e+002 6.000e+002 6.000e+002 6.000e+002 6.000e+002 6.000e+002 6.000e+002 6.000e+002 6.000e+002 6.000e+002 6.000e+002 6.000e+002 6.000e+002 6.000e+002 6.000e+002 6.000e+002 6.000e+002 6.000e+002 6.000e+002 6.000e+002 6.000e+002 6.000e+002 6.000e+002 6.000e+002 6.000e+002 6.000e+002 6.000e+002 6.000e+002 6.000e+002 6.000e+002 6.000e+002 6.000e+002 6.000e+002 6.000e+002 6.000e+002 6.000e+002 6.000e+002 6.000e+002 6.000e+002 6.000e+002 6.000e+002 6.000e+002 6.000e+002 6.000e+002 6.000e+002 6.000e+002 6.000e+002 6.000e+002 6.000e+002 6.000e+002 6.000e+002 6.000e+002 6.000e+002 6.000e+002 6.000e+002 6.000e+002 6.000e+002 6.000e+002 6.000e+002 6.000e+002 6.000e+002 6.000e+002 6.000e+002 6.000e+002 6.000e+002 6.000e+002 6.000e+002 6.000e+002 6.000e+002 6.000e+002 6.000e+002 6.000e+002 6.000e+002 6.000e+002 6.000e+002 6.000e+002 6.000e+002 6.000e+002 6.000e+002 6.000e+002 6.000e+002 6.000e+002 6.000e+002 6.000e+002 6.000e+002 6.000e+002 6.000e+002 6.000e+002 6.000e+002 6.000e+002 6.000e+002 6.000e+002 6.000e+002 6.000e+002 6.000e+002 6.000e+002 6.000e+002 6.000e+002 6.000e+002 6.000e+002 6.000e+002 6.000e+002 6.000e+002 6.000e+002 6.000e+002 6.000e+002 6.000e+002 6.000e+002 6.000e+002 6.000e+002 6.000e+002 6.000e+002 6.000e+002 6.000e+002 6.000e+002 6.000e+002 6.000e+002 6.000e+002 6.000e+002 6.000e+002 6.000e+002 6.000e+002 6.000e+002 6.000e+002 6.000e+002 6.000e+002 6.000e+002 6.000e+002 6.000e+002 6.000e+002 6.000e+002 6.000e+002 6.000e+002 6.000e+002 6.000e+002 6.000e+002 6.000e+002 6.000e+002 6.000e+002 6.000e+002 6.000e+002 6.000e+002 6.000e+002 6.000e+002 6.000e+002 6.000e+002 6.000e+002 6.000e+002 6.000e+002 6.000e+002 6.000e+002 6.000e+002 6.000e+002 6.000e+002 6.000e+002 6.000e+002 6.000e+002 6.000e+002
           </DataArray>
           <DataArray type="Float32" Name="nitrate/nutrientConcentrationAtTheRootSurface" NumberOfComponents="1" format="ascii">
 6.236e-001 7.156e-001 8.916e-001 1.084e+000 1.303e+000 1.498e+000 1.718e+000 1.883e+000 6.236e-001 6.606e-001 8.247e-001 1.036e+000 1.272e+000 1.443e+000 1.666e+000 1.858e+000 6.236e-001 6.304e-001 7.819e-001 1.022e+000 1.275e+000 1.454e+000 1.688e+000 1.895e+000 6.236e-001 6.807e-001 8.838e-001 1.078e+000 1.305e+000 1.530e+000 1.711e+000 1.929e+000 6.053e-001 6.053e-001 6.053e-001 6.053e-001 6.239e-001 5.744e-001 4.985e-001 3.888e-001 3.264e-001 2.212e-001 1.494e-001 0.000e+000 0.000e+000 0.000e+000 6.367e-001 6.788e-001 7.830e-001 6.388e-001 6.582e-001 8.448e-001 6.997e-001 7.449e-001 1.026e+000 7.082e-001 7.519e-001 7.209e-001 8.265e-001 7.378e-001 8.525e-001 7.575e-001 8.188e-001 7.774e-001 8.362e-001 7.950e-001 9.640e-001 8.085e-001 9.375e-001 8.348e-001 8.339e-001 8.508e-001 8.399e-001 6.414e-001 6.907e-001 8.508e-001 8.583e-001 8.544e-001 8.919e-001 1.148e+000 9.090e-001 1.161e+000 9.459e-001 1.127e+000 9.787e-001 1.136e+000 1.014e+000 1.140e+000 1.059e+000 1.136e+000 1.085e+000 1.182e+000 1.108e+000 1.248e+000 1.113e+000 1.261e+000 6.447e-001 6.972e-001 9.027e-001 1.128e+000 1.299e+000 1.134e+000 1.339e+000 1.158e+000 1.202e+000 1.453e+000 1.248e+000 1.309e+000 1.361e+000 1.563e+000 1.387e+000 1.404e+000 1.409e+000 6.484e-001 6.514e-001 8.820e-001 1.416e+000 1.432e+000 1.459e+000 1.490e+000 1.538e+000 1.590e+000 1.650e+000 1.675e+000 1.691e+000 1.699e+000 6.520e-001 6.844e-001 1.028e+000 1.709e+000 1.720e+000 1.755e+000 1.787e+000 1.824e+000 1.870e+000 1.912e+000 1.934e+000 1.952e+000 1.973e+000 6.550e-001 6.923e-001 9.781e-001 1.986e+000 1.997e+000 2.024e+000 2.041e+000 6.571e-001 7.487e-001 9.991e-001 6.584e-001 7.539e-001 1.084e+000 6.739e-001 7.591e-001 1.387e+000 1.543e+000 1.783e+000 6.239e-001 6.552e-001 7.405e-001 8.674e-001 1.095e+000 1.264e+000 1.439e+000 1.697e+000 1.890e+000 2.035e+000 2.196e+000 2.334e+000 2.404e+000 2.499e+000 2.664e+000 2.785e+000 2.915e+000 3.097e+000 3.218e+000 3.310e+000 3.419e+000 3.519e+000 3.609e+000 3.693e+000
           </DataArray>
           <DataArray type="Float32" Name="nitrate/optimalNutrientConcentration" NumberOfComponents="1" format="ascii">
 1.200e+003 1.200e+003 1.200e+003 1.200e+003 1.200e+003 1.200e+003 1.200e+003 1.200e+003 1.200e+003 1.200e+003 1.200e+003 1.200e+003 1.200e+003 1.200e+003 1.200e+003 1.200e+003 1.200e+003 1.200e+003 1.200e+003 1.200e+003 1.200e+003 1.200e+003 1.200e+003 1.200e+003 1.200e+003 1.200e+003 1.200e+003 1.200e+003 1.200e+003 1.200e+003 1.200e+003 1.200e+003 1.200e+003 1.200e+003 1.200e+003 1.200e+003 1.200e+003 1.200e+003 1.200e+003 1.200e+003 1.200e+003 1.200e+003 1.200e+003 1.200e+003 1.200e+003 1.200e+003 1.200e+003 1.200e+003 1.200e+003 1.200e+003 1.200e+003 1.200e+003 1.200e+003 1.200e+003 1.200e+003 1.200e+003 1.200e+003 1.200e+003 1.200e+003 1.200e+003 1.200e+003 1.200e+003 1.200e+003 1.200e+003 1.200e+003 1.200e+003 1.200e+003 1.200e+003 1.200e+003 1.200e+003 1.200e+003 1.200e+003 1.200e+003 1.200e+003 1.200e+003 1.200e+003 1.200e+003 1.200e+003 1.200e+003 1.200e+003 1.200e+003 1.200e+003 1.200e+003 1.200e+003 1.200e+003 1.200e+003 1.200e+003 1.200e+003 1.200e+003 1.200e+003 1.200e+003 1.200e+003 1.200e+003 1.200e+003 1.200e+003 1.200e+003 1.200e+003 1.200e+003 1.200e+003 1.200e+003 1.200e+003 1.200e+003 1.200e+003 1.200e+003 1.200e+003 1.200e+003 1.200e+003 1.200e+003 1.200e+003 1.200e+003 1.200e+003 1.200e+003 1.200e+003 1.200e+003 1.200e+003 1.200e+003 1.200e+003 1.200e+003 1.200e+003 1.200e+003 1.200e+003 1.200e+003 1.200e+003 1.200e+003 1.200e+003 1.200e+003 1.200e+003 1.200e+003 1.200e+003 1.200e+003 1.200e+003 1.200e+003 1.200e+003 1.200e+003 1.200e+003 1.200e+003 1.200e+003 1.200e+003 1.200e+003 1.200e+003 1.200e+003 1.200e+003 1.200e+003 1.200e+003 1.200e+003 1.200e+003 1.200e+003 1.200e+003 1.200e+003 1.200e+003 1.200e+003 1.200e+003 1.200e+003 1.200e+003 1.200e+003 1.200e+003 1.200e+003 1.200e+003 1.200e+003 1.200e+003 1.200e+003 1.200e+003 1.200e+003 1.200e+003 1.200e+003 1.200e+003 1.200e+003 1.200e+003 1.200e+003 1.200e+003 1.200e+003 1.200e+003 1.200e+003 1.200e+003 1.200e+003 1.200e+003 1.200e+003 1.200e+003 1.200e+003 1.200e+003 1.200e+003
           </DataArray>
           <DataArray type="Float32" Name="nitrate/rootSegmentMinimalNutrientContent" NumberOfComponents="1" format="ascii">
 1.635e-001 1.811e-001 1.406e-001 1.646e-001 1.230e-001 1.337e-001 1.443e-001 7.615e-002 1.635e-001 1.811e-001 1.406e-001 1.646e-001 1.230e-001 1.337e-001 1.443e-001 7.615e-002 1.635e-001 1.811e-001 1.406e-001 1.646e-001 1.230e-001 1.337e-001 1.443e-001 7.615e-002 1.635e-001 1.811e-001 1.406e-001 1.646e-001 1.230e-001 1.337e-001 1.443e-001 7.615e-002 9.025e-002 9.025e-002 9.025e-002 9.025e-002 6.064e+000 5.477e+000 6.739e+000 4.672e+000 6.912e+000 6.835e+000 6.464e+000 6.546e+000 6.432e+000 1.821e+000 3.562e-002 3.513e-002 5.616e-003 3.513e-002 3.426e-002 2.702e-002 3.537e-002 3.562e-002 3.236e-003 3.537e-002 2.584e-002 3.477e-002 2.176e-002 3.621e-002 2.340e-002 3.490e-002 3.109e-002 3.502e-002 2.670e-002 3.562e-002 2.549e-002 3.546e-002 2.632e-002 3.321e-002 2.560e-002 3.494e-002 2.021e-002 3.462e-002 3.526e-002 2.290e-002 3.512e-002 1.465e-002 3.528e-002 2.461e-002 3.346e-002 3.050e-002 3.465e-002 1.601e-002 3.542e-002 1.936e-002 3.430e-002 2.218e-002 3.497e-002 1.571e-002 3.548e-002 1.212e-002 3.445e-002 1.438e-002 3.573e-002 1.244e-003 3.460e-002 3.497e-002 2.096e-002 3.465e-002 1.110e-002 3.583e-002 4.297e-003 3.559e-002 3.553e-002 4.572e-003 3.548e-002 3.015e-002 3.426e-002 4.950e-003 2.806e-002 3.206e-002 3.414e-002 3.486e-002 3.492e-002 1.396e-003 2.682e-002 2.754e-002 2.418e-002 2.900e-002 2.340e-002 2.512e-002 2.114e-002 2.066e-002 2.321e-002 1.956e-002 3.491e-002 3.476e-002 6.040e-003 1.735e-002 1.832e-002 1.602e-002 1.351e-002 1.333e-002 1.279e-002 1.202e-002 7.264e-003 8.670e-003 6.272e-003 3.535e-002 3.493e-002 1.571e-002 5.793e-003 4.356e-003 2.730e-003 1.227e-003 3.494e-002 3.588e-002 4.677e-003 3.455e-002 3.524e-002 3.063e-003 3.513e-002 2.409e-002 3.389e-002 1.819e-002 2.175e-002 3.586e-001 3.469e-001 3.360e-001 3.259e-001 3.165e-001 3.078e-001 2.997e-001 2.923e-001 2.860e-001 2.808e-001 2.768e-001 2.734e-001 2.703e-001 2.674e-001 2.649e-001 2.626e-001 2.606e-001 2.588e-001 2.573e-001 2.561e-001 2.551e-001 2.544e-001 2.539e-001 8.457e-002
           </DataArray>
           <DataArray type="Float32" Name="nitrate/rootSegmentNutrientUptake" NumberOfComponents="1" format="ascii">
 0.000e+000 5.696e-001 3.360e-001 2.889e-001 1.565e-001 1.178e-001 7.062e-002 1.497e-002 0.000e+000 5.572e-001 3.358e-001 2.888e-001 1.565e-001 1.177e-001 7.060e-002 1.497e-002 0.000e+000 5.534e-001 3.357e-001 2.888e-001 1.565e-001 1.177e-001 7.061e-002 1.497e-002 0.000e+000 5.631e-001 3.362e-001 2.890e-001 1.565e-001 1.178e-001 7.061e-002 1.497e-002 0.000e+000 0.000e+000 0.000e+000 0.000e+000 0.000e+000 3.727e+000 3.088e+000 2.451e+000 2.066e+000 1.407e+000 7.093e-001 0.000e+000 0.000e+000 0.000e+000 0.000e+000 1.544e-001 3.713e-003 0.000e+000 2.347e-001 5.054e-002 0.000e+000 1.148e-001 1.433e-003 0.000e+000 5.972e-002 0.000e+000 4.552e-002 0.000e+000 4.898e-002 0.000e+000 7.559e-002 0.000e+000 5.901e-002 0.000e+000 5.345e-002 0.000e+000 5.517e-002 0.000e+000 5.358e-002 0.000e+000 3.572e-002 0.000e+000 2.243e-001 3.774e-002 0.000e+000 2.089e-002 0.000e+000 4.622e-002 0.000e+000 6.410e-002 0.000e+000 2.291e-002 0.000e+000 3.005e-002 0.000e+000 3.670e-002 0.000e+000 2.090e-002 0.000e+000 1.344e-002 0.000e+000 1.738e-002 0.000e+000 2.759e-004 0.000e+000 2.099e-001 3.244e-002 0.000e+000 1.091e-002 0.000e+000 2.230e-003 0.000e+000 0.000e+000 2.375e-003 0.000e+000 0.000e+000 0.000e+000 2.572e-003 0.000e+000 0.000e+000 0.000e+000 0.000e+000 1.203e-001 3.079e-004 0.000e+000 0.000e+000 0.000e+000 0.000e+000 0.000e+000 0.000e+000 0.000e+000 0.000e+000 0.000e+000 0.000e+000 0.000e+000 1.384e-001 4.012e-003 0.000e+000 0.000e+000 0.000e+000 0.000e+000 0.000e+000 0.000e+000 0.000e+000 0.000e+000 0.000e+000 0.000e+000 0.000e+000 1.730e-001 1.893e-002 0.000e+000 0.000e+000 0.000e+000 0.000e+000 0.000e+000 1.321e-001 2.423e-003 0.000e+000 1.196e-001 1.357e-003 0.000e+000 5.569e-002 0.000e+000 2.022e-002 0.000e+000 0.000e+000 3.052e+000 2.987e+000 2.875e+000 2.756e+000 2.604e+000 2.443e+000 2.285e+000 2.128e+000 1.972e+000 1.816e+000 1.660e+000 1.505e+000 1.351e+000 1.198e+000 1.045e+000 8.918e-001 7.398e-001 5.952e-001 4.622e-001 3.407e-001 2.271e-001 1.135e-001 1.261e-002
           </DataArray>
           <DataArray type="Float32" Name="nitrate/rootSegmentOptimalNutrientContent" NumberOfComponents="1" format="ascii">