<?xml version="1.0"?>
<VTKFile type="UnstructuredGrid" version="0.1" byte_order="LittleEndian">
   <UnstructuredGrid>
      <Piece NumberOfPoints="13520" NumberOfCells="945">
         <Points>
            <DataArray type="Float32" Name="Position" NumberOfComponents="3" format="ascii">
-0.034	-5.072	0.137
-0.035	-5.064	0.142
-0.036	-5.055	0.141
-0.036	-5.048	0.135
-0.037	-5.046	0.126
-0.037	-5.049	0.117
-0.037	-5.057	0.113
-0.036	-5.066	0.113
-0.035	-5.073	0.119
-0.035	-5.075	0.129
-0.897	-5.139	0.181
-0.898	-5.131	0.186
-0.900	-5.122	0.185
-0.901	-5.115	0.180
-0.901	-5.113	0.171
-0.900	-5.116	0.162
-0.899	-5.124	0.157
-0.897	-5.133	0.158
-0.896	-5.140	0.164
-0.896	-5.142	0.173
-1.324	-5.263	0.132
-1.327	-5.255	0.137
-1.330	-5.247	0.137
-1.331	-5.239	0.131
-1.331	-5.237	0.122
-1.329	-5.240	0.113
-1.326	-5.247	0.108
-1.324	-5.256	0.109
-1.322	-5.263	0.114
-1.323	-5.266	0.123
-0.052	-5.165	0.243
-0.047	-5.157	0.244
-0.049	-5.148	0.245
-0.055	-5.141	0.244
-0.064	-5.139	0.242
-0.072	-5.143	0.240
-0.076	-5.151	0.239
-0.075	-5.160	0.238
-0.069	-5.167	0.239
-0.060	-5.168	0.241
-0.223	-5.233	1.096
-0.219	-5.225	1.099
-0.220	-5.216	1.100
-0.226	-5.209	1.100
-0.235	-5.207	1.097
-0.243	-5.211	1.094
-0.247	-5.218	1.091
-0.245	-5.227	1.089
-0.239	-5.234	1.090
-0.230	-5.236	1.092
-0.550	-5.516	1.777
-0.547	-5.509	1.782
-0.549	-5.500	1.784
-0.555	-5.494	1.784
-0.564	-5.491	1.781
-0.571	-5.495	1.776
-0.574	-5.502	1.771
-0.572	-5.511	1.769
-0.566	-5.517	1.769
-0.557	-5.520	1.772
-0.152	-6.217	1.086
-0.154	-6.209	1.090
-0.155	-6.200	1.088
-0.155	-6.194	1.081
-0.154	-6.192	1.072
-0.152	-6.197	1.064
-0.150	-6.205	1.060
-0.149	-6.214	1.062
-0.149	-6.220	1.069
-0.150	-6.222	1.078
-1.003	-6.337	0.938
-1.006	-6.329	0.942
-1.008	-6.320	0.940
-1.007	-6.314	0.933
-1.005	-6.312	0.924
-1.002	-6.317	0.916
-0.999	-6.325	0.913
-0.998	-6.334	0.915
-0.998	-6.340	0.922
-1.000	-6.341	0.930
-1.274	-6.430	0.832
-1.278	-6.422	0.835
-1.280	-6.414	0.833
-1.280	-6.407	0.826
-1.277	-6.406	0.818
-1.273	-6.410	0.810
-1.269	-6.418	0.807
-1.267	-6.426	0.809
-1.267	-6.433	0.816
-1.270	-6.434	0.825
-0.156	-6.326	1.140
-0.154	-6.322	1.148
-0.152	-6.323	1.157
-0.152	-6.329	1.164
-0.155	-6.338	1.166
-0.158	-6.346	1.162
-0.160	-6.350	1.154
-0.162	-6.349	1.145
-0.162	-6.342	1.138
-0.159	-6.334	1.137
0.663	-6.558	0.969
0.666	-6.554	0.977
0.668	-6.556	0.986
0.668	-6.562	0.992
0.667	-6.571	0.994
0.664	-6.579	0.990
0.660	-6.583	0.982
0.658	-6.581	0.973
0.658	-6.575	0.967
0.660	-6.566	0.965
0.953	-6.622	0.868
0.957	-6.619	0.875
0.959	-6.621	0.884
0.960	-6.627	0.890
0.959	-6.636	0.892
0.956	-6.644	0.888
0.952	-6.648	0.880
0.949	-6.646	0.871
0.949	-6.639	0.865
0.950	-6.630	0.864
-0.162	-6.455	1.215
-0.153	-6.456	1.217
-0.147	-6.461	1.222
-0.147	-6.468	1.228
-0.152	-6.474	1.233
-0.160	-6.478	1.235
-0.169	-6.476	1.233
-0.175	-6.471	1.228
-0.176	-6.464	1.222
-0.171	-6.458	1.217
-0.099	-7.039	0.554
-0.090	-7.040	0.555
-0.084	-7.045	0.560
-0.083	-7.052	0.566
-0.087	-7.059	0.571
-0.095	-7.062	0.573
-0.105	-7.061	0.571
-0.111	-7.056	0.566
-0.112	-7.049	0.560
-0.107	-7.043	0.555
-0.071	-7.184	0.364
-0.062	-7.184	0.366
-0.056	-7.189	0.370
-0.054	-7.196	0.376
-0.059	-7.203	0.381
-0.067	-7.207	0.382
-0.076	-7.207	0.381
-0.082	-7.202	0.376
-0.084	-7.195	0.370
-0.080	-7.188	0.366
-0.158	-6.593	1.285
-0.161	-6.585	1.291
-0.165	-6.583	1.299
-0.169	-6.586	1.306
-0.172	-6.593	1.310
-0.173	-6.603	1.310
-0.170	-6.610	1.305
-0.166	-6.613	1.297
-0.162	-6.609	1.289
-0.159	-6.602	1.285
0.608	-6.648	1.712
0.605	-6.641	1.717
0.601	-6.638	1.725
0.597	-6.641	1.732
0.594	-6.649	1.737
0.593	-6.658	1.736
0.596	-6.665	1.731
0.600	-6.668	1.723
0.604	-6.665	1.716
0.607	-6.657	1.711
0.652	-6.651	1.737
0.649	-6.643	1.742
0.645	-6.641	1.750
0.641	-6.644	1.757
0.638	-6.651	1.762
0.637	-6.661	1.761
0.640	-6.668	1.756
0.644	-6.671	1.748
0.648	-6.668	1.741
0.651	-6.660	1.736
-0.168	-6.723	1.352
-0.169	-6.718	1.360
-0.169	-6.719	1.369
-0.170	-6.724	1.376
-0.171	-6.733	1.378
-0.172	-6.742	1.375
-0.172	-6.747	1.367
-0.171	-6.746	1.358
-0.170	-6.740	1.351
-0.169	-6.731	1.348
0.690	-6.805	1.413
0.691	-6.801	1.422
0.690	-6.802	1.431
0.690	-6.808	1.438
0.689	-6.817	1.439
0.688	-6.826	1.436
0.688	-6.830	1.428
0.689	-6.829	1.418
0.689	-6.823	1.412
0.690	-6.814	1.410
0.936	-6.814	1.412
0.936	-6.810	1.421
0.936	-6.811	1.430
0.936	-6.818	1.436
0.936	-6.827	1.438
0.935	-6.835	1.434
0.935	-6.840	1.426
0.935	-6.838	1.416
0.935	-6.832	1.410
0.936	-6.823	1.408
-0.173	-6.879	1.437
-0.174	-6.872	1.442
-0.175	-6.863	1.442
-0.177	-6.855	1.436
-0.178	-6.853	1.427
-0.178	-6.856	1.418
-0.178	-6.864	1.413
-0.176	-6.873	1.413
-0.175	-6.880	1.419
-0.174	-6.883	1.428
-1.056	-6.986	1.523
-1.048	-6.986	1.527
-1.038	-6.986	1.526
-1.032	-6.986	1.519
-1.030	-6.986	1.510
-1.035	-6.986	1.502
-1.043	-6.986	1.497
-1.052	-6.986	1.499
-1.059	-6.986	1.505
-1.060	-6.986	1.515
-0.178	-7.015	1.498
-0.179	-7.009	1.505
-0.182	-7.000	1.507
-0.185	-6.993	1.503
-0.188	-6.989	1.494
-0.189	-6.991	1.485
-0.188	-6.997	1.479
-0.185	-7.006	1.477
-0.182	-7.013	1.481
-0.179	-7.017	1.489
-0.972	-7.308	1.650
-0.973	-7.302	1.657
-0.976	-7.294	1.659
-0.980	-7.286	1.656
-0.984	-7.282	1.649
-0.986	-7.284	1.640
-0.985	-7.290	1.633
-0.982	-7.298	1.631
-0.978	-7.306	1.634
-0.974	-7.310	1.641
-1.066	-7.359	1.688
-1.066	-7.353	1.695
-1.069	-7.345	1.698
-1.074	-7.337	1.695
-1.079	-7.334	1.688
-1.082	-7.335	1.680
-1.082	-7.341	1.673
-1.079	-7.349	1.670
-1.074	-7.356	1.672
-1.069	-7.360	1.679
-0.178	-7.148	1.555
-0.175	-7.140	1.557
-0.177	-7.131	1.558
-0.184	-7.125	1.559
-0.193	-7.124	1.559
-0.201	-7.128	1.558
-0.205	-7.137	1.556
-0.203	-7.146	1.555
-0.196	-7.152	1.554
-0.186	-7.153	1.554
-0.200	-7.295	2.415
-0.196	-7.287	2.416
-0.198	-7.278	2.417
-0.205	-7.272	2.417
-0.214	-7.270	2.417
-0.222	-7.275	2.415
-0.226	-7.283	2.414
-0.224	-7.292	2.413
-0.218	-7.298	2.413
-0.208	-7.300	2.413
-0.217	-7.307	2.531
-0.212	-7.299	2.532
-0.214	-7.290	2.533
-0.220	-7.283	2.533
-0.229	-7.281	2.531
-0.238	-7.285	2.530
-0.242	-7.293	2.529
-0.240	-7.303	2.528
-0.234	-7.309	2.528
-0.225	-7.311	2.529
-0.186	-7.269	1.609
-0.187	-7.262	1.615
-0.190	-7.259	1.623
-0.195	-7.262	1.630
-0.199	-7.269	1.634
-0.202	-7.278	1.633
-0.202	-7.285	1.627
-0.198	-7.288	1.619
-0.193	-7.285	1.612
-0.189	-7.278	1.608
0.547	-7.531	1.996
0.547	-7.524	2.001
0.544	-7.521	2.009
0.538	-7.523	2.017
0.534	-7.530	2.021
0.531	-7.539	2.020
0.531	-7.546	2.014
0.534	-7.549	2.006
0.539	-7.547	1.998
0.544	-7.540	1.994
0.569	-7.541	2.009
0.569	-7.534	2.014
0.566	-7.531	2.022
0.561	-7.533	2.030
0.556	-7.539	2.034
0.552	-7.548	2.032
0.552	-7.555	2.027
0.556	-7.559	2.019
0.561	-7.556	2.011
0.566	-7.550	2.008
-0.199	-7.397	1.677
-0.190	-7.398	1.677
-0.183	-7.404	1.681
-0.181	-7.411	1.686
-0.185	-7.417	1.692
-0.193	-7.420	1.695
-0.203	-7.419	1.695
-0.209	-7.414	1.692
-0.211	-7.406	1.686
-0.207	-7.400	1.681
-0.278	-7.935	0.995
-0.269	-7.936	0.995
-0.262	-7.941	0.999
-0.260	-7.949	1.004
-0.264	-7.955	1.010
-0.273	-7.958	1.013
-0.282	-7.957	1.013
-0.288	-7.951	1.010
-0.290	-7.944	1.004
-0.286	-7.938	0.999
-0.076	-5.251	0.336
-0.077	-5.244	0.342
-0.080	-5.243	0.351
-0.083	-5.247	0.359
-0.086	-5.255	0.362
-0.087	-5.264	0.360
-0.086	-5.271	0.354
-0.084	-5.272	0.345
-0.080	-5.268	0.337
-0.077	-5.260	0.334
0.760	-5.415	0.630
0.759	-5.408	0.636
0.756	-5.406	0.645
0.752	-5.410	0.653
0.750	-5.419	0.656
0.748	-5.428	0.654
0.750	-5.434	0.648
0.752	-5.436	0.639
0.756	-5.432	0.632
0.759	-5.424	0.628
1.308	-5.518	0.838
1.307	-5.511	0.845
1.304	-5.510	0.853
1.300	-5.514	0.861
1.297	-5.522	0.865
1.296	-5.531	0.863
1.298	-5.537	0.856
1.301	-5.539	0.848
1.304	-5.535	0.840
1.307	-5.527	0.837
-0.197	-7.533	1.741
-0.188	-7.535	1.744
-0.183	-7.540	1.750
-0.183	-7.546	1.756
-0.189	-7.552	1.761
-0.198	-7.554	1.762
-0.207	-7.553	1.759
-0.212	-7.548	1.753
-0.211	-7.541	1.747
-0.206	-7.536	1.742
-0.092	-8.180	1.140
-0.084	-8.181	1.143
-0.079	-8.185	1.150
-0.079	-8.191	1.156
-0.085	-8.197	1.161
-0.094	-8.200	1.161
-0.102	-8.200	1.158
-0.107	-8.195	1.151
-0.107	-8.189	1.145
-0.101	-8.183	1.140
-0.063	-8.266	1.100
-0.063	-8.258	1.105
-0.063	-8.249	1.103
-0.063	-8.242	1.097
-0.063	-8.241	1.088
-0.063	-8.245	1.079
-0.063	-8.253	1.075
-0.063	-8.262	1.077
-0.063	-8.269	1.083
-0.063	-8.270	1.092
-0.203	-7.668	1.805
-0.194	-7.668	1.806
-0.187	-7.672	1.810
-0.184	-7.680	1.814
-0.187	-7.688	1.818
-0.194	-7.693	1.820
-0.203	-7.693	1.819
-0.211	-7.689	1.816
-0.214	-7.682	1.811
-0.211	-7.674	1.807
-0.102	-8.098	1.045
-0.093	-8.097	1.047
-0.086	-8.101	1.051
-0.083	-8.109	1.056
-0.086	-8.117	1.059
-0.093	-8.122	1.060
-0.102	-8.123	1.058
-0.110	-8.119	1.054
-0.112	-8.112	1.049
-0.109	-8.104	1.046
-0.066	-8.164	0.984
-0.066	-8.156	0.989
-0.066	-8.147	0.987
-0.066	-8.140	0.981
-0.066	-8.139	0.971
-0.066	-8.143	0.963
-0.066	-8.151	0.959
-0.066	-8.160	0.960
-0.066	-8.167	0.967
-0.066	-8.168	0.976
-0.202	-7.806	1.864
-0.193	-7.808	1.865
-0.187	-7.813	1.870
-0.186	-7.820	1.876
-0.190	-7.826	1.881
-0.199	-7.829	1.883
-0.208	-7.828	1.882
-0.214	-7.823	1.877
-0.215	-7.816	1.871
-0.210	-7.810	1.866
-0.180	-8.323	1.261
-0.170	-8.324	1.263
-0.164	-8.329	1.268
-0.163	-8.336	1.274
-0.168	-8.342	1.279
-0.176	-8.345	1.281
-0.185	-8.344	1.280
-0.192	-8.339	1.275
-0.193	-8.332	1.269
-0.188	-8.326	1.264
-0.199	-7.968	1.940
-0.202	-7.961	1.945
-0.205	-7.952	1.944
-0.206	-7.945	1.938
-0.205	-7.942	1.929
-0.203	-7.945	1.921
-0.199	-7.952	1.916
-0.197	-7.961	1.917
-0.196	-7.968	1.923
-0.196	-7.971	1.931
-0.835	-8.145	1.813
-0.827	-8.141	1.813
-0.817	-8.142	1.813
-0.811	-8.149	1.813
-0.809	-8.158	1.813
-0.814	-8.166	1.813
-0.822	-8.170	1.813
-0.831	-8.169	1.813
-0.838	-8.162	1.813
-0.839	-8.153	1.813
-0.195	-8.108	1.992
-0.195	-8.101	1.999
-0.197	-8.093	2.001
-0.201	-8.085	1.997
-0.205	-8.082	1.990
-0.208	-8.083	1.981
-0.207	-8.090	1.974
-0.205	-8.099	1.972
-0.201	-8.106	1.976
-0.197	-8.110	1.984
-0.984	-8.400	2.260
-0.984	-8.394	2.267
-0.986	-8.385	2.268
-0.990	-8.377	2.264
-0.994	-8.374	2.257
-0.996	-8.376	2.248
-0.996	-8.383	2.241
-0.993	-8.391	2.240
-0.990	-8.399	2.244
-0.986	-8.402	2.252
[...]
         <CellData>
           <DataArray type="Float32" Name="combinedRootClassID" NumberOfComponents="1" format="ascii">
 -1.300e+001 -1.300e+001 -1.300e+001 -1.300e+001 -1.300e+001 -1.300e+001 -1.300e+001 -1.300e+001 -1.300e+001 -1.300e+001 -1.300e+001 -1.300e+001 -1.300e+001 -1.300e+001 -1.300e+001 -1.300e+001 -1.300e+001 -1.300e+001 -1.300e+001 -1.300e+001 -1.300e+001 -1.300e+001 -1.300e+001 -1.300e+001 -1.300e+001 -1.300e+001 -1.300e+001 -1.300e+001 -1.300e+001 -1.300e+001 -1.300e+001 -1.300e+001 -1.300e+001 -1.300e+001 -1.300e+001 -1.300e+001 -1.300e+001 -1.300e+001 -1.300e+001 -1.300e+001 -1.300e+001 -1.300e+001 -1.300e+001 -1.300e+001 -1.300e+001 -1.300e+001 -1.300e+001 -1.300e+001 -1.300e+001 -1.300e+001 -1.300e+001 -1.300e+001 -1.300e+001 -1.300e+001 -1.300e+001 -1.300e+001 -1.300e+001 -1.300e+001 -1.300e+001 -1.300e+001 -1.300e+001 -1.300e+001 -1.300e+001 -1.300e+001 -1.300e+001 -1.300e+001 -1.300e+001 -1.300e+001 -1.300e+001 -1.300e+001 -1.300e+001 -1.300e+001 -1.300e+001 -1.300e+001 -1.300e+001 -1.300e+001 -1.300e+001 -1.300e+001 -1.300e+001 -1.300e+001 -1.300e+001 -1.300e+001 -1.300e+001 -1.300e+001 -1.300e+001 -5.000e+000 -5.000e+000 -5.000e+000 -5.000e+000 -5.000e+000 -5.000e+000 -5.000e+000 -5.000e+000 -5.000e+000 -5.000e+000 -5.000e+000 -5.000e+000 -5.000e+000 -5.000e+000 -5.000e+000 -5.000e+000 -5.000e+000 -5.000e+000 -5.000e+000 -5.000e+000 -5.000e+000 -5.000e+000 -5.000e+000 -1.300e+001 -1.300e+001 -1.300e+001 -1.300e+001 -1.300e+001 -1.300e+001 -1.300e+001 -1.300e+001 -1.300e+001 -1.300e+001 -1.300e+001 -1.300e+001 -1.300e+001 -1.300e+001 -1.300e+001 -1.300e+001 -1.300e+001 -1.300e+001 -1.300e+001 -1.300e+001 -1.300e+001 -1.300e+001 -1.300e+001 -1.300e+001 -1.300e+001 -1.300e+001 -1.300e+001 -1.300e+001 -1.300e+001 -1.300e+001 -1.300e+001 -1.300e+001 -1.300e+001 -1.300e+001 -1.300e+001 -1.300e+001 -1.300e+001 -1.300e+001 -1.300e+001 -1.300e+001 -1.300e+001 -1.300e+001 -1.300e+001 -1.300e+001 -1.300e+001 -1.300e+001 -1.300e+001 -1.300e+001 -1.300e+001 -1.300e+001 -1.300e+001 -1.300e+001 -1.300e+001 -1.300e+001 -1.300e+001 -1.300e+001 -1.300e+001 -1.300e+001 -1.300e+001 -1.300e+001 -1.300e+001 -1.300e+001 -1.300e+001 -1.300e+001 -1.300e+001 -1.300e+001 -1.300e+001 -1.300e+001 -1.300e+001 -1.300e+001 -1.300e+001 -1.300e+001 -1.300e+001 -1.300e+001 -1.300e+001 -1.300e+001 -1.300e+001 -1.300e+001 -1.300e+001 -1.300e+001 -1.300e+001 -1.300e+001 -1.300e+001 -1.300e+001 -1.300e+001 -1.300e+001 -5.000e+000 -5.000e+000 -5.000e+000 -5.000e+000 -5.000e+000 -5.000e+000 -5.000e+000 -5.000e+000 -5.000e+000 -5.000e+000 -5.000e+000 -5.000e+000 -5.000e+000 -5.000e+000 -5.000e+000 -5.000e+000 -5.000e+000 -5.000e+000 -5.000e+000 -5.000e+000 -5.000e+000 -5.000e+000 -5.000e+000 -1.300e+001 -1.300e+001 -1.300e+001 -1.300e+001 -1.300e+001 -1.300e+001 -1.300e+001 -1.300e+001 -1.300e+001 -1.300e+001 -1.300e+001 -1.300e+001 -1.300e+001 -1.300e+001 -1.300e+001 -1.300e+001 -1.300e+001 -1.300e+001 -1.300e+001 -1.300e+001 -1.300e+001 -1.300e+001 -1.300e+001 -1.300e+001 -1.300e+001 -1.300e+001 -1.300e+001 -1.300e+001 -1.300e+001 -1.300e+001 -1.300e+001 -1.300e+001 -1.300e+001 -1.300e+001 -1.300e+001 -1.300e+001 -1.300e+001 -1.300e+001 -1.300e+001 -1.300e+001 -1.300e+001 -1.300e+001 -1.300e+001 -1.300e+001 -1.300e+001 -1.300e+001 -1.300e+001 -1.300e+001 -1.300e+001 -1.300e+001 -1.300e+001 -1.300e+001 -1.300e+001 -1.300e+001 -1.300e+001 -1.300e+001 -1.300e+001 -1.300e+001 -1.300e+001 -1.300e+001 -1.300e+001 -1.300e+001 -1.300e+001 -1.300e+001 -1.300e+001 -1.300e+001 -1.300e+001 -1.300e+001 -1.300e+001 -1.300e+001 -1.300e+001 -1.300e+001 -1.300e+001 -1.300e+001 -1.300e+001 -1.300e+001 -1.300e+001 -1.300e+001 -1.300e+001 -1.300e+001 -1.300e+001 -1.300e+001 -1.300e+001 -5.000e+000 -5.000e+000 -5.000e+000 -5.000e+000 -5.000e+000 -5.000e+000 -5.000e+000 -5.000e+000 -5.000e+000 -5.000e+000 -5.000e+000 -5.000e+000 -5.000e+000 -5.000e+000 -5.000e+000 -5.000e+000 -5.000e+000 -5.000e+000 -5.000e+000 -5.000e+000 -5.000e+000 -5.000e+000 -5.000e+000 -1.300e+001 -1.300e+001 -1.300e+001 -1.300e+001 -1.300e+001 -1.300e+001 -1.300e+001 -1.300e+001 -1.300e+001 -1.300e+001 -1.300e+001 -1.300e+001 -1.300e+001 -1.300e+001 -1.300e+001 -1.300e+001 -1.300e+001 -1.300e+001 -1.300e+001 -1.300e+001 -1.300e+001 -1.300e+001 -1.300e+001 -1.300e+001 -1.300e+001 -1.300e+001 -1.300e+001 -1.300e+001 -1.300e+001 -1.300e+001 -1.300e+001 -1.300e+001 -1.300e+001 -1.300e+001 -1.300e+001 -1.300e+001 -1.300e+001 -1.300e+001 -1.300e+001 -1.300e+001 -1.300e+001 -1.300e+001 -1.300e+001 -1.300e+001 -1.300e+001 -1.300e+001 -1.300e+001 -1.300e+001 -1.300e+001 -1.300e+001 -1.300e+001 -1.300e+001 -1.300e+001 -1.300e+001 -1.300e+001 -1.300e+001 -1.300e+001 -1.300e+001 -1.300e+001 -1.300e+001 -1.300e+001 -1.300e+001 -1.300e+001 -1.300e+001 -1.300e+001 -1.300e+001 -1.300e+001 -1.300e+001 -1.300e+001 -1.300e+001 -1.300e+001 -1.300e+001 -1.300e+001 -1.300e+001 -1.300e+001 -1.300e+001 -1.300e+001 -1.300e+001 -1.300e+001 -1.300e+001 -1.300e+001 -1.300e+001 -1.300e+001 -1.300e+001 -1.300e+001 -1.300e+001 -5.000e+000 -5.000e+000 -5.000e+000 -5.000e+000 -5.000e+000 -5.000e+000 -5.000e+000 -5.000e+000 -5.000e+000 -5.000e+000 -5.000e+000 -5.000e+000 -5.000e+000 -5.000e+000 -5.000e+000 -5.000e+000 -5.000e+000 -5.000e+000 -5.000e+000 -5.000e+000 -5.000e+000 -5.000e+000 -5.000e+000 -1.100e+001 -1.100e+001 -1.100e+001 -1.100e+001 -1.100e+001 -1.100e+001 -1.100e+001 -1.100e+001 -1.100e+001 -1.100e+001 -1.100e+001 -1.100e+001 -1.100e+001 -1.100e+001 -1.100e+001 -1.100e+001 -1.100e+001 -1.100e+001 -1.100e+001 -1.100e+001 -1.100e+001 -1.100e+001 -1.100e+001 -1.100e+001 -1.100e+001 -1.100e+001 -1.100e+001 -1.100e+001 -1.100e+001 -1.100e+001 -1.100e+001 -1.100e+001 -1.100e+001 -1.100e+001 -1.100e+001 -1.100e+001 -1.100e+001 -1.100e+001 -1.100e+001 -1.100e+001 -1.100e+001 -1.100e+001 -1.100e+001 -1.100e+001 -1.100e+001 -1.100e+001 -1.100e+001 -1.100e+001 -2.000e+000 -2.000e+000 -2.000e+000 -2.000e+000 -2.000e+000 -2.000e+000 -2.000e+000 -2.000e+000 -2.000e+000 -2.000e+000 -7.000e+000 -7.000e+000 -7.000e+000 -7.000e+000 -7.000e+000 -1.500e+001 -1.500e+001 -7.000e+000 -7.000e+000 -7.000e+000 -7.000e+000 -7.000e+000 -7.000e+000 -7.000e+000 -7.000e+000 -7.000e+000 -7.000e+000 -7.000e+000 -7.000e+000 -7.000e+000 -7.000e+000 -7.000e+000 -7.000e+000 -7.000e+000 -7.000e+000 -7.000e+000 -7.000e+000 -7.000e+000 -7.000e+000 -7.000e+000 -7.000e+000 -7.000e+000 -7.000e+000 -7.000e+000 -7.000e+000 -7.000e+000 -7.000e+000 -7.000e+000 -7.000e+000 -7.000e+000 -7.000e+000 -7.000e+000 -7.000e+000 -7.000e+000 -7.000e+000 -7.000e+000 -7.000e+000 -7.000e+000 -7.000e+000 -7.000e+000 -7.000e+000 -7.000e+000 -7.000e+000 -7.000e+000 -7.000e+000 -7.000e+000 -7.000e+000 -7.000e+000 -7.000e+000 -7.000e+000 -7.000e+000 -7.000e+000 -7.000e+000 -7.000e+000 -7.000e+000 -7.000e+000 -7.000e+000 -7.000e+000 -7.000e+000 -7.000e+000 -7.000e+000 -7.000e+000 -7.000e+000 -7.000e+000 -7.000e+000 -7.000e+000 -7.000e+000 -7.000e+000 -7.000e+000 -7.000e+000 -7.000e+000 -7.000e+000 -7.000e+000 -7.000e+000 -7.000e+000 -7.000e+000 -7.000e+000 -7.000e+000 -7.000e+000 -7.000e+000 -7.000e+000 -7.000e+000 -7.000e+000 -7.000e+000 -7.000e+000 -7.000e+000 -7.000e+000 -7.000e+000 -7.000e+000 -7.000e+000 -7.000e+000 -7.000e+000 -7.000e+000 -1.500e+001 -7.000e+000 -7.000e+000 -7.000e+000 -7.000e+000 -7.000e+000 -7.000e+000 -7.000e+000 -7.000e+000 -7.000e+000 -7.000e+000 -7.000e+000 -7.000e+000 -7.000e+000 -7.000e+000 -7.000e+000 -7.000e+000 -7.000e+000 -7.000e+000 -7.000e+000 -7.000e+000 -7.000e+000 -7.000e+000 -7.000e+000 -7.000e+000 -7.000e+000 -7.000e+000 -7.000e+000 -7.000e+000 -7.000e+000 -7.000e+000 -7.000e+000 -7.000e+000 -7.000e+000 -7.000e+000 -7.000e+000 -7.000e+000 -7.000e+000 -7.000e+000 -7.000e+000 -7.000e+000 -7.000e+000 -7.000e+000 -7.000e+000 -7.000e+000 -7.000e+000 -7.000e+000 -7.000e+000 -7.000e+000 -7.000e+000 -7.000e+000 -7.000e+000 -7.000e+000 -1.500e+001 -7.000e+000 -7.000e+000 -7.000e+000 -7.000e+000 -7.000e+000 -7.000e+000 -7.000e+000 -7.000e+000 -7.000e+000 -7.000e+000 -7.000e+000 -7.000e+000 -7.000e+000 -7.000e+000 -7.000e+000 -7.000e+000 -7.000e+000 -7.000e+000 -7.000e+000 -7.000e+000 -7.000e+000 -7.000e+000 -7.000e+000 -7.000e+000 -7.000e+000 -7.000e+000 -7.000e+000 -7.000e+000 -7.000e+000 -7.000e+000 -7.000e+000 -7.000e+000 -7.000e+000 -7.000e+000 -7.000e+000 -7.000e+000 -7.000e+000 -7.000e+000 -7.000e+000 -7.000e+000 -7.000e+000 -7.000e+000 -7.000e+000 -7.000e+000 -7.000e+000 -7.000e+000 -7.000e+000 -7.000e+000 -7.000e+000 -7.000e+000 -7.000e+000 -7.000e+000 -7.000e+000 -7.000e+000 -7.000e+000 -7.000e+000 -7.000e+000 -7.000e+000 -7.000e+000 -7.000e+000 -7.000e+000 -7.000e+000 -7.000e+000 -7.000e+000 -7.000e+000 -7.000e+000 -7.000e+000 -7.000e+000 -7.000e+000 -7.000e+000 -7.000e+000 -7.000e+000 -7.000e+000 -7.000e+000 -7.000e+000 -7.000e+000 -7.000e+000 -7.000e+000 -7.000e+000 -7.000e+000 -7.000e+000 -7.000e+000 -7.000e+000 -7.000e+000 -7.000e+000 -7.000e+000 -7.000e+000 -7.000e+000 -7.000e+000 -7.000e+000 -7.000e+000 -7.000e+000 -7.000e+000 -7.000e+000 -7.000e+000 -7.000e+000 -7.000e+000 -7.000e+000 -7.000e+000 -7.000e+000 -7.000e+000 -7.000e+000 -7.000e+000 -7.000e+000 -7.000e+000 -7.000e+000 -7.000e+000 -7.000e+000 -7.000e+000 -7.000e+000 -7.000e+000 -7.000e+000 -7.000e+000 -7.000e+000 -7.000e+000 -7.000e+000 -7.000e+000 -7.000e+000 -7.000e+000 -7.000e+000 -7.000e+000 -7.000e+000 -7.000e+000 -7.000e+000 -7.000e+000 -7.000e+000 -1.500e+001 -7.000e+000 -7.000e+000 -7.000e+000 -7.000e+000 -7.000e+000 -7.000e+000 -7.000e+000 -7.000e+000 -7.000e+000 -7.000e+000 -7.000e+000 -7.000e+000 -7.000e+000 -7.000e+000 -7.000e+000 -7.000e+000 -7.000e+000 -7.000e+000 -7.000e+000 -7.000e+000 -7.000e+000 -7.000e+000 -7.000e+000 -7.000e+000 -7.000e+000 -7.000e+000 -7.000e+000 -7.000e+000 -7.000e+000 -7.000e+000 -7.000e+000 -7.000e+000 -7.000e+000 -7.000e+000 -7.000e+000 -7.000e+000 -7.000e+000 -7.000e+000 -7.000e+000 -7.000e+000 -7.000e+000 -7.000e+000 -7.000e+000 -7.000e+000 -7.000e+000 -7.000e+000 -7.000e+000 -7.000e+000 -7.000e+000 -7.000e+000 -7.000e+000 -7.000e+000 -7.000e+000 -7.000e+000 -7.000e+000 -7.000e+000 -7.000e+000 -7.000e+000 -7.000e+000 -7.000e+000 -7.000e+000 -7.000e+000 -7.000e+000 -7.000e+000 -7.000e+000 -7.000e+000 -7.000e+000 -7.000e+000 -7.000e+000 -7.000e+000 -7.000e+000 -7.000e+000 -7.000e+000 -7.000e+000 -7.000e+000 -7.000e+000 -7.000e+000 -7.000e+000 -7.000e+000 -7.000e+000 -7.000e+000 -7.000e+000 -7.000e+000 -7.000e+000 -7.000e+000 -7.000e+000 -7.000e+000 -7.000e+000 -7.000e+000 -7.000e+000 -7.000e+000 -7.000e+000 -7.000e+000 -7.000e+000 -7.000e+000 -7.000e+000 -7.000e+000 -7.000e+000 -7.000e+000 -7.000e+000 -7.000e+000 -7.000e+000 -7.000e+000 -7.000e+000 -7.000e+000 -7.000e+000 -7.000e+000 -7.000e+000 -7.000e+000 -7.000e+000 -7.000e+000 -7.000e+000 -7.000e+000 -7.000e+000 -7.000e+000 -7.000e+000 -7.000e+000 -7.000e+000 -7.000e+000 -7.000e+000 -7.000e+000 -7.000e+000 -1.700e+001 -9.000e+000 -9.000e+000 -9.000e+000 -9.000e+000 -9.000e+000 -9.000e+000 -9.000e+000 -9.000e+000 -9.000e+000 -9.000e+000 -9.000e+000 -9.000e+000 -9.000e+000 -9.000e+000 -9.000e+000 -4.000e+000 -4.000e+000 -4.000e+000 -4.000e+000 -4.000e+000 -4.000e+000 -4.000e+000 -4.000e+000 -4.000e+000 -4.000e+000 -4.000e+000 -4.000e+000 -4.000e+000 -4.000e+000 -4.000e+000 -4.000e+000 -4.000e+000 -4.000e+000 -4.000e+000 -4.000e+000 -4.000e+000 -4.000e+000 -4.000e+000 -4.000e+000 -4.000e+000 -4.000e+000 -4.000e+000 -4.000e+000 -4.000e+000 -4.000e+000 -4.000e+000 -4.000e+000 -4.000e+000
           </DataArray>
           <DataArray type="Float32" Name="nitrate/Cmin" NumberOfComponents="1" format="ascii">