<?xml version="1.0"?>
<VTKFile type="UnstructuredGrid" version="0.1" byte_order="LittleEndian">
   <UnstructuredGrid>
      <Piece NumberOfPoints="260" NumberOfCells="24">
         <Points>
            <DataArray type="Float32" Name="Position" NumberOfComponents="3" format="ascii">
-0.142	-5.004	0.146
-0.029	-5.004	0.201
0.095	-5.003	0.180
0.183	-5.001	0.090
0.201	-4.998	-0.035
0.142	-4.996	-0.146
0.029	-4.996	-0.201
-0.095	-4.997	-0.180
-0.183	-4.999	-0.090
-0.201	-5.002	0.035
-0.146	-4.252	0.161
-0.034	-4.253	0.217
0.089	-4.253	0.196
0.177	-4.251	0.107
0.196	-4.249	-0.017
0.138	-4.248	-0.128
0.026	-4.247	-0.184
-0.097	-4.248	-0.164
-0.185	-4.249	-0.074
-0.204	-4.251	0.049
-0.145	-3.561	0.163
-0.034	-3.561	0.220
0.089	-3.562	0.200
0.178	-3.561	0.111
0.197	-3.561	-0.012
0.140	-3.560	-0.123
0.029	-3.559	-0.180
-0.095	-3.559	-0.160
-0.183	-3.559	-0.072
-0.202	-3.560	0.052
-0.142	-2.700	0.169
-0.031	-2.702	0.225
0.093	-2.702	0.206
0.181	-2.702	0.118
0.200	-2.701	-0.006
0.144	-2.700	-0.117
0.032	-2.699	-0.173
-0.091	-2.698	-0.154
-0.179	-2.698	-0.066
-0.198	-2.699	0.058
-0.136	-2.101	0.173
-0.025	-2.102	0.229
0.098	-2.103	0.210
0.186	-2.102	0.122
0.206	-2.102	-0.001
0.149	-2.100	-0.112
0.038	-2.099	-0.169
-0.085	-2.098	-0.149
-0.173	-2.098	-0.061
-0.192	-2.099	0.062
-0.131	-1.201	0.182
-0.020	-1.202	0.238
0.103	-1.202	0.218
0.191	-1.202	0.130
0.210	-1.201	0.007
0.153	-1.200	-0.103
0.042	-1.199	-0.160
-0.081	-1.198	-0.140
-0.169	-1.199	-0.052
-0.188	-1.200	0.071
-0.129	-0.301	0.189
-0.018	-0.301	0.245
0.104	-0.302	0.226
0.192	-0.302	0.138
0.211	-0.301	0.015
0.155	-0.300	-0.095
0.044	-0.299	-0.152
-0.079	-0.299	-0.132
-0.166	-0.299	-0.044
-0.186	-0.300	0.079
-0.126	0.560	0.191
-0.015	0.559	0.247
0.107	0.559	0.228
0.195	0.559	0.140
0.215	0.559	0.018
0.158	0.559	-0.093
0.048	0.560	-0.149
-0.075	0.560	-0.130
-0.162	0.560	-0.042
-0.182	0.560	0.080
-0.123	1.440	0.192
-0.013	1.440	0.249
0.109	1.439	0.229
0.197	1.439	0.142
0.217	1.439	0.020
0.161	1.439	-0.091
0.050	1.439	-0.147
-0.072	1.440	-0.128
-0.160	1.440	-0.041
-0.179	1.440	0.082
-0.119	2.316	0.190
-0.009	2.316	0.247
0.113	2.316	0.227
0.201	2.316	0.140
0.220	2.316	0.017
0.164	2.316	-0.093
0.053	2.316	-0.149
-0.069	2.316	-0.129
-0.156	2.316	-0.042
-0.175	2.316	0.080
0.163	2.470	-0.092
0.136	2.587	-0.065
0.065	2.660	0.006
-0.022	2.660	0.093
-0.093	2.587	0.164
-0.120	2.470	0.191
-0.093	2.352	0.164
-0.022	2.279	0.093
0.065	2.279	0.006
0.136	2.352	-0.065
0.033	-4.999	-0.034
0.046	-4.996	-0.008
0.042	-4.995	0.020
0.022	-4.995	0.041
-0.007	-4.998	0.046
-0.033	-5.001	0.034
-0.046	-5.004	0.008
-0.042	-5.005	-0.020
-0.022	-5.005	-0.041
0.007	-5.002	-0.046
0.101	-5.700	0.007
0.115	-5.697	0.033
0.111	-5.697	0.061
0.091	-5.698	0.082
0.063	-5.701	0.088
0.037	-5.705	0.076
0.023	-5.707	0.051
0.027	-5.708	0.022
0.047	-5.706	0.001
0.075	-5.703	-0.005
0.195	-6.398	0.014
0.209	-6.396	0.039
0.207	-6.395	0.067
0.188	-6.398	0.089
0.160	-6.402	0.095
0.134	-6.407	0.083
0.120	-6.410	0.059
0.123	-6.410	0.030
0.141	-6.407	0.009
0.169	-6.403	0.002
0.324	-7.092	0.034
0.337	-7.088	0.058
0.335	-7.087	0.087
0.316	-7.090	0.108
0.289	-7.095	0.114
0.263	-7.101	0.103
0.249	-7.106	0.079
0.252	-7.107	0.050
0.271	-7.104	0.029
0.298	-7.098	0.022
0.495	-7.777	0.096
0.509	-7.771	0.121
0.505	-7.769	0.149
0.486	-7.771	0.170
0.459	-7.776	0.176
0.434	-7.783	0.164
0.420	-7.789	0.140
0.424	-7.791	0.112
0.443	-7.789	0.091
0.470	-7.783	0.085
0.633	-8.467	0.184
0.646	-8.462	0.208
0.641	-8.459	0.236
0.622	-8.460	0.257
0.594	-8.464	0.262
0.569	-8.469	0.250
0.556	-8.474	0.225
0.561	-8.477	0.197
0.580	-8.476	0.177
0.608	-8.472	0.172
0.713	-9.166	0.264
0.726	-9.161	0.289
0.721	-9.159	0.317
0.701	-9.159	0.337
0.674	-9.162	0.341
0.649	-9.166	0.329
0.636	-9.170	0.304
0.640	-9.173	0.276
0.660	-9.173	0.256
0.688	-9.170	0.251
0.797	-9.862	0.330
0.810	-9.859	0.354
0.806	-9.857	0.382
0.787	-9.858	0.403
0.760	-9.862	0.408
0.734	-9.866	0.396
0.721	-9.870	0.372
0.725	-9.871	0.344
0.744	-9.870	0.323
0.771	-9.867	0.318
0.912	-10.558	0.361
0.926	-10.555	0.386
0.922	-10.553	0.413
0.903	-10.555	0.434
0.876	-10.559	0.440
0.851	-10.564	0.428
0.838	-10.567	0.404
0.841	-10.569	0.376
0.860	-10.567	0.355
0.887	-10.563	0.350
1.018	-11.254	0.415
1.032	-11.251	0.440
1.029	-11.250	0.467
1.010	-11.253	0.488
0.984	-11.257	0.494
0.958	-11.262	0.483
0.945	-11.265	0.459
0.947	-11.265	0.431
0.966	-11.263	0.410
0.993	-11.258	0.404
1.139	-11.948	0.405
1.153	-11.947	0.429
1.151	-11.948	0.457
1.133	-11.951	0.478
1.106	-11.955	0.484
1.081	-11.958	0.474
1.066	-11.960	0.450
1.069	-11.959	0.422
1.087	-11.956	0.401
1.114	-11.952	0.395
1.220	-12.652	0.389
1.233	-12.650	0.413
1.230	-12.651	0.441
1.212	-12.653	0.461
1.185	-12.656	0.467
1.159	-12.658	0.456
1.146	-12.660	0.431
1.149	-12.660	0.404
1.167	-12.658	0.383
1.194	-12.655	0.377
1.298	-13.355	0.412
1.311	-13.353	0.437
1.308	-13.352	0.464
1.289	-13.353	0.485
1.261	-13.356	0.490
1.237	-13.360	0.478
1.223	-13.362	0.454
1.227	-13.363	0.426
1.246	-13.362	0.406
1.273	-13.359	0.401
1.382	-14.056	0.452
1.395	-14.052	0.476
1.391	-14.051	0.504
1.373	-14.052	0.524
1.345	-14.056	0.530
1.321	-14.061	0.518
1.308	-14.064	0.494
1.311	-14.066	0.466
1.330	-14.064	0.446
1.357	-14.061	0.440
1.424	-14.287	0.472
1.438	-14.282	0.496
1.434	-14.280	0.524
1.415	-14.282	0.544
1.388	-14.286	0.550
1.364	-14.292	0.539
1.351	-14.297	0.514
1.354	-14.298	0.487
1.373	-14.297	0.466
1.400	-14.292	0.461
		    </DataArray>
         </Points>
         <Cells>
            <DataArray type="Int32" Name="connectivity" NumberOfComponents="1" format="ascii">
 0 10 1 11 2 12 3 13 4 14 5 15 6 16 7 17 8 18 9 19 0 10
 10 20 11 21 12 22 13 23 14 24 15 25 16 26 17 27 18 28 19 29 10 20
 20 30 21 31 22 32 23 33 24 34 25 35 26 36 27 37 28 38 29 39 20 30
 30 40 31 41 32 42 33 43 34 44 35 45 36 46 37 47 38 48 39 49 30 40
 40 50 41 51 42 52 43 53 44 54 45 55 46 56 47 57 48 58 49 59 40 50
 50 60 51 61 52 62 53 63 54 64 55 65 56 66 57 67 58 68 59 69 50 60
 60 70 61 71 62 72 63 73 64 74 65 75 66 76 67 77 68 78 69 79 60 70
 70 80 71 81 72 82 73 83 74 84 75 85 76 86 77 87 78 88 79 89 70 80
 80 90 81 91 82 92 83 93 84 94 85 95 86 96 87 97 88 98 89 99 80 90
 90 100 91 101 92 102 93 103 94 104 95 105 96 106 97 107 98 108 99 109 90 100
 110 120 111 121 112 122 113 123 114 124 115 125 116 126 117 127 118 128 119 129 110 120
 120 130 121 131 122 132 123 133 124 134 125 135 126 136 127 137 128 138 129 139 120 130
 130 140 131 141 132 142 133 143 134 144 135 145 136 146 137 147 138 148 139 149 130 140
 140 150 141 151 142 152 143 153 144 154 145 155 146 156 147 157 148 158 149 159 140 150
 150 160 151 161 152 162 153 163 154 164 155 165 156 166 157 167 158 168 159 169 150 160
 160 170 161 171 162 172 163 173 164 174 165 175 166 176 167 177 168 178 169 179 160 170
 170 180 171 181 172 182 173 183 174 184 175 185 176 186 177 187 178 188 179 189 170 180
 180 190 181 191 182 192 183 193 184 194 185 195 186 196 187 197 188 198 189 199 180 190
 190 200 191 201 192 202 193 203 194 204 195 205 196 206 197 207 198 208 199 209 190 200
 200 210 201 211 202 212 203 213 204 214 205 215 206 216 207 217 208 218 209 219 200 210
 210 220 211 221 212 222 213 223 214 224 215 225 216 226 217 227 218 228 219 229 210 220
 220 230 221 231 222 232 223 233 224 234 225 235 226 236 227 237 228 238 229 239 220 230
 230 240 231 241 232 242 233 243 234 244 235 245 236 246 237 247 238 248 239 249 230 240
 240 250 241 251 242 252 243 253 244 254 245 255 246 256 247 257 248 258 249 259 240 250

            </DataArray>
            <DataArray type="Int32" Name="offsets" NumberOfComponents="1" format="ascii">
 22 44 66 88 110 132 154 176 198 220 242 264 286 308 330 352 374 396 418 440 462 484 506 528
            </DataArray>
            <DataArray type="UInt8"  Name="types" NumberOfComponents="1" format="ascii">
6 6 6 6 6 6 6 6 6 6 6 6 6 6 6 6 6 6 6 6 6 6 6 6
            </DataArray>
         </Cells>
         <CellData>
           <DataArray type="Float32" Name="combinedRootClassID" NumberOfComponents="1" format="ascii">
 -2.000e+000 -2.000e+000 -2.000e+000 -2.000e+000 -2.000e+000 -2.000e+000 -2.000e+000 -2.000e+000 -2.000e+000 -2.000e+000 -4.000e+000 -4.000e+000 -4.000e+000 -4.000e+000 -4.000e+000 -4.000e+000 -4.000e+000 -4.000e+000 -4.000e+000 -4.000e+000 -4.000e+000 -4.000e+000 -4.000e+000 -4.000e+000
           </DataArray>
           <DataArray type="Float32" Name="nitrate/Cmin" NumberOfComponents="1" format="ascii">
 1.000e-003 1.000e-003 1.000e-003 1.000e-003 1.000e-003 1.000e-003 1.000e-003 1.000e-003 1.000e-003 1.000e-003 1.000e-003 1.000e-003 1.000e-003 1.000e-003 1.000e-003 1.000e-003 1.000e-003 1.000e-003 1.000e-003 1.000e-003 1.000e-003 1.000e-003 1.000e-003 1.000e-003
           </DataArray>
           <DataArray type="Float32" Name="nitrate/Imax" NumberOfComponents="1" format="ascii">
 1.900e+000 1.900e+000 1.900e+000 1.900e+000 1.900e+000 1.900e+000 1.900e+000 1.900e+000 1.900e+000 1.900e+000 1.900e+000 1.900e+000 1.900e+000 1.900e+000 1.900e+000 1.900e+000 1.900e+000 1.900e+000 1.900e+000 1.900e+000 1.900e+000 1.900e+000 1.900e+000 1.900e+000
           </DataArray>
           <DataArray type="Float32" Name="nitrate/Km" NumberOfComponents="1" format="ascii">
 1.610e-002 1.610e-002 1.610e-002 1.610e-002 1.610e-002 1.610e-002 1.610e-002 1.610e-002 1.610e-002 1.610e-002 1.610e-002 1.610e-002 1.610e-002 1.610e-002 1.610e-002 1.610e-002 1.610e-002 1.610e-002 1.610e-002 1.610e-002 1.610e-002 1.610e-002 1.610e-002 1.610e-002
           </DataArray>
           <DataArray type="Float32" Name="nitrate/minimalNutrientConcentration" NumberOfComponents="1" format="ascii">
 6.000e+002 6.000e+002 6.000e+002 6.000e+002 6.000e+002 6.000e+002 6.000e+002 6.000e+002 6.000e+002 6.000e+002 6.000e+002 6.000e+002 6.000e+002 6.000e+002 6.000e+002 6.000e+002 6.000e+002 6.000e+002 6.000e+002 6.000e+002 6.000e+002 6.000e+002 6.000e+002 6.000e+002
           </DataArray>
           <DataArray type="Float32" Name="nitrate/nutrientConcentrationAtTheRootSurface" NumberOfComponents="1" format="ascii">
 1.105e+000 9.142e-001 7.374e-001 5.504e-001 4.598e-001 3.130e-001 2.054e-001 0.000e+000 0.000e+000 0.000e+000 1.105e+000 1.269e+000 1.428e+000 1.554e+000 1.723e+000 1.850e+000 1.964e+000 2.195e+000 2.402e+000 2.549e+000 2.724e+000 2.886e+000 2.984e+000 3.169e+000
           </DataArray>
           <DataArray type="Float32" Name="nitrate/optimalNutrientConcentration" NumberOfComponents="1" format="ascii">
 1.200e+003 1.200e+003 1.200e+003 1.200e+003 1.200e+003 1.200e+003 1.200e+003 1.200e+003 1.200e+003 1.200e+003 1.200e+003 1.200e+003 1.200e+003 1.200e+003 1.200e+003 1.200e+003 1.200e+003 1.200e+003 1.200e+003 1.200e+003 1.200e+003 1.200e+003 1.200e+003 1.200e+003
           </DataArray>
           <DataArray type="Float32" Name="nitrate/rootSegmentMinimalNutrientContent" NumberOfComponents="1" format="ascii">
 5.503e+000 5.022e+000 6.232e+000 4.331e+000 6.481e+000 6.459e+000 6.154e+000 6.281e+000 6.238e+000 1.089e+000 2.768e-001 2.734e-001 2.703e-001 2.674e-001 2.649e-001 2.626e-001 2.606e-001 2.588e-001 2.573e-001 2.561e-001 2.551e-001 2.544e-001 2.539e-001 8.457e-002
           </DataArray>
           <DataArray type="Float32" Name="nitrate/rootSegmentNutrientUptake" NumberOfComponents="1" format="ascii">
 0.000e+000 2.655e+000 2.210e+000 1.773e+000 1.481e+000 9.721e-001 3.904e-001 0.000e+000 0.000e+000 0.000e+000 0.000e+000 1.657e+000 1.503e+000 1.349e+000 1.196e+000 1.043e+000 8.907e-001 7.387e-001 5.944e-001 4.616e-001 3.404e-001 2.268e-001 1.134e-001 1.260e-002
           </DataArray>
           <DataArray type="Float32" Name="nitrate/rootSegmentOptimalNutrientContent" NumberOfComponents="1" format="ascii">
 1.101e+001 1.004e+001 1.246e+001 8.662e+000 1.296e+001 1.292e+001 1.231e+001 1.256e+001 1.248e+001 2.178e+000 5.535e-001 5.467e-001 5.405e-001 5.349e-001 5.298e-001 5.252e-001 5.212e-001 5.176e-001 5.147e-001 5.122e-001 5.102e-001 5.088e-001 5.079e-001 1.691e-001
           </DataArray>
           <DataArray type="Float32" Name="parentRootClassID" NumberOfComponents="1" format="ascii">
 -3.000e+000 -3.000e+000 -3.000e+000 -3.000e+000 -3.000e+000 -3.000e+000 -3.000e+000 -3.000e+000 -3.000e+000 -3.000e+000 -3.000e+000 -3.000e+000 -3.000e+000 -3.000e+000 -3.000e+000 -3.000e+000 -3.000e+000 -3.000e+000 -3.000e+000 -3.000e+000 -3.000e+000 -3.000e+000 -3.000e+000 -3.000e+000
           </DataArray>
           <DataArray type="Float32" Name="plantID" NumberOfComponents="1" format="ascii">
 5.000e+000 5.000e+000 5.000e+000 5.000e+000 5.000e+000 5.000e+000 5.000e+000 5.000e+000 5.000e+000 5.000e+000 5.000e+000 5.000e+000 5.000e+000 5.000e+000 5.000e+000 5.000e+000 5.000e+000 5.000e+000 5.000e+000 5.000e+000 5.000e+000 5.000e+000 5.000e+000 5.000e+000
           </DataArray>
           <DataArray type="Float32" Name="plantTypeID" NumberOfComponents="1" format="ascii">
 0.000e+000 0.000e+000 0.000e+000 0.000e+000 0.000e+000 0.000e+000 0.000e+000 0.000e+000 0.000e+000 0.000e+000 0.000e+000 0.000e+000 0.000e+000 0.000e+000 0.000e+000 0.000e+000 0.000e+000 0.000e+000 0.000e+000 0.000e+000 0.000e+000 0.000e+000 0.000e+000 0.000e+000
           </DataArray>
           <DataArray type="Float32" Name="rootCircumference" NumberOfComponents="1" format="ascii">
 1.279e+000 1.273e+000 1.271e+000 1.268e+000 1.267e+000 1.265e+000 1.263e+000 1.261e+000 1.259e+000 1.257e+000 2.953e-001 2.935e-001 2.918e-001 2.903e-001 2.889e-001 2.877e-001 2.865e-001 2.856e-001 2.848e-001 2.841e-001 2.835e-001 2.831e-001 2.829e-001 2.828e-001
           </DataArray>
           <DataArray type="Float32" Name="rootClassID" NumberOfComponents="1" format="ascii">
 -2.000e+000 -2.000e+000 -2.000e+000 -2.000e+000 -2.000e+000 -2.000e+000 -2.000e+000 -2.000e+000 -2.000e+000 -2.000e+000 -4.000e+000 -4.000e+000 -4.000e+000 -4.000e+000 -4.000e+000 -4.000e+000 -4.000e+000 -4.000e+000 -4.000e+000 -4.000e+000 -4.000e+000 -4.000e+000 -4.000e+000 -4.000e+000
           </DataArray>
           <DataArray type="Float32" Name="rootDiameter" NumberOfComponents="1" format="ascii">
 4.070e-001 4.054e-001 4.045e-001 4.037e-001 4.032e-001 4.025e-001 4.019e-001 4.014e-001 4.009e-001 4.001e-001 9.400e-002 9.342e-002 9.289e-002 9.240e-002 9.196e-002 9.156e-002 9.121e-002 9.090e-002 9.064e-002 9.042e-002 9.025e-002 9.012e-002 9.004e-002 9.000e-002
           </DataArray>
           <DataArray type="Float32" Name="rootHairDensity" NumberOfComponents="1" format="ascii">
 0.000e+000 0.000e+000 0.000e+000 0.000e+000 0.000e+000 0.000e+000 0.000e+000 0.000e+000 0.000e+000 0.000e+000 2.000e+003 2.000e+003 2.000e+003 2.000e+003 2.000e+003 2.000e+003 2.000e+003 2.000e+003 2.000e+003 2.000e+003 2.000e+003 2.000e+003 2.000e+003 2.000e+003
           </DataArray>
           <DataArray type="Float32" Name="rootHairDiameter" NumberOfComponents="1" format="ascii">
 5.000e-004 5.000e-004 5.000e-004 5.000e-004 5.000e-004 5.000e-004 5.000e-004 5.000e-004 5.000e-004 5.000e-004 5.000e-004 5.000e-004 5.000e-004 5.000e-004 5.000e-004 5.000e-004 5.000e-004 5.000e-004 5.000e-004 5.000e-004 5.000e-004 5.000e-004 5.000e-004 5.000e-004
           </DataArray>
           <DataArray type="Float32" Name="rootHairLength" NumberOfComponents="1" format="ascii">
 3.000e-002 3.000e-002 3.000e-002 3.000e-002 3.000e-002 3.000e-002 3.000e-002 2.400e-002 1.200e-002 0.000e+000 3.000e-002 3.000e-002 3.000e-002 3.000e-002 3.000e-002 3.000e-002 3.000e-002 2.700e-002 1.800e-002 9.000e-003 0.000e+000 0.000e+000 0.000e+000 0.000e+000
           </DataArray>
           <DataArray type="Float32" Name="rootHairSurfaceArea" NumberOfComponents="1" format="ascii">
 0.000e+000 0.000e+000 0.000e+000 0.000e+000 0.000e+000 0.000e+000 0.000e+000 0.000e+000 0.000e+000 0.000e+000 9.425e-002 9.425e-002 9.425e-002 9.425e-002 9.425e-002 9.425e-002 9.425e-002 8.482e-002 5.655e-002 2.827e-002 0.000e+000 0.000e+000 0.000e+000 0.000e+000
           </DataArray>
           <DataArray type="Float32" Name="rootLength2Base" NumberOfComponents="1" format="ascii">
 0.000e+000 7.500e-001 1.440e+000 2.300e+000 2.900e+000 3.800e+000 4.700e+000 5.560e+000 6.440e+000 7.316e+000 0.000e+000 7.071e-001 1.414e+000 2.121e+000 2.828e+000 3.535e+000 4.243e+000 4.950e+000 5.657e+000 6.364e+000 7.071e+000 7.778e+000 8.485e+000 9.192e+000
           </DataArray>
           <DataArray type="Float32" Name="rootPotentialSecondaryGrowth" NumberOfComponents="1" format="ascii">
 4.070e-001 4.054e-001 4.045e-001 4.037e-001 4.032e-001 4.025e-001 4.019e-001 4.014e-001 4.009e-001 4.001e-001 9.400e-002 9.342e-002 9.289e-002 9.240e-002 9.196e-002 9.156e-002 9.121e-002 9.090e-002 9.064e-002 9.042e-002 9.025e-002 9.012e-002 9.004e-002 9.000e-002
           </DataArray>
           <DataArray type="Float32" Name="rootSegmentAge" NumberOfComponents="1" format="ascii">
 4.000e+000 3.500e+000 3.200e+000 2.900e+000 2.700e+000 2.400e+000 2.100e+000 1.800e+000 1.400e+000 5.000e-001 4.000e+000 3.700e+000 3.400e+000 3.100e+000 2.800e+000 2.500e+000 2.200e+000 1.900e+000 1.600e+000 1.300e+000 1.000e+000 7.000e-001 4.000e-001 1.000e-001
           </DataArray>
           <DataArray type="Float32" Name="rootSegmentCarbonCostOfExudates" NumberOfComponents="1" format="ascii">
 0.000e+000 0.000e+000 0.000e+000 0.000e+000 0.000e+000 0.000e+000 0.000e+000 0.000e+000 0.000e+000 0.000e+000 4.469e-005 4.143e-005 3.815e-005 3.454e-005 3.106e-005 2.752e-005 2.422e-005 2.086e-005 1.770e-005 1.425e-005 1.081e-005 7.083e-006 3.355e-006 2.239e-007
           </DataArray>
           <DataArray type="Float32" Name="rootSegmentDryWeight" NumberOfComponents="1" format="ascii">
 9.172e-003 8.370e-003 1.039e-002 7.218e-003 1.080e-002 1.077e-002 1.026e-002 1.047e-002 1.040e-002 1.815e-003 4.613e-004 4.556e-004 4.504e-004 4.457e-004 4.415e-004 4.377e-004 4.343e-004 4.314e-004 4.289e-004 4.268e-004 4.252e-004 4.240e-004 4.232e-004 1.410e-004
           </DataArray>
           <DataArray type="Float32" Name="rootSegmentLength" NumberOfComponents="1" format="ascii">
 7.500e-001 6.900e-001 8.600e-001 6.000e-001 9.000e-001 9.000e-001 8.600e-001 8.800e-001 8.764e-001 1.536e-001 7.071e-001 7.071e-001 7.071e-001 7.071e-001 7.071e-001 7.071e-001 7.071e-001 7.071e-001 7.071e-001 7.071e-001 7.071e-001 7.071e-001 7.071e-001 2.357e-001
           </DataArray>
           <DataArray type="Float32" Name="rootSegmentLengthDuration" NumberOfComponents="1" format="ascii">
 2.795e+000 2.311e+000 2.625e+000 1.680e+000 2.300e+000 2.030e+000 1.685e+000 1.419e+000 9.335e-001 4.388e-002 2.726e+000 2.514e+000 2.302e+000 2.090e+000 1.878e+000 1.666e+000 1.453e+000 1.241e+000 1.029e+000 8.171e-001 6.050e-001 3.928e-001 1.807e-001 2.357e-002
           </DataArray>
           <DataArray type="Float32" Name="rootSegmentRespiration" NumberOfComponents="1" format="ascii">
 3.669e-004 3.348e-004 4.155e-004 2.887e-004 4.321e-004 4.306e-004 4.103e-004 4.711e-004 5.718e-004 1.407e-004 1.845e-005 1.822e-005 1.802e-005 1.783e-005 1.766e-005 1.751e-005 1.737e-005 1.833e-005 2.144e-005 2.454e-005 2.764e-005 3.074e-005 3.386e-005 1.233e-005
           </DataArray>
           <DataArray type="Float32" Name="rootSegmentSecondaryPotentialCarbonSinkForGrowth" NumberOfComponents="1" format="ascii">
 1.239e-004 9.071e-005 9.363e-005 5.498e-005 6.841e-005 5.323e-005 3.820e-005 2.641e-005 1.039e-005 1.618e-007 1.603e-005 1.359e-005 1.136e-005 9.334e-006 7.515e-006 5.899e-006 4.482e-006 3.262e-006 2.239e-006 1.410e-006 7.729e-007 3.280e-007 7.402e-008 1.175e-009
           </DataArray>
           <DataArray type="Float32" Name="rootSegmentSurfaceArea" NumberOfComponents="1" format="ascii">
 9.590e-001 8.787e-001 1.093e+000 7.609e-001 1.140e+000 1.138e+000 1.086e+000 1.110e+000 1.104e+000 1.930e-001 2.088e-001 2.075e-001 2.063e-001 2.053e-001 2.043e-001 2.034e-001 2.026e-001 2.019e-001 2.013e-001 2.009e-001 2.005e-001 2.002e-001 2.000e-001 6.664e-002
           </DataArray>
           <DataArray type="Float32" Name="rootSegmentVolume" NumberOfComponents="1" format="ascii">
 9.758e-002 8.905e-002 1.105e-001 7.679e-002 1.149e-001 1.145e-001 1.091e-001 1.114e-001 1.106e-001 1.931e-002 4.907e-003 4.847e-003 4.792e-003 4.742e-003 4.696e-003 4.656e-003 4.620e-003 4.589e-003 4.563e-003 4.541e-003 4.523e-003 4.511e-003 4.502e-003 1.500e-003
           </DataArray>
           <DataArray type="Float32" Name="rootSegmentWaterUptake" NumberOfComponents="1" format="ascii">
 2.837e-002 2.610e-002 3.253e-002 2.269e-002 3.404e-002 3.404e-002 3.251e-002 0.000e+000 0.000e+000 0.000e+000 2.675e-002 2.675e-002 2.675e-002 2.675e-002 2.675e-002 2.675e-002 2.675e-002 2.661e-002 2.592e-002 2.400e-002 2.064e-002 1.533e-002 7.959e-003 5.638e-004
           </DataArray>
           <DataArray type="Float32" Name="spatialRootDensity" NumberOfComponents="1" format="ascii">
 3.376e-001 1.688e-001 0.000e+000 0.000e+000 0.000e+000 0.000e+000 0.000e+000 0.000e+000 0.000e+000 0.000e+000 3.438e-001 1.790e-001 0.000e+000 0.000e+000 0.000e+000 0.000e+000 0.000e+000 0.000e+000 0.000e+000 0.000e+000 0.000e+000 0.000e+000 0.000e+000 0.000e+000
           </DataArray>
           <DataArray type="Float32" Name="volumetricWaterContentAtTheRootSurface" NumberOfComponents="1" format="ascii">
 2.160e-001 2.159e-001 2.157e-001 2.155e-001 2.154e-001 2.152e-001 2.151e-001 0.000e+000 0.000e+000 0.000e+000 2.160e-001 2.161e-001 2.163e-001 2.164e-001 2.166e-001 2.167e-001 2.168e-001 2.170e-001 2.172e-001 2.173e-001 2.175e-001 2.176e-001 2.177e-001 2.179e-001
           </DataArray>
         </CellData>
      </Piece>
   </UnstructuredGrid>
</VTKFile>
