<?xml version="1.0"?>
<VTKFile type="UnstructuredGrid" version="0.1" byte_order="LittleEndian">
   <UnstructuredGrid>
      <Piece NumberOfPoints="8580" NumberOfCells="589">
         <Points>
            <DataArray type="Float32" Name="Position" NumberOfComponents="3" format="ascii">
-0.034	-5.072	0.137
-0.034	-5.064	0.142
-0.035	-5.055	0.141
-0.036	-5.048	0.135
-0.037	-5.046	0.126
-0.038	-5.049	0.118
-0.037	-5.057	0.113
-0.036	-5.066	0.113
-0.035	-5.073	0.119
-0.035	-5.075	0.128
-0.784	-5.135	0.197
-0.784	-5.127	0.202
-0.785	-5.118	0.201
-0.786	-5.110	0.195
-0.787	-5.108	0.186
-0.787	-5.112	0.178
-0.787	-5.120	0.173
-0.786	-5.129	0.174
-0.785	-5.136	0.179
-0.784	-5.138	0.188
-0.052	-5.165	0.243
-0.047	-5.157	0.244
-0.049	-5.148	0.245
-0.055	-5.141	0.244
-0.064	-5.139	0.242
-0.072	-5.143	0.240
-0.076	-5.151	0.239
-0.075	-5.160	0.238
-0.069	-5.167	0.239
-0.060	-5.168	0.241
-0.223	-5.233	1.096
-0.219	-5.225	1.099
-0.220	-5.216	1.101
-0.226	-5.209	1.100
-0.235	-5.207	1.097
-0.243	-5.211	1.094
-0.247	-5.218	1.091
-0.245	-5.227	1.089
-0.239	-5.234	1.089
-0.230	-5.236	1.092
-0.255	-5.258	1.156
-0.252	-5.251	1.161
-0.254	-5.243	1.164
-0.260	-5.236	1.163
-0.269	-5.233	1.160
-0.276	-5.237	1.155
-0.279	-5.244	1.150
-0.277	-5.252	1.147
-0.271	-5.259	1.148
-0.262	-5.262	1.151
-0.151	-6.218	1.085
-0.152	-6.210	1.090
-0.153	-6.201	1.089
-0.154	-6.194	1.082
-0.154	-6.192	1.073
-0.153	-6.196	1.065
-0.152	-6.204	1.060
-0.151	-6.213	1.061
-0.150	-6.220	1.068
-0.150	-6.222	1.077
-0.725	-6.282	1.055
-0.726	-6.274	1.060
-0.727	-6.265	1.058
-0.727	-6.259	1.052
-0.727	-6.257	1.043
-0.726	-6.261	1.035
-0.725	-6.269	1.030
-0.724	-6.278	1.031
-0.723	-6.285	1.038
-0.724	-6.286	1.047
-0.155	-6.326	1.140
-0.153	-6.322	1.148
-0.153	-6.323	1.157
-0.154	-6.329	1.164
-0.156	-6.337	1.166
-0.159	-6.345	1.163
-0.161	-6.350	1.155
-0.161	-6.349	1.146
-0.160	-6.343	1.138
-0.158	-6.335	1.136
0.393	-6.483	1.106
0.395	-6.478	1.114
0.395	-6.479	1.123
0.394	-6.485	1.130
0.392	-6.493	1.132
0.389	-6.502	1.129
0.387	-6.506	1.121
0.387	-6.506	1.112
0.388	-6.500	1.105
0.390	-6.491	1.103
-0.161	-6.456	1.214
-0.152	-6.458	1.217
-0.147	-6.463	1.222
-0.147	-6.470	1.229
-0.153	-6.475	1.234
-0.161	-6.477	1.236
-0.170	-6.475	1.234
-0.176	-6.470	1.228
-0.176	-6.463	1.222
-0.170	-6.458	1.216
-0.158	-6.832	0.841
-0.149	-6.834	0.844
-0.144	-6.840	0.849
-0.144	-6.846	0.855
-0.149	-6.852	0.861
-0.158	-6.854	0.863
-0.167	-6.852	0.861
-0.172	-6.846	0.855
-0.172	-6.840	0.849
-0.167	-6.834	0.843
-0.158	-6.593	1.286
-0.160	-6.585	1.291
-0.164	-6.583	1.299
-0.169	-6.586	1.306
-0.172	-6.593	1.310
-0.173	-6.603	1.310
-0.170	-6.610	1.305
-0.166	-6.613	1.297
-0.162	-6.609	1.289
-0.159	-6.602	1.285
0.211	-6.627	1.491
0.208	-6.620	1.496
0.204	-6.617	1.504
0.200	-6.620	1.512
0.197	-6.628	1.516
0.196	-6.637	1.515
0.198	-6.644	1.510
0.203	-6.647	1.502
0.207	-6.644	1.495
0.210	-6.636	1.491
-0.168	-6.723	1.352
-0.168	-6.718	1.360
-0.169	-6.719	1.369
-0.170	-6.724	1.376
-0.171	-6.733	1.378
-0.172	-6.742	1.375
-0.172	-6.747	1.367
-0.171	-6.746	1.358
-0.170	-6.740	1.351
-0.169	-6.731	1.348
0.324	-6.780	1.387
0.324	-6.775	1.395
0.323	-6.776	1.404
0.322	-6.782	1.411
0.321	-6.790	1.414
0.320	-6.799	1.410
0.320	-6.804	1.402
0.321	-6.803	1.393
0.322	-6.797	1.386
0.323	-6.789	1.384
-0.173	-6.880	1.436
-0.175	-6.872	1.442
-0.177	-6.863	1.442
-0.178	-6.856	1.436
-0.179	-6.853	1.427
-0.179	-6.856	1.419
-0.177	-6.863	1.413
-0.175	-6.872	1.413
-0.173	-6.880	1.419
-0.172	-6.882	1.428
-0.548	-6.970	1.440
-0.550	-6.962	1.446
-0.552	-6.953	1.446
-0.554	-6.946	1.440
-0.554	-6.943	1.432
-0.554	-6.946	1.423
-0.552	-6.953	1.417
-0.550	-6.963	1.417
-0.548	-6.970	1.423
-0.547	-6.973	1.432
-0.180	-7.015	1.500
-0.182	-7.008	1.506
-0.184	-6.999	1.506
-0.186	-6.991	1.501
-0.187	-6.988	1.492
-0.187	-6.991	1.483
-0.185	-6.998	1.478
-0.183	-7.007	1.478
-0.181	-7.015	1.483
-0.180	-7.018	1.492
-0.585	-7.116	1.518
-0.587	-7.109	1.523
-0.589	-7.100	1.524
-0.591	-7.093	1.518
-0.592	-7.090	1.510
-0.592	-7.092	1.501
-0.590	-7.100	1.495
-0.588	-7.109	1.495
-0.586	-7.116	1.500
-0.585	-7.119	1.509
-0.179	-7.148	1.555
-0.175	-7.140	1.556
-0.177	-7.131	1.558
-0.183	-7.125	1.558
-0.193	-7.124	1.558
-0.201	-7.128	1.557
-0.205	-7.137	1.556
-0.203	-7.146	1.555
-0.196	-7.152	1.555
-0.187	-7.153	1.555
-0.186	-7.198	1.958
-0.182	-7.189	1.959
-0.184	-7.180	1.960
-0.191	-7.174	1.961
-0.200	-7.173	1.961
-0.208	-7.178	1.960
-0.212	-7.186	1.959
-0.210	-7.195	1.958
-0.203	-7.201	1.957
-0.194	-7.202	1.957
-0.187	-7.268	1.609
-0.189	-7.261	1.615
-0.192	-7.259	1.623
-0.196	-7.262	1.631
-0.200	-7.270	1.635
-0.201	-7.279	1.633
-0.200	-7.286	1.627
-0.196	-7.288	1.619
-0.192	-7.285	1.611
-0.189	-7.277	1.608
0.132	-7.338	1.755
0.130	-7.331	1.761
0.127	-7.329	1.769
0.123	-7.332	1.777
0.119	-7.340	1.781
0.118	-7.349	1.780
0.119	-7.356	1.774
0.122	-7.358	1.765
0.127	-7.355	1.758
0.130	-7.347	1.754
-0.199	-7.397	1.677
-0.190	-7.398	1.678
-0.183	-7.403	1.682
-0.181	-7.410	1.687
-0.185	-7.417	1.692
-0.193	-7.420	1.695
-0.203	-7.419	1.694
-0.209	-7.414	1.691
-0.211	-7.407	1.685
-0.207	-7.400	1.680
-0.201	-7.602	1.412
-0.191	-7.603	1.413
-0.185	-7.608	1.417
-0.183	-7.615	1.422
-0.187	-7.622	1.427
-0.195	-7.625	1.430
-0.204	-7.624	1.429
-0.211	-7.619	1.426
-0.213	-7.612	1.420
-0.209	-7.605	1.415
-0.076	-5.251	0.336
-0.077	-5.244	0.342
-0.080	-5.243	0.351
-0.083	-5.247	0.359
-0.086	-5.255	0.362
-0.087	-5.264	0.360
-0.087	-5.270	0.354
-0.084	-5.272	0.345
-0.080	-5.268	0.337
-0.077	-5.260	0.334
0.697	-5.413	0.608
0.696	-5.406	0.615
0.693	-5.405	0.624
0.689	-5.409	0.631
0.686	-5.417	0.635
0.685	-5.426	0.633
0.686	-5.433	0.626
0.689	-5.434	0.617
0.692	-5.430	0.610
0.695	-5.422	0.606
-0.197	-7.533	1.741
-0.188	-7.536	1.743
-0.183	-7.541	1.749
-0.183	-7.547	1.755
-0.189	-7.552	1.761
-0.198	-7.554	1.762
-0.207	-7.552	1.760
-0.212	-7.547	1.754
-0.211	-7.540	1.748
-0.206	-7.535	1.742
-0.194	-7.797	1.490
-0.186	-7.799	1.492
-0.180	-7.804	1.498
-0.181	-7.811	1.504
-0.186	-7.816	1.510
-0.195	-7.818	1.511
-0.204	-7.816	1.509
-0.209	-7.810	1.503
-0.209	-7.804	1.497
-0.203	-7.799	1.491
-0.203	-7.669	1.805
-0.194	-7.668	1.806
-0.187	-7.673	1.809
-0.184	-7.680	1.813
-0.187	-7.688	1.818
-0.194	-7.693	1.820
-0.204	-7.693	1.820
-0.211	-7.688	1.817
-0.214	-7.681	1.812
-0.211	-7.673	1.808
-0.189	-7.848	1.512
-0.180	-7.848	1.513
-0.173	-7.853	1.516
-0.170	-7.860	1.520
-0.173	-7.868	1.525
-0.180	-7.872	1.527
-0.190	-7.872	1.527
-0.197	-7.868	1.524
-0.200	-7.860	1.519
-0.197	-7.853	1.515
-0.202	-7.807	1.863
-0.193	-7.809	1.864
-0.187	-7.814	1.869
-0.186	-7.821	1.875
-0.191	-7.827	1.881
-0.199	-7.829	1.883
-0.208	-7.827	1.882
-0.214	-7.821	1.878
-0.215	-7.815	1.872
-0.210	-7.809	1.866
-0.228	-7.997	1.686
-0.220	-7.997	1.690
-0.211	-7.997	1.688
-0.204	-7.997	1.682
-0.203	-7.997	1.673
-0.207	-7.997	1.664
-0.215	-7.997	1.660
-0.224	-7.997	1.662
-0.231	-7.997	1.668
-0.232	-7.997	1.677
-0.197	-7.969	1.938
-0.199	-7.962	1.944
-0.202	-7.953	1.945
-0.204	-7.946	1.940
-0.205	-7.942	1.931
-0.205	-7.945	1.922
-0.203	-7.951	1.916
-0.200	-7.960	1.916
-0.197	-7.968	1.921
-0.196	-7.971	1.929
-0.402	-8.037	1.941
-0.404	-8.030	1.947
-0.407	-8.021	1.947
-0.409	-8.014	1.942
-0.410	-8.011	1.934
-0.410	-8.013	1.925
-0.408	-8.019	1.919
-0.405	-8.028	1.918
-0.402	-8.036	1.923
-0.401	-8.039	1.932
-0.195	-8.108	1.993
-0.196	-8.101	2.000
-0.198	-8.092	2.001
-0.202	-8.085	1.997
-0.205	-8.081	1.989
-0.207	-8.083	1.980
-0.206	-8.090	1.974
-0.204	-8.099	1.972
-0.200	-8.106	1.976
-0.197	-8.110	1.984
-0.453	-8.190	2.058
-0.453	-8.183	2.064
-0.456	-8.174	2.066
-0.459	-8.167	2.062
-0.463	-8.163	2.054
-0.464	-8.166	2.045
-0.464	-8.172	2.038
-0.461	-8.181	2.037
-0.458	-8.189	2.041
-0.455	-8.192	2.049
-0.188	-8.245	2.044
-0.184	-8.237	2.045
-0.186	-8.228	2.045
-0.192	-8.221	2.045
-0.201	-8.219	2.044
-0.209	-8.224	2.043
-0.214	-8.232	2.043
-0.212	-8.241	2.042
-0.206	-8.248	2.043
-0.197	-8.249	2.043
-0.207	-8.256	2.284
-0.202	-8.248	2.285
-0.204	-8.238	2.285
-0.210	-8.232	2.285
-0.219	-8.230	2.284
-0.228	-8.234	2.284
-0.232	-8.243	2.283
-0.230	-8.252	2.283
-0.224	-8.258	2.283
-0.215	-8.260	2.283
-0.194	-8.385	2.110
-0.194	-8.377	2.115
-0.194	-8.368	2.115
-0.196	-8.360	2.109
-0.198	-8.358	2.100
-0.199	-8.361	2.092
-0.199	-8.369	2.087
-0.199	-8.378	2.087
-0.197	-8.386	2.093
-0.195	-8.388	2.102
-0.418	-8.398	2.152
-0.418	-8.390	2.157
-0.418	-8.381	2.156
-0.420	-8.374	2.150
-0.421	-8.371	2.142
-0.423	-8.375	2.133
-0.423	-8.383	2.128
-0.423	-8.392	2.129
-0.421	-8.399	2.134
-0.419	-8.401	2.143
-0.193	-8.503	2.145
-0.185	-8.507	2.147
-0.180	-8.512	2.153
-0.182	-8.518	2.160
-0.188	-8.522	2.166
-0.197	-8.522	2.168
-0.206	-8.518	2.165
-0.210	-8.513	2.159
-0.208	-8.507	2.152
-0.202	-8.503	2.146
-0.223	-8.686	1.991
-0.215	-8.690	1.993
-0.211	-8.695	1.999
-0.212	-8.701	2.007
-0.219	-8.705	2.012
-0.228	-8.705	2.014
-0.236	-8.701	2.012
-0.240	-8.696	2.006
-0.239	-8.690	1.998
-0.232	-8.686	1.993
-0.192	-8.643	2.199
-0.191	-8.638	2.207
-0.191	-8.639	2.216
-0.192	-8.645	2.223
-0.194	-8.653	2.225
-0.196	-8.662	2.222
-0.197	-8.666	2.214
-0.197	-8.666	2.205
-0.196	-8.660	2.198
-0.194	-8.651	2.196
-0.063	-8.670	2.197
-0.062	-8.665	2.205
-0.062	-8.666	2.214
-0.063	-8.672	2.221
-0.065	-8.681	2.224
-0.067	-8.689	2.220
-0.068	-8.694	2.212
-0.068	-8.693	2.203
-0.067	-8.687	2.196
-0.065	-8.678	2.194
-0.196	-8.804	2.271
-0.199	-8.797	2.275
-0.202	-8.788	2.274
-0.202	-8.781	2.268
-0.201	-8.779	2.259
-0.199	-8.782	2.251
-0.195	-8.790	2.247
-0.193	-8.799	2.248
-0.192	-8.805	2.254
-0.193	-8.808	2.263
-0.323	-8.841	2.245
-0.326	-8.834	2.250
-0.328	-8.825	2.249
-0.329	-8.818	2.243
-0.328	-8.816	2.234
-0.325	-8.819	2.225
-0.322	-8.826	2.221
-0.320	-8.835	2.222
-0.319	-8.842	2.228
-0.320	-8.845	2.237
-0.092	-5.361	0.436
-0.091	-5.355	0.443
-0.092	-5.354	0.452
-0.096	-5.358	0.460
-0.100	-5.366	0.463
-0.103	-5.374	0.460
-0.104	-5.380	0.453
-0.103	-5.381	0.444
-0.099	-5.377	0.437
-0.095	-5.370	0.433
0.707	-5.720	0.606
0.709	-5.714	0.613
0.707	-5.713	0.622
0.703	-5.716	0.629
0.698	-5.723	0.633
0.694	-5.731	0.630
0.693	-5.737	0.623
0.694	-5.739	0.614
[...]
         <CellData>
           <DataArray type="Float32" Name="combinedRootClassID" NumberOfComponents="1" format="ascii">
 -1.300e+001 -1.300e+001 -1.300e+001 -1.300e+001 -1.300e+001 -1.300e+001 -1.300e+001 -1.300e+001 -1.300e+001 -1.300e+001 -1.300e+001 -1.300e+001 -1.300e+001 -1.300e+001 -1.300e+001 -1.300e+001 -1.300e+001 -1.300e+001 -1.300e+001 -1.300e+001 -1.300e+001 -1.300e+001 -1.300e+001 -1.300e+001 -1.300e+001 -1.300e+001 -1.300e+001 -1.300e+001 -1.300e+001 -1.300e+001 -1.300e+001 -1.300e+001 -1.300e+001 -1.300e+001 -1.300e+001 -1.300e+001 -1.300e+001 -1.300e+001 -5.000e+000 -5.000e+000 -5.000e+000 -5.000e+000 -5.000e+000 -5.000e+000 -5.000e+000 -5.000e+000 -5.000e+000 -5.000e+000 -5.000e+000 -5.000e+000 -5.000e+000 -5.000e+000 -5.000e+000 -5.000e+000 -5.000e+000 -5.000e+000 -1.300e+001 -1.300e+001 -1.300e+001 -1.300e+001 -1.300e+001 -1.300e+001 -1.300e+001 -1.300e+001 -1.300e+001 -1.300e+001 -1.300e+001 -1.300e+001 -1.300e+001 -1.300e+001 -1.300e+001 -1.300e+001 -1.300e+001 -1.300e+001 -1.300e+001 -1.300e+001 -1.300e+001 -1.300e+001 -1.300e+001 -1.300e+001 -1.300e+001 -1.300e+001 -1.300e+001 -1.300e+001 -1.300e+001 -1.300e+001 -1.300e+001 -1.300e+001 -1.300e+001 -1.300e+001 -1.300e+001 -1.300e+001 -1.300e+001 -5.000e+000 -5.000e+000 -5.000e+000 -5.000e+000 -5.000e+000 -5.000e+000 -5.000e+000 -5.000e+000 -5.000e+000 -5.000e+000 -5.000e+000 -5.000e+000 -5.000e+000 -5.000e+000 -5.000e+000 -5.000e+000 -5.000e+000 -5.000e+000 -1.300e+001 -1.300e+001 -1.300e+001 -1.300e+001 -1.300e+001 -1.300e+001 -1.300e+001 -1.300e+001 -1.300e+001 -1.300e+001 -1.300e+001 -1.300e+001 -1.300e+001 -1.300e+001 -1.300e+001 -1.300e+001 -1.300e+001 -1.300e+001 -1.300e+001 -1.300e+001 -1.300e+001 -1.300e+001 -1.300e+001 -1.300e+001 -1.300e+001 -1.300e+001 -1.300e+001 -1.300e+001 -1.300e+001 -1.300e+001 -1.300e+001 -1.300e+001 -1.300e+001 -1.300e+001 -1.300e+001 -1.300e+001 -5.000e+000 -5.000e+000 -5.000e+000 -5.000e+000 -5.000e+000 -5.000e+000 -5.000e+000 -5.000e+000 -5.000e+000 -5.000e+000 -5.000e+000 -5.000e+000 -5.000e+000 -5.000e+000 -5.000e+000 -5.000e+000 -5.000e+000 -5.000e+000 -1.300e+001 -1.300e+001 -1.300e+001 -1.300e+001 -1.300e+001 -1.300e+001 -1.300e+001 -1.300e+001 -1.300e+001 -1.300e+001 -1.300e+001 -1.300e+001 -1.300e+001 -1.300e+001 -1.300e+001 -1.300e+001 -1.300e+001 -1.300e+001 -1.300e+001 -1.300e+001 -1.300e+001 -1.300e+001 -1.300e+001 -1.300e+001 -1.300e+001 -1.300e+001 -1.300e+001 -1.300e+001 -1.300e+001 -1.300e+001 -1.300e+001 -1.300e+001 -1.300e+001 -1.300e+001 -1.300e+001 -1.300e+001 -1.300e+001 -5.000e+000 -5.000e+000 -5.000e+000 -5.000e+000 -5.000e+000 -5.000e+000 -5.000e+000 -5.000e+000 -5.000e+000 -5.000e+000 -5.000e+000 -5.000e+000 -5.000e+000 -5.000e+000 -5.000e+000 -5.000e+000 -5.000e+000 -5.000e+000 -1.100e+001 -1.100e+001 -1.100e+001 -1.100e+001 -1.100e+001 -1.100e+001 -1.100e+001 -1.100e+001 -1.100e+001 -1.100e+001 -1.100e+001 -1.100e+001 -1.100e+001 -1.100e+001 -1.100e+001 -1.100e+001 -1.100e+001 -1.100e+001 -1.100e+001 -1.100e+001 -1.100e+001 -1.100e+001 -1.100e+001 -1.100e+001 -1.100e+001 -1.100e+001 -1.100e+001 -1.100e+001 -2.000e+000 -2.000e+000 -2.000e+000 -2.000e+000 -2.000e+000 -2.000e+000 -2.000e+000 -2.000e+000 -2.000e+000 -2.000e+000 -7.000e+000 -7.000e+000 -7.000e+000 -7.000e+000 -7.000e+000 -7.000e+000 -7.000e+000 -7.000e+000 -7.000e+000 -7.000e+000 -7.000e+000 -7.000e+000 -7.000e+000 -7.000e+000 -7.000e+000 -7.000e+000 -7.000e+000 -7.000e+000 -7.000e+000 -7.000e+000 -7.000e+000 -7.000e+000 -7.000e+000 -7.000e+000 -7.000e+000 -7.000e+000 -7.000e+000 -7.000e+000 -7.000e+000 -7.000e+000 -7.000e+000 -7.000e+000 -7.000e+000 -7.000e+000 -7.000e+000 -7.000e+000 -7.000e+000 -7.000e+000 -7.000e+000 -7.000e+000 -7.000e+000 -7.000e+000 -7.000e+000 -7.000e+000 -7.000e+000 -7.000e+000 -7.000e+000 -7.000e+000 -7.000e+000 -7.000e+000 -7.000e+000 -7.000e+000 -7.000e+000 -7.000e+000 -7.000e+000 -7.000e+000 -7.000e+000 -7.000e+000 -7.000e+000 -7.000e+000 -7.000e+000 -7.000e+000 -7.000e+000 -7.000e+000 -7.000e+000 -7.000e+000 -7.000e+000 -7.000e+000 -7.000e+000 -7.000e+000 -7.000e+000 -7.000e+000 -7.000e+000 -7.000e+000 -7.000e+000 -7.000e+000 -7.000e+000 -7.000e+000 -7.000e+000 -7.000e+000 -7.000e+000 -7.000e+000 -7.000e+000 -7.000e+000 -7.000e+000 -7.000e+000 -7.000e+000 -7.000e+000 -7.000e+000 -7.000e+000 -7.000e+000 -7.000e+000 -7.000e+000 -7.000e+000 -7.000e+000 -7.000e+000 -7.000e+000 -7.000e+000 -7.000e+000 -7.000e+000 -7.000e+000 -7.000e+000 -7.000e+000 -7.000e+000 -7.000e+000 -7.000e+000 -7.000e+000 -7.000e+000 -7.000e+000 -7.000e+000 -7.000e+000 -7.000e+000 -7.000e+000 -7.000e+000 -7.000e+000 -7.000e+000 -7.000e+000 -7.000e+000 -7.000e+000 -7.000e+000 -7.000e+000 -7.000e+000 -7.000e+000 -7.000e+000 -7.000e+000 -7.000e+000 -7.000e+000 -7.000e+000 -7.000e+000 -7.000e+000 -7.000e+000 -7.000e+000 -7.000e+000 -7.000e+000 -7.000e+000 -7.000e+000 -7.000e+000 -7.000e+000 -7.000e+000 -7.000e+000 -7.000e+000 -7.000e+000 -7.000e+000 -7.000e+000 -7.000e+000 -7.000e+000 -7.000e+000 -7.000e+000 -7.000e+000 -7.000e+000 -7.000e+000 -7.000e+000 -7.000e+000 -7.000e+000 -7.000e+000 -7.000e+000 -7.000e+000 -7.000e+000 -7.000e+000 -7.000e+000 -7.000e+000 -7.000e+000 -7.000e+000 -7.000e+000 -7.000e+000 -7.000e+000 -7.000e+000 -7.000e+000 -7.000e+000 -7.000e+000 -7.000e+000 -7.000e+000 -7.000e+000 -7.000e+000 -7.000e+000 -7.000e+000 -7.000e+000 -7.000e+000 -7.000e+000 -7.000e+000 -7.000e+000 -7.000e+000 -7.000e+000 -7.000e+000 -7.000e+000 -7.000e+000 -7.000e+000 -7.000e+000 -7.000e+000 -7.000e+000 -7.000e+000 -7.000e+000 -7.000e+000 -7.000e+000 -7.000e+000 -7.000e+000 -7.000e+000 -7.000e+000 -7.000e+000 -7.000e+000 -7.000e+000 -7.000e+000 -7.000e+000 -7.000e+000 -7.000e+000 -7.000e+000 -7.000e+000 -7.000e+000 -7.000e+000 -7.000e+000 -7.000e+000 -7.000e+000 -7.000e+000 -7.000e+000 -7.000e+000 -7.000e+000 -7.000e+000 -7.000e+000 -7.000e+000 -7.000e+000 -7.000e+000 -7.000e+000 -7.000e+000 -7.000e+000 -7.000e+000 -7.000e+000 -7.000e+000 -7.000e+000 -7.000e+000 -7.000e+000 -7.000e+000 -7.000e+000 -7.000e+000 -7.000e+000 -7.000e+000 -7.000e+000 -7.000e+000 -7.000e+000 -7.000e+000 -7.000e+000 -7.000e+000 -7.000e+000 -7.000e+000 -7.000e+000 -7.000e+000 -7.000e+000 -7.000e+000 -7.000e+000 -7.000e+000 -7.000e+000 -7.000e+000 -7.000e+000 -7.000e+000 -7.000e+000 -7.000e+000 -7.000e+000 -7.000e+000 -7.000e+000 -7.000e+000 -7.000e+000 -7.000e+000 -7.000e+000 -7.000e+000 -7.000e+000 -7.000e+000 -7.000e+000 -7.000e+000 -7.000e+000 -7.000e+000 -7.000e+000 -7.000e+000 -7.000e+000 -7.000e+000 -7.000e+000 -7.000e+000 -7.000e+000 -7.000e+000 -7.000e+000 -7.000e+000 -7.000e+000 -7.000e+000 -7.000e+000 -7.000e+000 -7.000e+000 -7.000e+000 -7.000e+000 -7.000e+000 -7.000e+000 -7.000e+000 -7.000e+000 -9.000e+000 -9.000e+000 -9.000e+000 -9.000e+000 -9.000e+000 -9.000e+000 -9.000e+000 -9.000e+000 -9.000e+000 -9.000e+000 -9.000e+000 -4.000e+000 -4.000e+000 -4.000e+000 -4.000e+000 -4.000e+000 -4.000e+000 -4.000e+000 -4.000e+000 -4.000e+000 -4.000e+000 -4.000e+000 -4.000e+000 -4.000e+000 -4.000e+000 -4.000e+000 -4.000e+000 -4.000e+000 -4.000e+000 -4.000e+000 -4.000e+000 -4.000e+000 -4.000e+000 -4.000e+000 -4.000e+000 -4.000e+000 -4.000e+000 -4.000e+000 -4.000e+000 -4.000e+000 -4.000e+000
           </DataArray>
           <DataArray type="Float32" Name="nitrate/Cmin" NumberOfComponents="1" format="ascii">
 1.000e-003 1.000e-003 1.000e-003 1.000e-003 1.000e-003 1.000e-003 1.000e-003 1.000e-003 1.000e-003 1.000e-003 1.000e-003 1.000e-003 1.000e-003 1.000e-003 1.000e-003 1.000e-003 1.000e-003 1.000e-003 1.000e-003 1.000e-003 1.000e-003 1.000e-003 1.000e-003 1.000e-003 1.000e-003 1.000e-003 1.000e-003 1.000e-003 1.000e-003 1.000e-003 1.000e-003 1.000e-003 1.000e-003 1.000e-003 1.000e-003 1.000e-003 1.000e-003 1.000e-003 1.000e-003 1.000e-003 1.000e-003 1.000e-003 1.000e-003 1.000e-003 1.000e-003 1.000e-003 1.000e-003 1.000e-003 1.000e-003 1.000e-003 1.000e-003 1.000e-003 1.000e-003 1.000e-003 1.000e-003 1.000e-003 1.000e-003 1.000e-003 1.000e-003 1.000e-003 1.000e-003 1.000e-003 1.000e-003 1.000e-003 1.000e-003 1.000e-003 1.000e-003 1.000e-003 1.000e-003 1.000e-003 1.000e-003 1.000e-003 1.000e-003 1.000e-003 1.000e-003 1.000e-003 1.000e-003 1.000e-003 1.000e-003 1.000e-003 1.000e-003 1.000e-003 1.000e-003 1.000e-003 1.000e-003 1.000e-003 1.000e-003 1.000e-003 1.000e-003 1.000e-003 1.000e-003 1.000e-003 1.000e-003 1.000e-003 1.000e-003 1.000e-003 1.000e-003 1.000e-003 1.000e-003 1.000e-003 1.000e-003 1.000e-003 1.000e-003 1.000e-003 1.000e-003 1.000e-003 1.000e-003 1.000e-003 1.000e-003 1.000e-003 1.000e-003 1.000e-003 1.000e-003 1.000e-003 1.000e-003 1.000e-003 1.000e-003 1.000e-003 1.000e-003 1.000e-003 1.000e-003 1.000e-003 1.000e-003 1.000e-003 1.000e-003 1.000e-003 1.000e-003 1.000e-003 1.000e-003 1.000e-003 1.000e-003 1.000e-003 1.000e-003 1.000e-003 1.000e-003 1.000e-003 1.000e-003 1.000e-003 1.000e-003 1.000e-003 1.000e-003 1.000e-003 1.000e-003 1.000e-003 1.000e-003 1.000e-003 1.000e-003 1.000e-003 1.000e-003 1.000e-003 1.000e-003 1.000e-003 1.000e-003 1.000e-003 1.000e-003 1.000e-003 1.000e-003 1.000e-003 1.000e-003 1.000e-003 1.000e-003 1.000e-003 1.000e-003 1.000e-003 1.000e-003 1.000e-003 1.000e-003 1.000e-003 1.000e-003 1.000e-003 1.000e-003 1.000e-003 1.000e-003 1.000e-003 1.000e-003 1.000e-003 1.000e-003 1.000e-003 1.000e-003 1.000e-003 1.000e-003 1.000e-003 1.000e-003 1.000e-003 1.000e-003 1.000e-003 1.000e-003 1.000e-003 1.000e-003 1.000e-003 1.000e-003 1.000e-003 1.000e-003 1.000e-003 1.000e-003 1.000e-003 1.000e-003 1.000e-003 1.000e-003 1.000e-003 1.000e-003 1.000e-003 1.000e-003 1.000e-003 1.000e-003 1.000e-003 1.000e-003 1.000e-003 1.000e-003 1.000e-003 1.000e-003 1.000e-003 1.000e-003 1.000e-003 1.000e-003 1.000e-003 1.000e-003 1.000e-003 1.000e-003 1.000e-003 1.000e-003 1.000e-003 1.000e-003 1.000e-003 1.000e-003 1.000e-003 1.000e-003 1.000e-003 1.000e-003 1.000e-003 1.000e-003 1.000e-003 1.000e-003 1.000e-003 1.000e-003 1.000e-003 1.000e-003 1.000e-003 1.000e-003 1.000e-003 1.000e-003 1.000e-003 1.000e-003 1.000e-003 1.000e-003 1.000e-003 1.000e-003 1.000e-003 1.000e-003 1.000e-003 1.000e-003 1.000e-003 1.000e-003 1.000e-003 1.000e-003 1.000e-003 1.000e-003 1.000e-003 1.000e-003 1.000e-003 1.000e-003 1.000e-003 1.000e-003 1.000e-003 1.000e-003 1.000e-003 1.000e-003 1.000e-003 1.000e-003 1.000e-003 1.000e-003 1.000e-003 1.000e-003 1.000e-003 1.000e-003 1.000e-003 1.000e-003 1.000e-003 1.000e-003 1.000e-003 1.000e-003 1.000e-003 1.000e-003 1.000e-003 1.000e-003 1.000e-003 1.000e-003 1.000e-003 1.000e-003 1.000e-003 1.000e-003 1.000e-003 1.000e-003 1.000e-003 1.000e-003 1.000e-003 1.000e-003 1.000e-003 1.000e-003 1.000e-003 1.000e-003 1.000e-003 1.000e-003 1.000e-003 1.000e-003 1.000e-003 1.000e-003 1.000e-003 1.000e-003 1.000e-003 1.000e-003 1.000e-003 1.000e-003 1.000e-003 1.000e-003 1.000e-003 1.000e-003 1.000e-003 1.000e-003 1.000e-003 1.000e-003 1.000e-003 1.000e-003 1.000e-003 1.000e-003 1.000e-003 1.000e-003 1.000e-003 1.000e-003 1.000e-003 1.000e-003 1.000e-003 1.000e-003 1.000e-003 1.000e-003 1.000e-003 1.000e-003 1.000e-003 1.000e-003 1.000e-003 1.000e-003 1.000e-003 1.000e-003 1.000e-003 1.000e-003 1.000e-003 1.000e-003 1.000e-003 1.000e-003 1.000e-003 1.000e-003 1.000e-003 1.000e-003 1.000e-003 1.000e-003 1.000e-003 1.000e-003 1.000e-003 1.000e-003 1.000e-003 1.000e-003 1.000e-003 1.000e-003 1.000e-003 1.000e-003 1.000e-003 1.000e-003 1.000e-003 1.000e-003 1.000e-003 1.000e-003 1.000e-003 1.000e-003 1.000e-003 1.000e-003 1.000e-003 1.000e-003 1.000e-003 1.000e-003 1.000e-003 1.000e-003 1.000e-003 1.000e-003 1.000e-003 1.000e-003 1.000e-003 1.000e-003 1.000e-003 1.000e-003 1.000e-003 1.000e-003 1.000e-003 1.000e-003 1.000e-003 1.000e-003 1.000e-003 1.000e-003 1.000e-003 1.000e-003 1.000e-003 1.000e-003 1.000e-003 1.000e-003 1.000e-003 1.000e-003 1.000e-003 1.000e-003 1.000e-003 1.000e-003 1.000e-003 1.000e-003 1.000e-003 1.000e-003 1.000e-003 1.000e-003 1.000e-003 1.000e-003 1.000e-003 1.000e-003 1.000e-003 1.000e-003 1.000e-003 1.000e-003 1.000e-003 1.000e-003 1.000e-003 1.000e-003 1.000e-003 1.000e-003 1.000e-003 1.000e-003 1.000e-003 1.000e-003 1.000e-003 1.000e-003 1.000e-003 1.000e-003 1.000e-003 1.000e-003 1.000e-003 1.000e-003 1.000e-003 1.000e-003 1.000e-003 1.000e-003 1.000e-003 1.000e-003 1.000e-003 1.000e-003 1.000e-003 1.000e-003 1.000e-003 1.000e-003 1.000e-003 1.000e-003 1.000e-003 1.000e-003 1.000e-003 1.000e-003 1.000e-003 1.000e-003 1.000e-003 1.000e-003 1.000e-003 1.000e-003 1.000e-003 1.000e-003 1.000e-003 1.000e-003 1.000e-003 1.000e-003 1.000e-003 1.000e-003 1.000e-003 1.000e-003 1.000e-003 1.000e-003 1.000e-003 1.000e-003 1.000e-003 1.000e-003 1.000e-003 1.000e-003 1.000e-003 1.000e-003 1.000e-003 1.000e-003 1.000e-003 1.000e-003 1.000e-003 1.000e-003 1.000e-003 1.000e-003 1.000e-003 1.000e-003 1.000e-003 1.000e-003 1.000e-003 1.000e-003 1.000e-003 1.000e-003 1.000e-003 1.000e-003 1.000e-003 1.000e-003 1.000e-003 1.000e-003 1.000e-003 1.000e-003 1.000e-003 1.000e-003 1.000e-003 1.000e-003 1.000e-003 1.000e-003 1.000e-003 1.000e-003 1.000e-003 1.000e-003 1.000e-003 1.000e-003 1.000e-003 1.000e-003 1.000e-003 1.000e-003 1.000e-003 1.000e-003 1.000e-003 1.000e-003 1.000e-003 1.000e-003 1.000e-003 1.000e-003 1.000e-003 1.000e-003 1.000e-003 1.000e-003 1.000e-003 1.000e-003 1.000e-003 1.000e-003 1.000e-003 1.000e-003 1.000e-003 1.000e-003 1.000e-003 1.000e-003 1.000e-003 1.000e-003 1.000e-003 1.000e-003 1.000e-003 1.000e-003 1.000e-003 1.000e-003 1.000e-003 1.000e-003 1.000e-003 1.000e-003 1.000e-003 1.000e-003 1.000e-003 1.000e-003 1.000e-003 1.000e-003 1.000e-003 1.000e-003 1.000e-003 1.000e-003 1.000e-003 1.000e-003 1.000e-003 1.000e-003 1.000e-003 1.000e-003 1.000e-003 1.000e-003 1.000e-003 1.000e-003 1.000e-003 1.000e-003 1.000e-003 1.000e-003 1.000e-003 1.000e-003 1.000e-003 1.000e-003 1.000e-003 1.000e-003
           </DataArray>
           <DataArray type="Float32" Name="nitrate/Imax" NumberOfComponents="1" format="ascii">