<?xml version="1.0"?>
<VTKFile type="UnstructuredGrid" version="0.1" byte_order="LittleEndian">
   <UnstructuredGrid>
      <Piece NumberOfPoints="58810" NumberOfCells="4280">
         <Points>
            <DataArray type="Float32" Name="Position" NumberOfComponents="3" format="ascii">
-0.034	-5.072	0.137
-0.035	-5.064	0.142
-0.036	-5.055	0.141
-0.036	-5.048	0.135
-0.037	-5.046	0.126
-0.037	-5.049	0.117
-0.037	-5.057	0.113
-0.036	-5.066	0.113
-0.035	-5.073	0.119
-0.035	-5.075	0.129
-0.896	-5.139	0.181
-0.898	-5.131	0.186
-0.899	-5.122	0.186
-0.901	-5.115	0.180
-0.901	-5.113	0.171
-0.901	-5.116	0.162
-0.899	-5.123	0.157
-0.897	-5.132	0.157
-0.896	-5.140	0.163
-0.895	-5.142	0.172
-1.719	-5.408	0.137
-1.722	-5.402	0.143
-1.726	-5.394	0.144
-1.728	-5.386	0.139
-1.729	-5.383	0.130
-1.728	-5.384	0.121
-1.725	-5.391	0.115
-1.721	-5.399	0.115
-1.719	-5.407	0.119
-1.718	-5.410	0.128
-2.497	-5.794	0.060
-2.502	-5.790	0.066
-2.508	-5.782	0.068
-2.511	-5.775	0.064
-2.511	-5.770	0.056
-2.508	-5.770	0.047
-2.503	-5.774	0.041
-2.498	-5.782	0.040
-2.494	-5.789	0.044
-2.494	-5.794	0.051
-2.754	-6.024	-0.133
-2.761	-6.022	-0.127
-2.768	-6.016	-0.125
-2.772	-6.008	-0.129
-2.772	-6.002	-0.136
-2.768	-6.000	-0.144
-2.762	-6.002	-0.150
-2.755	-6.008	-0.152
-2.751	-6.016	-0.148
-2.750	-6.022	-0.141
-0.052	-5.165	0.243
-0.047	-5.157	0.244
-0.049	-5.148	0.245
-0.055	-5.141	0.244
-0.064	-5.139	0.242
-0.072	-5.143	0.240
-0.076	-5.151	0.239
-0.075	-5.160	0.238
-0.069	-5.167	0.239
-0.060	-5.168	0.241
-0.223	-5.233	1.096
-0.219	-5.225	1.099
-0.220	-5.216	1.100
-0.226	-5.209	1.100
-0.235	-5.207	1.097
-0.243	-5.211	1.094
-0.247	-5.218	1.091
-0.245	-5.227	1.089
-0.239	-5.234	1.090
-0.230	-5.236	1.092
-0.591	-5.552	1.827
-0.588	-5.545	1.832
-0.591	-5.537	1.836
-0.597	-5.530	1.836
-0.605	-5.528	1.833
-0.612	-5.530	1.827
-0.615	-5.537	1.821
-0.612	-5.545	1.817
-0.606	-5.552	1.817
-0.598	-5.554	1.821
-1.024	-6.054	2.409
-1.022	-6.047	2.415
-1.024	-6.038	2.418
-1.030	-6.032	2.418
-1.038	-6.029	2.414
-1.045	-6.032	2.408
-1.048	-6.039	2.403
-1.046	-6.047	2.399
-1.039	-6.054	2.400
-1.031	-6.056	2.404
-1.438	-6.294	3.130
-1.434	-6.287	3.133
-1.435	-6.278	3.135
-1.441	-6.271	3.133
-1.449	-6.268	3.130
-1.457	-6.271	3.125
-1.461	-6.279	3.122
-1.460	-6.288	3.120
-1.454	-6.295	3.122
-1.446	-6.298	3.125
-1.592	-6.329	3.505
-1.587	-6.321	3.508
-1.588	-6.312	3.508
-1.594	-6.305	3.507
-1.602	-6.302	3.503
-1.610	-6.306	3.500
-1.614	-6.313	3.497
-1.614	-6.323	3.497
-1.608	-6.330	3.498
-1.600	-6.332	3.502
-0.152	-6.217	1.086
-0.154	-6.209	1.090
-0.155	-6.200	1.088
-0.155	-6.194	1.081
-0.154	-6.192	1.072
-0.152	-6.197	1.064
-0.150	-6.205	1.060
-0.149	-6.214	1.062
-0.149	-6.220	1.069
-0.150	-6.222	1.078
-1.002	-6.338	0.937
-1.004	-6.330	0.942
-1.006	-6.321	0.941
-1.007	-6.315	0.934
-1.006	-6.312	0.926
-1.004	-6.316	0.917
-1.001	-6.323	0.913
-0.999	-6.332	0.914
-0.998	-6.339	0.920
-0.999	-6.341	0.929
-1.807	-6.644	0.785
-1.810	-6.637	0.790
-1.813	-6.628	0.791
-1.815	-6.621	0.785
-1.815	-6.618	0.776
-1.813	-6.620	0.768
-1.811	-6.627	0.762
-1.808	-6.636	0.762
-1.806	-6.643	0.767
-1.806	-6.646	0.776
-2.645	-6.880	0.799
-2.647	-6.872	0.804
-2.649	-6.863	0.804
-2.651	-6.856	0.798
-2.652	-6.853	0.790
-2.651	-6.856	0.781
-2.649	-6.864	0.775
-2.647	-6.873	0.776
-2.645	-6.880	0.781
-2.644	-6.883	0.790
-3.193	-6.995	0.771
-3.195	-6.987	0.776
-3.196	-6.978	0.775
-3.198	-6.971	0.769
-3.198	-6.968	0.760
-3.197	-6.972	0.752
-3.195	-6.979	0.747
-3.193	-6.988	0.747
-3.192	-6.995	0.753
-3.192	-6.998	0.762
-0.453	-19.329	3.615
-0.450	-19.322	3.619
-0.450	-19.313	3.620
-0.454	-19.305	3.616
-0.461	-19.302	3.610
-0.467	-19.305	3.603
-0.470	-19.312	3.599
-0.469	-19.322	3.598
-0.465	-19.329	3.602
-0.459	-19.332	3.608
-1.084	-19.402	4.207
-1.082	-19.395	4.213
-1.083	-19.386	4.214
-1.088	-19.379	4.211
-1.093	-19.376	4.204
-1.097	-19.378	4.196
-1.099	-19.385	4.190
-1.097	-19.394	4.189
-1.093	-19.402	4.192
-1.088	-19.405	4.199
-1.694	-19.664	4.434
-1.694	-19.657	4.441
-1.697	-19.649	4.443
-1.701	-19.641	4.440
-1.706	-19.638	4.433
-1.708	-19.639	4.424
-1.708	-19.646	4.417
-1.705	-19.654	4.415
-1.701	-19.662	4.418
-1.697	-19.665	4.425
-0.461	-19.463	3.611
-0.462	-19.455	3.615
-0.467	-19.452	3.623
-0.472	-19.453	3.630
-0.477	-19.460	3.635
-0.478	-19.469	3.634
-0.477	-19.477	3.630
-0.473	-19.481	3.623
-0.467	-19.479	3.615
-0.463	-19.472	3.611
0.251	-19.615	4.106
0.249	-19.608	4.112
0.245	-19.606	4.120
0.241	-19.609	4.128
0.238	-19.617	4.132
0.237	-19.626	4.131
0.239	-19.633	4.125
0.243	-19.636	4.117
0.247	-19.632	4.109
0.250	-19.624	4.105
0.925	-19.674	4.315
0.934	-19.669	4.315
0.943	-19.671	4.315
0.949	-19.677	4.315
0.951	-19.687	4.315
0.947	-19.695	4.315
0.938	-19.699	4.315
0.929	-19.698	4.315
0.923	-19.691	4.315
0.921	-19.682	4.315
-0.487	-19.619	3.648
-0.488	-19.610	3.648
-0.485	-19.603	3.643
-0.480	-19.600	3.635
-0.475	-19.604	3.628
-0.471	-19.611	3.624
-0.471	-19.621	3.625
-0.474	-19.628	3.630
-0.479	-19.630	3.638
-0.484	-19.627	3.645
-1.207	-19.703	3.141
-1.207	-19.694	3.139
-1.203	-19.688	3.133
-1.197	-19.687	3.126
-1.192	-19.691	3.120
-1.188	-19.699	3.118
-1.188	-19.708	3.120
-1.192	-19.715	3.126
-1.197	-19.716	3.133
-1.203	-19.712	3.138
-1.492	-19.784	2.844
-1.491	-19.775	2.841
-1.486	-19.770	2.835
-1.479	-19.771	2.828
-1.473	-19.776	2.824
-1.470	-19.785	2.824
-1.471	-19.794	2.827
-1.476	-19.799	2.833
-1.483	-19.798	2.840
-1.489	-19.793	2.844
-0.477	-19.763	3.638
-0.478	-19.755	3.641
-0.483	-19.750	3.647
-0.489	-19.751	3.654
-0.494	-19.757	3.659
-0.496	-19.766	3.660
-0.495	-19.774	3.657
-0.490	-19.779	3.651
-0.484	-19.778	3.644
-0.479	-19.772	3.639
0.171	-19.850	4.204
0.170	-19.841	4.207
0.165	-19.835	4.212
0.159	-19.835	4.218
0.152	-19.839	4.223
0.149	-19.848	4.224
0.150	-19.857	4.222
0.155	-19.863	4.217
0.161	-19.864	4.211
0.168	-19.859	4.206
0.614	-19.961	4.877
0.614	-19.952	4.878
0.610	-19.945	4.882
0.603	-19.943	4.887
0.595	-19.946	4.892
0.591	-19.954	4.893
0.590	-19.963	4.892
0.595	-19.970	4.888
0.602	-19.972	4.883
0.610	-19.969	4.878
-0.481	-19.923	3.659
-0.478	-19.914	3.659
-0.480	-19.906	3.660
-0.488	-19.900	3.662
-0.497	-19.900	3.663
-0.504	-19.905	3.664
-0.508	-19.914	3.663
-0.505	-19.922	3.662
-0.498	-19.928	3.660
-0.489	-19.928	3.659
-0.367	-20.010	4.503
-0.364	-20.001	4.505
-0.367	-19.993	4.508
-0.374	-19.988	4.511
-0.383	-19.988	4.512
-0.391	-19.994	4.511
-0.394	-20.002	4.508
-0.391	-20.011	4.505
-0.383	-20.016	4.503
-0.374	-20.015	4.502
-0.316	-20.279	4.940
-0.313	-20.271	4.944
-0.316	-20.264	4.949
-0.324	-20.260	4.953
-0.333	-20.260	4.953
-0.340	-20.266	4.951
-0.343	-20.273	4.947
-0.340	-20.281	4.942
-0.332	-20.285	4.938
-0.323	-20.284	4.938
-0.492	-20.058	3.661
-0.493	-20.051	3.667
-0.497	-20.049	3.676
-0.501	-20.052	3.683
-0.504	-20.060	3.687
-0.506	-20.069	3.686
-0.505	-20.076	3.680
-0.502	-20.078	3.672
-0.497	-20.075	3.664
-0.494	-20.067	3.660
0.289	-20.240	4.021
0.287	-20.233	4.027
0.284	-20.230	4.035
0.279	-20.233	4.042
0.275	-20.240	4.046
0.273	-20.249	4.046
0.275	-20.257	4.040
0.278	-20.259	4.032
0.283	-20.257	4.024
0.287	-20.249	4.020
0.890	-20.385	4.409
0.898	-20.380	4.409
0.908	-20.382	4.409
0.914	-20.388	4.409
0.916	-20.398	4.409
0.911	-20.406	4.409
0.903	-20.410	4.409
0.894	-20.409	4.409
0.887	-20.402	4.409
0.886	-20.393	4.409
-0.508	-20.221	3.701
-0.510	-20.212	3.703
-0.510	-20.203	3.700
-0.508	-20.198	3.693
-0.504	-20.198	3.684
-0.501	-20.204	3.677
-0.499	-20.213	3.675
-0.499	-20.221	3.678
-0.501	-20.227	3.686
-0.505	-20.227	3.694
-1.325	-20.328	3.394
-1.327	-20.319	3.395
-1.327	-20.311	3.391
-1.324	-20.306	3.384
-1.319	-20.307	3.376
-1.316	-20.313	3.370
-1.314	-20.322	3.369
-1.315	-20.331	3.373
-1.318	-20.335	3.380
-1.322	-20.334	3.388
-1.792	-20.391	3.121
-1.793	-20.381	3.121
-1.792	-20.373	3.117
-1.788	-20.370	3.109
-1.783	-20.372	3.101
-1.779	-20.379	3.096
-1.778	-20.388	3.096
-1.779	-20.396	3.101
-1.783	-20.400	3.108
-1.788	-20.397	3.116
-0.504	-20.355	3.692
-0.503	-20.349	3.700
-0.504	-20.348	3.709
-0.508	-20.352	3.716
-0.513	-20.359	3.719
-0.516	-20.368	3.717
-0.517	-20.374	3.710
-0.515	-20.375	3.701
-0.512	-20.371	3.693
-0.507	-20.364	3.690
0.305	-20.750	3.899
0.307	-20.744	3.906
0.305	-20.741	3.915
0.300	-20.744	3.922
0.294	-20.750	3.925
0.289	-20.758	3.923
0.287	-20.764	3.916
0.290	-20.766	3.908
0.295	-20.764	3.900
0.301	-20.758	3.897
0.670	-21.141	4.146
0.672	-21.135	4.152
0.670	-21.132	4.161
0.664	-21.133	4.168
0.656	-21.138	4.171
0.650	-21.145	4.168
0.648	-21.151	4.162
0.651	-21.154	4.154
0.657	-21.153	4.146
0.664	-21.148	4.144
-0.504	-20.522	3.721
-0.500	-20.514	3.724
-0.501	-20.505	3.726
-0.507	-20.498	3.725
-0.516	-20.496	3.722
-0.524	-20.499	3.718
-0.528	-20.507	3.715
-0.527	-20.516	3.714
-0.521	-20.523	3.715
-0.512	-20.525	3.718
-0.823	-20.679	4.533
-0.820	-20.672	4.538
-0.822	-20.663	4.540
-0.828	-20.656	4.539
-0.836	-20.654	4.536
-0.843	-20.657	4.531
-0.847	-20.664	4.526
-0.845	-20.673	4.524
-0.839	-20.680	4.524
-0.830	-20.682	4.528
-0.989	-20.827	4.756
-0.987	-20.821	4.762
-0.989	-20.813	4.766
-0.996	-20.806	4.766
-1.004	-20.803	4.762
-1.010	-20.806	4.755
-1.012	-20.812	4.749
-1.010	-20.820	4.746
-1.004	-20.827	4.746
-0.996	-20.830	4.750
-0.508	-20.672	3.737
-0.503	-20.664	3.740
-0.504	-20.655	3.741
-0.510	-20.648	3.739
-0.518	-20.645	3.735
-0.526	-20.648	3.732
-0.530	-20.656	3.729
-0.529	-20.665	3.728
-0.524	-20.672	3.730
-0.515	-20.675	3.733
-0.851	-20.761	4.487
-0.847	-20.754	4.491
-0.848	-20.744	4.492
-0.853	-20.737	4.489
-0.860	-20.734	4.484
-0.866	-20.737	4.478
-0.870	-20.744	4.474
-0.869	-20.753	4.474
-0.865	-20.761	4.476
-0.858	-20.764	4.481
-1.224	-20.815	4.771
-1.221	-20.807	4.776
-1.222	-20.798	4.777
-1.226	-20.791	4.773
-1.231	-20.788	4.767
-1.236	-20.790	4.759
-1.239	-20.798	4.754
-1.238	-20.807	4.754
-1.234	-20.814	4.757
-1.229	-20.817	4.764
-0.156	-6.326	1.140
-0.154	-6.322	1.148
-0.152	-6.323	1.157
-0.152	-6.329	1.164
-0.155	-6.338	1.166
-0.158	-6.346	1.162
-0.160	-6.350	1.154
-0.162	-6.349	1.145
-0.162	-6.342	1.138
-0.159	-6.334	1.137
0.663	-6.558	0.969
0.666	-6.554	0.977
0.669	-6.556	0.986
0.669	-6.563	0.992
[...]
         <CellData>
           <DataArray type="Float32" Name="combinedRootClassID" NumberOfComponents="1" format="ascii">
 -1.300e+001 -1.300e+001 -1.300e+001 -1.300e+001 -1.300e+001 -1.300e+001 -1.300e+001 -1.300e+001 -1.300e+001 -1.300e+001 -1.300e+001 -1.300e+001 -1.300e+001 -1.300e+001 -1.300e+001 -1.300e+001 -1.300e+001 -1.300e+001 -1.300e+001 -1.300e+001 -1.300e+001 -1.300e+001 -1.300e+001 -1.300e+001 -1.300e+001 -1.300e+001 -1.300e+001 -1.300e+001 -1.300e+001 -1.300e+001 -1.300e+001 -1.300e+001 -1.300e+001 -1.300e+001 -1.300e+001 -1.300e+001 -1.300e+001 -1.300e+001 -1.300e+001 -1.300e+001 -1.300e+001 -1.300e+001 -1.300e+001 -1.300e+001 -1.300e+001 -1.300e+001 -1.300e+001 -1.300e+001 -1.300e+001 -1.300e+001 -1.300e+001 -1.300e+001 -1.300e+001 -1.300e+001 -1.300e+001 -1.300e+001 -1.300e+001 -1.300e+001 -1.300e+001 -1.300e+001 -1.300e+001 -1.300e+001 -1.300e+001 -1.300e+001 -1.300e+001 -1.300e+001 -1.300e+001 -1.300e+001 -1.300e+001 -1.300e+001 -1.300e+001 -1.300e+001 -1.300e+001 -1.300e+001 -1.300e+001 -1.300e+001 -1.300e+001 -1.300e+001 -1.300e+001 -1.300e+001 -1.300e+001 -1.300e+001 -1.300e+001 -1.300e+001 -1.300e+001 -1.300e+001 -1.300e+001 -1.300e+001 -1.300e+001 -1.300e+001 -1.300e+001 -1.300e+001 -1.300e+001 -1.300e+001 -1.300e+001 -1.300e+001 -1.300e+001 -1.300e+001 -1.300e+001 -1.300e+001 -1.300e+001 -1.300e+001 -1.300e+001 -1.300e+001 -1.300e+001 -1.300e+001 -1.300e+001 -1.300e+001 -1.300e+001 -1.300e+001 -1.300e+001 -1.300e+001 -1.300e+001 -1.300e+001 -1.300e+001 -1.300e+001 -1.300e+001 -1.300e+001 -1.300e+001 -1.300e+001 -1.300e+001 -1.300e+001 -1.300e+001 -1.300e+001 -1.300e+001 -1.300e+001 -1.300e+001 -1.300e+001 -1.300e+001 -1.300e+001 -1.300e+001 -1.300e+001 -1.300e+001 -1.300e+001 -1.300e+001 -1.300e+001 -1.300e+001 -1.300e+001 -1.300e+001 -1.300e+001 -1.300e+001 -1.300e+001 -1.300e+001 -1.300e+001 -1.300e+001 -1.300e+001 -1.300e+001 -1.300e+001 -1.300e+001 -1.300e+001 -1.300e+001 -1.300e+001 -1.300e+001 -1.300e+001 -1.300e+001 -1.300e+001 -1.300e+001 -1.300e+001 -1.300e+001 -1.300e+001 -1.300e+001 -1.300e+001 -1.300e+001 -1.300e+001 -1.300e+001 -1.300e+001 -1.300e+001 -1.300e+001 -1.300e+001 -1.300e+001 -1.300e+001 -1.300e+001 -1.300e+001 -1.300e+001 -1.300e+001 -1.300e+001 -1.300e+001 -1.300e+001 -1.300e+001 -1.300e+001 -1.300e+001 -1.300e+001 -1.300e+001 -1.300e+001 -1.300e+001 -1.300e+001 -1.300e+001 -1.300e+001 -1.300e+001 -1.300e+001 -1.300e+001 -1.300e+001 -1.300e+001 -1.300e+001 -1.300e+001 -1.300e+001 -1.300e+001 -1.300e+001 -1.300e+001 -1.300e+001 -1.300e+001 -1.300e+001 -1.300e+001 -1.300e+001 -1.300e+001 -1.300e+001 -1.300e+001 -1.300e+001 -1.300e+001 -1.300e+001 -1.300e+001 -1.300e+001 -1.300e+001 -1.300e+001 -1.300e+001 -1.300e+001 -1.300e+001 -1.300e+001 -1.300e+001 -1.300e+001 -1.300e+001 -1.300e+001 -1.300e+001 -1.300e+001 -1.300e+001 -1.300e+001 -1.300e+001 -1.300e+001 -1.300e+001 -1.300e+001 -1.300e+001 -1.300e+001 -1.300e+001 -1.300e+001 -1.300e+001 -1.300e+001 -1.300e+001 -1.300e+001 -1.300e+001 -1.300e+001 -1.300e+001 -1.300e+001 -1.300e+001 -1.300e+001 -1.300e+001 -1.300e+001 -1.300e+001 -1.300e+001 -1.300e+001 -1.300e+001 -1.300e+001 -1.300e+001 -1.300e+001 -1.300e+001 -1.300e+001 -1.300e+001 -1.300e+001 -1.300e+001 -1.300e+001 -1.300e+001 -1.300e+001 -1.300e+001 -1.300e+001 -1.300e+001 -1.300e+001 -1.300e+001 -1.300e+001 -1.300e+001 -1.300e+001 -1.300e+001 -1.300e+001 -1.300e+001 -1.300e+001 -1.300e+001 -1.300e+001 -1.300e+001 -1.300e+001 -1.300e+001 -1.300e+001 -1.300e+001 -1.300e+001 -1.300e+001 -1.300e+001 -1.300e+001 -1.300e+001 -1.300e+001 -1.300e+001 -1.300e+001 -1.300e+001 -1.300e+001 -1.300e+001 -1.300e+001 -1.300e+001 -1.300e+001 -1.300e+001 -1.300e+001 -1.300e+001 -1.300e+001 -1.300e+001 -1.300e+001 -1.300e+001 -1.300e+001 -1.300e+001 -1.300e+001 -1.300e+001 -1.300e+001 -1.300e+001 -1.300e+001 -1.300e+001 -1.300e+001 -1.300e+001 -1.300e+001 -1.300e+001 -1.300e+001 -1.300e+001 -1.300e+001 -1.300e+001 -1.300e+001 -1.300e+001 -1.300e+001 -1.300e+001 -1.300e+001 -1.300e+001 -1.300e+001 -1.300e+001 -1.300e+001 -1.300e+001 -1.300e+001 -1.300e+001 -1.300e+001 -1.300e+001 -1.300e+001 -1.300e+001 -1.300e+001 -1.300e+001 -1.300e+001 -1.300e+001 -1.300e+001 -1.300e+001 -1.300e+001 -1.300e+001 -1.300e+001 -1.300e+001 -1.300e+001 -1.300e+001 -1.300e+001 -1.300e+001 -1.300e+001 -1.300e+001 -1.300e+001 -1.300e+001 -1.300e+001 -1.300e+001 -1.300e+001 -1.300e+001 -1.300e+001 -1.300e+001 -1.300e+001 -1.300e+001 -1.300e+001 -1.300e+001 -1.300e+001 -1.300e+001 -1.300e+001 -1.300e+001 -1.300e+001 -1.300e+001 -1.300e+001 -1.300e+001 -1.300e+001 -1.300e+001 -1.300e+001 -1.300e+001 -1.300e+001 -1.300e+001 -1.300e+001 -1.300e+001 -1.300e+001 -1.300e+001 -1.300e+001 -1.300e+001 -1.300e+001 -1.300e+001 -1.300e+001 -1.300e+001 -1.300e+001 -1.300e+001 -1.300e+001 -1.300e+001 -1.300e+001 -1.300e+001 -1.300e+001 -1.300e+001 -1.300e+001 -1.300e+001 -1.300e+001 -1.300e+001 -1.300e+001 -1.300e+001 -1.300e+001 -1.300e+001 -1.300e+001 -1.300e+001 -1.300e+001 -1.300e+001 -1.300e+001 -1.300e+001 -1.300e+001 -1.300e+001 -1.300e+001 -1.300e+001 -1.300e+001 -1.300e+001 -1.300e+001 -1.300e+001 -1.300e+001 -1.300e+001 -1.300e+001 -1.300e+001 -1.300e+001 -1.300e+001 -1.300e+001 -1.300e+001 -1.300e+001 -1.300e+001 -1.300e+001 -1.300e+001 -1.300e+001 -1.300e+001 -1.300e+001 -1.300e+001 -1.300e+001 -1.300e+001 -1.300e+001 -1.300e+001 -1.300e+001 -1.300e+001 -1.300e+001 -1.300e+001 -1.300e+001 -5.000e+000 -5.000e+000 -5.000e+000 -5.000e+000 -5.000e+000 -5.000e+000 -5.000e+000 -5.000e+000 -5.000e+000 -5.000e+000 -5.000e+000 -5.000e+000 -5.000e+000 -5.000e+000 -5.000e+000 -5.000e+000 -5.000e+000 -5.000e+000 -5.000e+000 -5.000e+000 -5.000e+000 -5.000e+000 -5.000e+000 -5.000e+000 -5.000e+000 -5.000e+000 -5.000e+000 -5.000e+000 -5.000e+000 -5.000e+000 -5.000e+000 -5.000e+000 -5.000e+000 -5.000e+000 -5.000e+000 -5.000e+000 -5.000e+000 -5.000e+000 -5.000e+000 -5.000e+000 -5.000e+000 -5.000e+000 -5.000e+000 -1.300e+001 -1.300e+001 -1.300e+001 -1.300e+001 -1.300e+001 -1.300e+001 -1.300e+001 -1.300e+001 -1.300e+001 -1.300e+001 -1.300e+001 -1.300e+001 -1.300e+001 -1.300e+001 -1.300e+001 -1.300e+001 -1.300e+001 -1.300e+001 -1.300e+001 -1.300e+001 -1.300e+001 -1.300e+001 -1.300e+001 -1.300e+001 -1.300e+001 -1.300e+001 -1.300e+001 -1.300e+001 -1.300e+001 -1.300e+001 -1.300e+001 -1.300e+001 -1.300e+001 -1.300e+001 -1.300e+001 -1.300e+001 -1.300e+001 -1.300e+001 -1.300e+001 -1.300e+001 -1.300e+001 -1.300e+001 -1.300e+001 -1.300e+001 -1.300e+001 -1.300e+001 -1.300e+001 -1.300e+001 -1.300e+001 -1.300e+001 -1.300e+001 -1.300e+001 -1.300e+001 -1.300e+001 -1.300e+001 -1.300e+001 -1.300e+001 -1.300e+001 -1.300e+001 -1.300e+001 -1.300e+001 -1.300e+001 -1.300e+001 -1.300e+001 -1.300e+001 -1.300e+001 -1.300e+001 -1.300e+001 -1.300e+001 -1.300e+001 -1.300e+001 -1.300e+001 -1.300e+001 -1.300e+001 -1.300e+001 -1.300e+001 -1.300e+001 -1.300e+001 -1.300e+001 -1.300e+001 -1.300e+001 -1.300e+001 -1.300e+001 -1.300e+001 -1.300e+001 -1.300e+001 -1.300e+001 -1.300e+001 -1.300e+001 -1.300e+001 -1.300e+001 -1.300e+001 -1.300e+001 -1.300e+001 -1.300e+001 -1.300e+001 -1.300e+001 -1.300e+001 -1.300e+001 -1.300e+001 -1.300e+001 -1.300e+001 -1.300e+001 -1.300e+001 -1.300e+001 -1.300e+001 -1.300e+001 -1.300e+001 -1.300e+001 -1.300e+001 -1.300e+001 -1.300e+001 -1.300e+001 -1.300e+001 -1.300e+001 -1.300e+001 -1.300e+001 -1.300e+001 -1.300e+001 -1.300e+001 -1.300e+001 -1.300e+001 -1.300e+001 -1.300e+001 -1.300e+001 -1.300e+001 -1.300e+001 -1.300e+001 -1.300e+001 -1.300e+001 -1.300e+001 -1.300e+001 -1.300e+001 -1.300e+001 -1.300e+001 -1.300e+001 -1.300e+001 -1.300e+001 -1.300e+001 -1.300e+001 -1.300e+001 -1.300e+001 -1.300e+001 -1.300e+001 -1.300e+001 -1.300e+001 -1.300e+001 -1.300e+001 -1.300e+001 -1.300e+001 -1.300e+001 -1.300e+001 -1.300e+001 -1.300e+001 -1.300e+001 -1.300e+001 -1.300e+001 -1.300e+001 -1.300e+001 -1.300e+001 -1.300e+001 -1.300e+001 -1.300e+001 -1.300e+001 -1.300e+001 -1.300e+001 -1.300e+001 -1.300e+001 -1.300e+001 -1.300e+001 -1.300e+001 -1.300e+001 -1.300e+001 -1.300e+001 -1.300e+001 -1.300e+001 -1.300e+001 -1.300e+001 -1.300e+001 -1.300e+001 -1.300e+001 -1.300e+001 -1.300e+001 -1.300e+001 -1.300e+001 -1.300e+001 -1.300e+001 -1.300e+001 -1.300e+001 -1.300e+001 -1.300e+001 -1.300e+001 -1.300e+001 -1.300e+001 -1.300e+001 -1.300e+001 -1.300e+001 -1.300e+001 -1.300e+001 -1.300e+001 -1.300e+001 -1.300e+001 -1.300e+001 -1.300e+001 -1.300e+001 -1.300e+001 -1.300e+001 -1.300e+001 -1.300e+001 -1.300e+001 -1.300e+001 -1.300e+001 -1.300e+001 -1.300e+001 -1.300e+001 -1.300e+001 -1.300e+001 -1.300e+001 -1.300e+001 -1.300e+001 -1.300e+001 -1.300e+001 -1.300e+001 -1.300e+001 -1.300e+001 -1.300e+001 -1.300e+001 -1.300e+001 -1.300e+001 -1.300e+001 -1.300e+001 -1.300e+001 -1.300e+001 -1.300e+001 -1.300e+001 -1.300e+001 -1.300e+001 -1.300e+001 -1.300e+001 -1.300e+001 -1.300e+001 -1.300e+001 -1.300e+001 -1.300e+001 -1.300e+001 -1.300e+001 -1.300e+001 -1.300e+001 -1.300e+001 -1.300e+001 -1.300e+001 -1.300e+001 -1.300e+001 -1.300e+001 -1.300e+001 -1.300e+001 -1.300e+001 -1.300e+001 -1.300e+001 -1.300e+001 -1.300e+001 -1.300e+001 -1.300e+001 -1.300e+001 -1.300e+001 -1.300e+001 -1.300e+001 -1.300e+001 -1.300e+001 -1.300e+001 -1.300e+001 -1.300e+001 -1.300e+001 -1.300e+001 -1.300e+001 -1.300e+001 -1.300e+001 -1.300e+001 -1.300e+001 -1.300e+001 -1.300e+001 -1.300e+001 -1.300e+001 -1.300e+001 -1.300e+001 -1.300e+001 -1.300e+001 -1.300e+001 -1.300e+001 -1.300e+001 -1.300e+001 -1.300e+001 -1.300e+001 -1.300e+001 -1.300e+001 -1.300e+001 -1.300e+001 -1.300e+001 -1.300e+001 -1.300e+001 -1.300e+001 -1.300e+001 -1.300e+001 -1.300e+001 -1.300e+001 -1.300e+001 -1.300e+001 -1.300e+001 -1.300e+001 -1.300e+001 -1.300e+001 -1.300e+001 -1.300e+001 -1.300e+001 -1.300e+001 -1.300e+001 -1.300e+001 -1.300e+001 -1.300e+001 -1.300e+001 -1.300e+001 -1.300e+001 -1.300e+001 -1.300e+001 -1.300e+001 -1.300e+001 -1.300e+001 -1.300e+001 -1.300e+001 -1.300e+001 -1.300e+001 -1.300e+001 -1.300e+001 -1.300e+001 -1.300e+001 -1.300e+001 -1.300e+001 -1.300e+001 -1.300e+001 -1.300e+001 -1.300e+001 -1.300e+001 -1.300e+001 -1.300e+001 -1.300e+001 -1.300e+001 -1.300e+001 -1.300e+001 -1.300e+001 -1.300e+001 -1.300e+001 -1.300e+001 -1.300e+001 -1.300e+001 -1.300e+001 -1.300e+001 -1.300e+001 -1.300e+001 -1.300e+001 -1.300e+001 -1.300e+001 -1.300e+001 -1.300e+001 -1.300e+001 -1.300e+001 -1.300e+001 -1.300e+001 -1.300e+001 -1.300e+001 -1.300e+001 -1.300e+001 -1.300e+001 -1.300e+001 -1.300e+001 -1.300e+001 -1.300e+001 -1.300e+001 -1.300e+001 -1.300e+001 -1.300e+001 -1.300e+001 -1.300e+001 -1.300e+001 -1.300e+001 -1.300e+001 -1.300e+001 -1.300e+001 -1.300e+001 -1.300e+001 -1.300e+001 -1.300e+001 -1.300e+001 -1.300e+001 -1.300e+001 -1.300e+001 -1.300e+001 -1.300e+001 -1.300e+001 -1.300e+001 -1.300e+001 -1.300e+001 -1.300e+001 -1.300e+001 -1.300e+001 -1.300e+001 -1.300e+001 -1.300e+001 -1.300e+001 -1.300e+001 -1.300e+001 -1.300e+001 -1.300e+001 -1.300e+001 -1.300e+001 -1.300e+001 -1.300e+001 -1.300e+001 -1.300e+001 -1.300e+001 -1.300e+001 -1.300e+001 -1.300e+001 -1.300e+001 -1.300e+001 -1.300e+001 -1.300e+001 -1.300e+001 -1.300e+001 -1.300e+001 -1.300e+001 -1.300e+001 -1.300e+001 -1.300e+001 -1.300e+001 -1.300e+001 -1.300e+001 -1.300e+001 -1.300e+001 -1.300e+001 -1.300e+001 -1.300e+001 -1.300e+001 -1.300e+001 -1.300e+001 -1.300e+001 -1.300e+001 -1.300e+001 -1.300e+001 -1.300e+001 -1.300e+001 -1.300e+001 -1.300e+001 -1.300e+001 -1.300e+001 -1.300e+001 -1.300e+001 -5.000e+000 -5.000e+000 -5.000e+000 -5.000e+000 -5.000e+000 -5.000e+000 -5.000e+000 -5.000e+000 -5.000e+000 -5.000e+000 -5.000e+000 -5.000e+000 -5.000e+000 -5.000e+000 -5.000e+000 -5.000e+000 -5.000e+000 -5.000e+000 -5.000e+000 -5.000e+000 -5.000e+000 -5.000e+000 -5.000e+000 -5.000e+000 -5.000e+000 -5.000e+000 -5.000e+000 -5.000e+000 -5.000e+000 -5.000e+000 -5.000e+000 -5.000e+000 -5.000e+000 -5.000e+000 -5.000e+000 -5.000e+000 -5.000e+000 -5.000e+000 -5.000e+000 -5.000e+000 -5.000e+000 -5.000e+000 -5.000e+000 -1.300e+001 -1.300e+001 -1.300e+001 -1.300e+001 -1.300e+001 -1.300e+001 -1.300e+001 -1.300e+001 -1.300e+001 -1.300e+001 -1.300e+001 -1.300e+001 -1.300e+001 -1.300e+001 -1.300e+001 -1.300e+001 -1.300e+001 -1.300e+001 -1.300e+001 -1.300e+001 -1.300e+001 -1.300e+001 -1.300e+001 -1.300e+001 -1.300e+001 -1.300e+001 -1.300e+001 -1.300e+001 -1.300e+001 -1.300e+001 -1.300e+001 -1.300e+001 -1.300e+001 -1.300e+001 -1.300e+001 -1.300e+001 -1.300e+001 -1.300e+001 -1.300e+001 -1.300e+001 -1.300e+001 -1.300e+001 -1.300e+001 -1.300e+001 -1.300e+001 -1.300e+001 -1.300e+001 -1.300e+001 -1.300e+001 -1.300e+001 -1.300e+001 -1.300e+001 -1.300e+001 -1.300e+001 -1.300e+001 -1.300e+001 -1.300e+001 -1.300e+001 -1.300e+001 -1.300e+001 -1.300e+001 -1.300e+001 -1.300e+001 -1.300e+001 -1.300e+001 -1.300e+001 -1.300e+001 -1.300e+001 -1.300e+001 -1.300e+001 -1.300e+001 -1.300e+001 -1.300e+001 -1.300e+001 -1.300e+001 -1.300e+001 -1.300e+001 -1.300e+001 -1.300e+001 -1.300e+001 -1.300e+001 -1.300e+001 -1.300e+001 -1.300e+001 -1.300e+001 -1.300e+001 -1.300e+001 -1.300e+001 -1.300e+001 -1.300e+001 -1.300e+001 -1.300e+001 -1.300e+001 -1.300e+001 -1.300e+001 -1.300e+001 -1.300e+001 -1.300e+001 -1.300e+001 -1.300e+001 -1.300e+001 -1.300e+001 -1.300e+001 -1.300e+001 -1.300e+001 -1.300e+001 -1.300e+001 -1.300e+001 -1.300e+001 -1.300e+001 -1.300e+001 -1.300e+001 -1.300e+001 -1.300e+001 -1.300e+001 -1.300e+001 -1.300e+001 -1.300e+001 -1.300e+001 -1.300e+001 -1.300e+001 -1.300e+001 -1.300e+001 -1.300e+001 -1.300e+001 -1.300e+001 -1.300e+001 -1.300e+001 -1.300e+001 -1.300e+001 -1.300e+001 -1.300e+001 -1.300e+001 -1.300e+001 -1.300e+001 -1.300e+001 -1.300e+001 -1.300e+001 -1.300e+001 -1.300e+001 -1.300e+001 -1.300e+001 -1.300e+001 -1.300e+001 -1.300e+001 -1.300e+001 -1.300e+001 -1.300e+001 -1.300e+001 -1.300e+001 -1.300e+001 -1.300e+001 -1.300e+001 -1.300e+001 -1.300e+001 -1.300e+001 -1.300e+001 -1.300e+001 -1.300e+001 -1.300e+001 -1.300e+001 -1.300e+001 -1.300e+001 -1.300e+001 -1.300e+001 -1.300e+001 -1.300e+001 -1.300e+001 -1.300e+001 -1.300e+001 -1.300e+001 -1.300e+001 -1.300e+001 -1.300e+001 -1.300e+001 -1.300e+001 -1.300e+001 -1.300e+001 -1.300e+001 -1.300e+001 -1.300e+001 -1.300e+001 -1.300e+001 -1.300e+001 -1.300e+001 -1.300e+001 -1.300e+001 -1.300e+001 -1.300e+001 -1.300e+001 -1.300e+001 -1.300e+001 -1.300e+001 -1.300e+001 -1.300e+001 -1.300e+001 -1.300e+001 -1.300e+001 -1.300e+001 -1.300e+001 -1.300e+001 -1.300e+001 -1.300e+001 -1.300e+001 -1.300e+001 -1.300e+001 -1.300e+001 -1.300e+001 -1.300e+001 -1.300e+001 -1.300e+001 -1.300e+001 -1.300e+001 -1.300e+001 -1.300e+001 -1.300e+001 -1.300e+001 -1.300e+001 -1.300e+001 -1.300e+001 -1.300e+001 -1.300e+001 -1.300e+001 -1.300e+001 -1.300e+001 -1.300e+001 -1.300e+001 -1.300e+001 -1.300e+001 -1.300e+001 -1.300e+001 -1.300e+001 -1.300e+001 -1.300e+001 -1.300e+001 -1.300e+001 -1.300e+001 -1.300e+001 -1.300e+001 -1.300e+001 -1.300e+001 -1.300e+001 -1.300e+001 -1.300e+001 -1.300e+001 -1.300e+001 -1.300e+001 -1.300e+001 -1.300e+001 -1.300e+001 -1.300e+001 -1.300e+001 -1.300e+001 -1.300e+001 -1.300e+001 -1.300e+001 -1.300e+001 -1.300e+001 -1.300e+001 -1.300e+001 -1.300e+001 -1.300e+001 -1.300e+001 -1.300e+001 -1.300e+001 -1.300e+001 -1.300e+001 -1.300e+001 -1.300e+001 -1.300e+001 -1.300e+001 -1.300e+001 -1.300e+001 -1.300e+001 -1.300e+001 -1.300e+001 -1.300e+001 -1.300e+001 -1.300e+001 -1.300e+001 -1.300e+001 -1.300e+001 -1.300e+001 -1.300e+001 -1.300e+001 -1.300e+001 -1.300e+001 -1.300e+001 -1.300e+001 -1.300e+001 -1.300e+001 -1.300e+001 -1.300e+001 -1.300e+001 -1.300e+001 -1.300e+001 -1.300e+001 -1.300e+001 -1.300e+001 -1.300e+001 -1.300e+001 -1.300e+001 -1.300e+001 -1.300e+001 -1.300e+001 -1.300e+001 -1.300e+001 -1.300e+001 -1.300e+001 -1.300e+001 -1.300e+001 -1.300e+001 -1.300e+001 -1.300e+001 -1.300e+001 -1.300e+001 -1.300e+001 -1.300e+001 -1.300e+001 -1.300e+001 -1.300e+001 -1.300e+001 -1.300e+001 -1.300e+001 -1.300e+001 -1.300e+001 -1.300e+001 -1.300e+001 -1.300e+001 -1.300e+001 -1.300e+001 -1.300e+001 -1.300e+001 -1.300e+001 -1.300e+001 -1.300e+001 -1.300e+001 -1.300e+001 -1.300e+001 -1.300e+001 -1.300e+001 -1.300e+001 -1.300e+001 -1.300e+001 -1.300e+001 -1.300e+001 -1.300e+001 -1.300e+001 -1.300e+001 -1.300e+001 -1.300e+001 -1.300e+001 -1.300e+001 -1.300e+001 -1.300e+001 -1.300e+001 -1.300e+001 -1.300e+001 -1.300e+001 -1.300e+001 -1.300e+001 -1.300e+001 -1.300e+001 -1.300e+001 -1.300e+001 -1.300e+001 -1.300e+001 -1.300e+001 -1.300e+001 -1.300e+001 -1.300e+001 -1.300e+001 -1.300e+001 -1.300e+001 -1.300e+001 -1.300e+001 -1.300e+001 -1.300e+001 -1.300e+001 -1.300e+001 -1.300e+001 -1.300e+001 -1.300e+001 -1.300e+001 -1.300e+001 -1.300e+001 -1.300e+001 -1.300e+001 -1.300e+001 -1.300e+001 -1.300e+001 -1.300e+001 -1.300e+001 -1.300e+001 -1.300e+001 -1.300e+001 -1.300e+001 -1.300e+001 -1.300e+001 -1.300e+001 -1.300e+001 -1.300e+001 -1.300e+001 -1.300e+001 -1.300e+001 -1.300e+001 -1.300e+001 -1.300e+001 -1.300e+001 -1.300e+001 -1.300e+001 -1.300e+001 -1.300e+001 -1.300e+001 -1.300e+001 -1.300e+001 -1.300e+001 -1.300e+001 -1.300e+001 -1.300e+001 -1.300e+001 -1.300e+001 -1.300e+001 -1.300e+001 -1.300e+001 -1.300e+001 -1.300e+001 -1.300e+001 -1.300e+001 -1.300e+001 -1.300e+001 -1.300e+001 -1.300e+001 -1.300e+001 -1.300e+001 -1.300e+001 -1.300e+001 -1.300e+001 -1.300e+001 -1.300e+001 -1.300e+001 -1.300e+001 -1.300e+001 -5.000e+000 -5.000e+000 -5.000e+000 -5.000e+000 -5.000e+000 -5.000e+000 -5.000e+000 -5.000e+000 -5.000e+000 -5.000e+000 -5.000e+000 -5.000e+000 -5.000e+000 -5.000e+000 -5.000e+000 -5.000e+000 -5.000e+000 -5.000e+000 -5.000e+000 -5.000e+000 -5.000e+000 -5.000e+000 -5.000e+000 -5.000e+000 -5.000e+000 -5.000e+000 -5.000e+000 -5.000e+000 -5.000e+000 -5.000e+000 -5.000e+000 -5.000e+000 -5.000e+000 -5.000e+000 -5.000e+000 -5.000e+000 -5.000e+000 -5.000e+000 -5.000e+000 -5.000e+000 -5.000e+000 -5.000e+000 -5.000e+000 -1.300e+001 -1.300e+001 -1.300e+001 -1.300e+001 -1.300e+001 -1.300e+001 -1.300e+001 -1.300e+001 -1.300e+001 -1.300e+001 -1.300e+001 -1.300e+001 -1.300e+001 -1.300e+001 -1.300e+001 -1.300e+001 -1.300e+001 -1.300e+001 -1.300e+001 -1.300e+001 -1.300e+001 -1.300e+001 -1.300e+001 -1.300e+001 -1.300e+001 -1.300e+001 -1.300e+001 -1.300e+001 -1.300e+001 -1.300e+001 -1.300e+001 -1.300e+001 -1.300e+001 -1.300e+001 -1.300e+001 -1.300e+001 -1.300e+001 -1.300e+001 -1.300e+001 -1.300e+001 -1.300e+001 -1.300e+001 -1.300e+001 -1.300e+001 -1.300e+001 -1.300e+001 -1.300e+001 -1.300e+001 -1.300e+001 -1.300e+001 -1.300e+001 -1.300e+001 -1.300e+001 -1.300e+001 -1.300e+001 -1.300e+001 -1.300e+001 -1.300e+001 -1.300e+001 -1.300e+001 -1.300e+001 -1.300e+001 -1.300e+001 -1.300e+001 -1.300e+001 -1.300e+001 -1.300e+001 -1.300e+001 -1.300e+001 -1.300e+001 -1.300e+001 -1.300e+001 -1.300e+001 -1.300e+001 -1.300e+001 -1.300e+001 -1.300e+001 -1.300e+001 -1.300e+001 -1.300e+001 -1.300e+001 -1.300e+001 -1.300e+001 -1.300e+001 -1.300e+001 -1.300e+001 -1.300e+001 -1.300e+001 -1.300e+001 -1.300e+001 -1.300e+001 -1.300e+001 -1.300e+001 -1.300e+001 -1.300e+001 -1.300e+001 -1.300e+001 -1.300e+001 -1.300e+001 -1.300e+001 -1.300e+001 -1.300e+001 -1.300e+001 -1.300e+001 -1.300e+001 -1.300e+001 -1.300e+001 -1.300e+001 -1.300e+001 -1.300e+001 -1.300e+001 -1.300e+001 -1.300e+001 -1.300e+001 -1.300e+001 -1.300e+001 -1.300e+001 -1.300e+001 -1.300e+001 -1.300e+001 -1.300e+001 -1.300e+001 -1.300e+001 -1.300e+001 -1.300e+001 -1.300e+001 -1.300e+001 -1.300e+001 -1.300e+001 -1.300e+001 -1.300e+001 -1.300e+001 -1.300e+001 -1.300e+001 -1.300e+001 -1.300e+001 -1.300e+001 -1.300e+001 -1.300e+001 -1.300e+001 -1.300e+001 -1.300e+001 -1.300e+001 -1.300e+001 -1.300e+001 -1.300e+001 -1.300e+001 -1.300e+001 -1.300e+001 -1.300e+001 -1.300e+001 -1.300e+001 -1.300e+001 -1.300e+001 -1.300e+001 -1.300e+001 -1.300e+001 -1.300e+001 -1.300e+001 -1.300e+001 -1.300e+001 -1.300e+001 -1.300e+001 -1.300e+001 -1.300e+001 -1.300e+001 -1.300e+001 -1.300e+001 -1.300e+001 -1.300e+001 -1.300e+001 -1.300e+001 -1.300e+001 -1.300e+001 -1.300e+001 -1.300e+001 -1.300e+001 -1.300e+001 -1.300e+001 -1.300e+001 -1.300e+001 -1.300e+001 -1.300e+001 -1.300e+001 -1.300e+001 -1.300e+001 -1.300e+001 -1.300e+001 -1.3