<?xml version="1.0"?>
<VTKFile type="UnstructuredGrid" version="0.1" byte_order="LittleEndian">
   <UnstructuredGrid>
      <Piece NumberOfPoints="210" NumberOfCells="19">
         <Points>
            <DataArray type="Float32" Name="Position" NumberOfComponents="3" format="ascii">
-0.141	-5.004	0.145
-0.029	-5.004	0.200
0.094	-5.003	0.179
0.181	-5.001	0.089
0.199	-4.998	-0.034
0.141	-4.996	-0.145
0.029	-4.996	-0.200
-0.094	-4.997	-0.179
-0.181	-4.999	-0.089
-0.199	-5.002	0.034
-0.145	-4.252	0.160
-0.034	-4.253	0.215
0.089	-4.252	0.195
0.176	-4.251	0.106
0.195	-4.249	-0.017
0.137	-4.248	-0.127
0.026	-4.248	-0.183
-0.097	-4.248	-0.163
-0.184	-4.249	-0.074
-0.203	-4.251	0.049
-0.145	-3.561	0.162
-0.034	-3.561	0.219
0.089	-3.562	0.199
0.177	-3.561	0.111
0.196	-3.561	-0.012
0.139	-3.560	-0.123
0.028	-3.559	-0.179
-0.094	-3.559	-0.159
-0.182	-3.559	-0.071
-0.201	-3.560	0.052
-0.141	-2.700	0.168
-0.030	-2.702	0.224
0.092	-2.702	0.205
0.180	-2.702	0.117
0.199	-2.701	-0.005
0.143	-2.700	-0.116
0.032	-2.699	-0.172
-0.090	-2.698	-0.153
-0.178	-2.698	-0.065
-0.197	-2.699	0.057
-0.135	-2.101	0.172
-0.025	-2.102	0.229
0.098	-2.103	0.209
0.185	-2.102	0.121
0.205	-2.101	-0.001
0.148	-2.100	-0.112
0.038	-2.099	-0.168
-0.085	-2.098	-0.148
-0.172	-2.098	-0.061
-0.192	-2.099	0.062
-0.130	-1.201	0.181
-0.020	-1.202	0.237
0.103	-1.202	0.218
0.190	-1.202	0.130
0.209	-1.201	0.007
0.152	-1.200	-0.103
0.042	-1.199	-0.159
-0.080	-1.198	-0.139
-0.168	-1.199	-0.051
-0.187	-1.200	0.071
-0.129	-0.301	0.189
-0.018	-0.301	0.245
0.104	-0.302	0.225
0.191	-0.301	0.138
0.211	-0.301	0.015
0.154	-0.300	-0.095
0.044	-0.299	-0.151
-0.078	-0.299	-0.131
-0.166	-0.299	-0.044
-0.185	-0.300	0.078
-0.125	0.560	0.191
-0.015	0.559	0.247
0.107	0.559	0.228
0.195	0.559	0.140
0.214	0.559	0.018
0.158	0.559	-0.092
0.048	0.560	-0.149
-0.074	0.560	-0.129
-0.162	0.560	-0.042
-0.181	0.560	0.080
-0.123	1.440	0.192
-0.013	1.440	0.248
0.109	1.439	0.229
0.197	1.439	0.142
0.216	1.439	0.020
0.161	1.439	-0.090
0.051	1.439	-0.147
-0.072	1.440	-0.128
-0.159	1.440	-0.041
-0.179	1.440	0.082
0.164	1.858	0.049
0.220	1.968	0.049
0.200	2.090	0.049
0.113	2.178	0.049
-0.009	2.197	0.049
-0.119	2.141	0.049
-0.175	2.031	0.049
-0.156	1.909	0.049
-0.069	1.821	0.049
0.053	1.802	0.049
0.032	-4.999	-0.033
0.045	-4.996	-0.008
0.041	-4.995	0.020
0.021	-4.995	0.041
-0.007	-4.998	0.046
-0.032	-5.001	0.033
-0.045	-5.004	0.008
-0.041	-5.005	-0.020
-0.021	-5.005	-0.041
0.007	-5.002	-0.046
0.100	-5.700	0.008
0.114	-5.697	0.033
0.110	-5.697	0.061
0.091	-5.698	0.082
0.063	-5.701	0.087
0.038	-5.705	0.075
0.024	-5.707	0.051
0.028	-5.708	0.022
0.047	-5.706	0.002
0.075	-5.703	-0.004
0.195	-6.398	0.014
0.209	-6.396	0.039
0.206	-6.396	0.067
0.187	-6.398	0.088
0.160	-6.402	0.094
0.135	-6.407	0.083
0.120	-6.409	0.059
0.123	-6.410	0.030
0.142	-6.407	0.009
0.169	-6.403	0.003
0.323	-7.092	0.034
0.337	-7.088	0.058
0.334	-7.087	0.086
0.316	-7.090	0.107
0.289	-7.095	0.114
0.264	-7.101	0.103
0.250	-7.106	0.078
0.253	-7.107	0.050
0.271	-7.104	0.029
0.298	-7.098	0.023
0.495	-7.777	0.097
0.508	-7.771	0.121
0.505	-7.769	0.149
0.486	-7.771	0.170
0.459	-7.776	0.175
0.434	-7.783	0.164
0.421	-7.789	0.140
0.425	-7.791	0.112
0.443	-7.789	0.091
0.470	-7.783	0.086
0.632	-8.467	0.184
0.645	-8.462	0.209
0.641	-8.459	0.236
0.621	-8.460	0.256
0.594	-8.464	0.261
0.569	-8.469	0.249
0.557	-8.474	0.225
0.561	-8.477	0.197
0.580	-8.476	0.177
0.608	-8.472	0.172
0.713	-9.166	0.264
0.725	-9.162	0.289
0.721	-9.159	0.316
0.701	-9.159	0.336
0.674	-9.162	0.341
0.649	-9.166	0.328
0.636	-9.170	0.304
0.641	-9.173	0.276
0.660	-9.173	0.257
0.688	-9.170	0.252
0.796	-9.862	0.330
0.809	-9.859	0.355
0.806	-9.857	0.382
0.787	-9.858	0.402
0.760	-9.862	0.408
0.735	-9.866	0.396
0.722	-9.870	0.372
0.725	-9.871	0.344
0.744	-9.870	0.324
0.771	-9.867	0.318
0.912	-10.558	0.362
0.925	-10.555	0.386
0.922	-10.553	0.413
0.903	-10.555	0.434
0.876	-10.559	0.439
0.851	-10.564	0.428
0.838	-10.567	0.404
0.841	-10.569	0.376
0.860	-10.567	0.356
0.887	-10.563	0.350
1.018	-11.254	0.416
1.032	-11.251	0.440
1.029	-11.250	0.467
1.010	-11.253	0.488
0.984	-11.257	0.494
0.958	-11.262	0.483
0.945	-11.265	0.459
0.948	-11.265	0.431
0.966	-11.263	0.410
0.993	-11.258	0.404
1.139	-11.948	0.405
1.153	-11.946	0.429
1.151	-11.946	0.457
1.133	-11.950	0.478
1.106	-11.955	0.484
1.081	-11.959	0.474
1.067	-11.961	0.450
1.069	-11.960	0.422
1.087	-11.957	0.401
1.113	-11.952	0.395
		    </DataArray>
         </Points>
         <Cells>
            <DataArray type="Int32" Name="connectivity" NumberOfComponents="1" format="ascii">
 0 10 1 11 2 12 3 13 4 14 5 15 6 16 7 17 8 18 9 19 0 10
 10 20 11 21 12 22 13 23 14 24 15 25 16 26 17 27 18 28 19 29 10 20
 20 30 21 31 22 32 23 33 24 34 25 35 26 36 27 37 28 38 29 39 20 30
 30 40 31 41 32 42 33 43 34 44 35 45 36 46 37 47 38 48 39 49 30 40
 40 50 41 51 42 52 43 53 44 54 45 55 46 56 47 57 48 58 49 59 40 50
 50 60 51 61 52 62 53 63 54 64 55 65 56 66 57 67 58 68 59 69 50 60
 60 70 61 71 62 72 63 73 64 74 65 75 66 76 67 77 68 78 69 79 60 70
 70 80 71 81 72 82 73 83 74 84 75 85 76 86 77 87 78 88 79 89 70 80
 80 90 81 91 82 92 83 93 84 94 85 95 86 96 87 97 88 98 89 99 80 90
 100 110 101 111 102 112 103 113 104 114 105 115 106 116 107 117 108 118 109 119 100 110
 110 120 111 121 112 122 113 123 114 124 115 125 116 126 117 127 118 128 119 129 110 120
 120 130 121 131 122 132 123 133 124 134 125 135 126 136 127 137 128 138 129 139 120 130
 130 140 131 141 132 142 133 143 134 144 135 145 136 146 137 147 138 148 139 149 130 140
 140 150 141 151 142 152 143 153 144 154 145 155 146 156 147 157 148 158 149 159 140 150
 150 160 151 161 152 162 153 163 154 164 155 165 156 166 157 167 158 168 159 169 150 160
 160 170 161 171 162 172 163 173 164 174 165 175 166 176 167 177 168 178 169 179 160 170
 170 180 171 181 172 182 173 183 174 184 175 185 176 186 177 187 178 188 179 189 170 180
 180 190 181 191 182 192 183 193 184 194 185 195 186 196 187 197 188 198 189 199 180 190
 190 200 191 201 192 202 193 203 194 204 195 205 196 206 197 207 198 208 199 209 190 200

            </DataArray>
            <DataArray type="Int32" Name="offsets" NumberOfComponents="1" format="ascii">
 22 44 66 88 110 132 154 176 198 220 242 264 286 308 330 352 374 396 418
            </DataArray>
            <DataArray type="UInt8"  Name="types" NumberOfComponents="1" format="ascii">
6 6 6 6 6 6 6 6 6 6 6 6 6 6 6 6 6 6 6
            </DataArray>
         </Cells>
         <CellData>
           <DataArray type="Float32" Name="combinedRootClassID" NumberOfComponents="1" format="ascii">
 -2.000e+000 -2.000e+000 -2.000e+000 -2.000e+000 -2.000e+000 -2.000e+000 -2.000e+000 -2.000e+000 -2.000e+000 -4.000e+000 -4.000e+000 -4.000e+000 -4.000e+000 -4.000e+000 -4.000e+000 -4.000e+000 -4.000e+000 -4.000e+000 -4.000e+000
           </DataArray>
           <DataArray type="Float32" Name="nitrate/Cmin" NumberOfComponents="1" format="ascii">
 1.000e-003 1.000e-003 1.000e-003 1.000e-003 1.000e-003 1.000e-003 1.000e-003 1.000e-003 1.000e-003 1.000e-003 1.000e-003 1.000e-003 1.000e-003 1.000e-003 1.000e-003 1.000e-003 1.000e-003 1.000e-003 1.000e-003
           </DataArray>
           <DataArray type="Float32" Name="nitrate/Imax" NumberOfComponents="1" format="ascii">
 1.900e+000 1.900e+000 1.900e+000 1.900e+000 1.900e+000 1.900e+000 1.900e+000 1.900e+000 1.900e+000 1.900e+000 1.900e+000 1.900e+000 1.900e+000 1.900e+000 1.900e+000 1.900e+000 1.900e+000 1.900e+000 1.900e+000
           </DataArray>
           <DataArray type="Float32" Name="nitrate/Km" NumberOfComponents="1" format="ascii">
 1.610e-002 1.610e-002 1.610e-002 1.610e-002 1.610e-002 1.610e-002 1.610e-002 1.610e-002 1.610e-002 1.610e-002 1.610e-002 1.610e-002 1.610e-002 1.610e-002 1.610e-002 1.610e-002 1.610e-002 1.610e-002 1.610e-002
           </DataArray>
           <DataArray type="Float32" Name="nitrate/minimalNutrientConcentration" NumberOfComponents="1" format="ascii">
 6.000e+002 6.000e+002 6.000e+002 6.000e+002 6.000e+002 6.000e+002 6.000e+002 6.000e+002 6.000e+002 6.000e+002 6.000e+002 6.000e+002 6.000e+002 6.000e+002 6.000e+002 6.000e+002 6.000e+002 6.000e+002 6.000e+002
           </DataArray>
           <DataArray type="Float32" Name="nitrate/nutrientConcentrationAtTheRootSurface" NumberOfComponents="1" format="ascii">
 1.513e+000 1.284e+000 1.055e+000 7.896e-001 6.501e-001 4.217e-001 2.648e-001 0.000e+000 0.000e+000 1.513e+000 1.713e+000 1.898e+000 2.050e+000 2.226e+000 2.342e+000 2.458e+000 2.644e+000 2.793e+000 2.917e+000
           </DataArray>
           <DataArray type="Float32" Name="nitrate/optimalNutrientConcentration" NumberOfComponents="1" format="ascii">
 1.200e+003 1.200e+003 1.200e+003 1.200e+003 1.200e+003 1.200e+003 1.200e+003 1.200e+003 1.200e+003 1.200e+003 1.200e+003 1.200e+003 1.200e+003 1.200e+003 1.200e+003 1.200e+003 1.200e+003 1.200e+003 1.200e+003
           </DataArray>
           <DataArray type="Float32" Name="nitrate/rootSegmentMinimalNutrientContent" NumberOfComponents="1" format="ascii">
 5.421e+000 4.957e+000 6.160e+000 4.286e+000 6.419e+000 6.406e+000 6.111e+000 6.246e+000 3.970e+000 2.666e-001 2.641e-001 2.619e-001 2.600e-001 2.583e-001 2.569e-001 2.557e-001 2.549e-001 2.542e-001 2.538e-001
           </DataArray>
           <DataArray type="Float32" Name="nitrate/rootSegmentNutrientUptake" NumberOfComponents="1" format="ascii">
 0.000e+000 2.198e+000 1.840e+000 1.497e+000 1.252e+000 8.195e-001 3.004e-001 0.000e+000 0.000e+000 0.000e+000 1.145e+000 9.925e-001 8.401e-001 6.893e-001 5.488e-001 4.199e-001 3.025e-001 1.890e-001 7.558e-002
           </DataArray>
           <DataArray type="Float32" Name="nitrate/rootSegmentOptimalNutrientContent" NumberOfComponents="1" format="ascii">
 1.084e+001 9.915e+000 1.232e+001 8.572e+000 1.284e+001 1.281e+001 1.222e+001 1.249e+001 7.941e+000 5.331e-001 5.282e-001 5.238e-001 5.199e-001 5.166e-001 5.138e-001 5.115e-001 5.097e-001 5.084e-001 5.077e-001
           </DataArray>
           <DataArray type="Float32" Name="parentRootClassID" NumberOfComponents="1" format="ascii">
 -3.000e+000 -3.000e+000 -3.000e+000 -3.000e+000 -3.000e+000 -3.000e+000 -3.000e+000 -3.000e+000 -3.000e+000 -3.000e+000 -3.000e+000 -3.000e+000 -3.000e+000 -3.000e+000 -3.000e+000 -3.000e+000 -3.000e+000 -3.000e+000 -3.000e+000
           </DataArray>
           <DataArray type="Float32" Name="plantID" NumberOfComponents="1" format="ascii">
 4.000e+000 4.000e+000 4.000e+000 4.000e+000 4.000e+000 4.000e+000 4.000e+000 4.000e+000 4.000e+000 4.000e+000 4.000e+000 4.000e+000 4.000e+000 4.000e+000 4.000e+000 4.000e+000 4.000e+000 4.000e+000 4.000e+000
           </DataArray>
           <DataArray type="Float32" Name="plantTypeID" NumberOfComponents="1" format="ascii">
 0.000e+000 0.000e+000 0.000e+000 0.000e+000 0.000e+000 0.000e+000 0.000e+000 0.000e+000 0.000e+000 0.000e+000 0.000e+000 0.000e+000 0.000e+000 0.000e+000 0.000e+000 0.000e+000 0.000e+000 0.000e+000 0.000e+000
           </DataArray>
           <DataArray type="Float32" Name="rootCircumference" NumberOfComponents="1" format="ascii">
 1.269e+000 1.265e+000 1.263e+000 1.262e+000 1.261e+000 1.259e+000 1.258e+000 1.258e+000 1.257e+000 2.898e-001 2.885e-001 2.873e-001 2.862e-001 2.853e-001 2.845e-001 2.839e-001 2.834e-001 2.830e-001 2.828e-001
           </DataArray>
           <DataArray type="Float32" Name="rootClassID" NumberOfComponents="1" format="ascii">
 -2.000e+000 -2.000e+000 -2.000e+000 -2.000e+000 -2.000e+000 -2.000e+000 -2.000e+000 -2.000e+000 -2.000e+000 -4.000e+000 -4.000e+000 -4.000e+000 -4.000e+000 -4.000e+000 -4.000e+000 -4.000e+000 -4.000e+000 -4.000e+000 -4.000e+000
           </DataArray>
           <DataArray type="Float32" Name="rootDiameter" NumberOfComponents="1" format="ascii">
 4.039e-001 4.027e-001 4.021e-001 4.016e-001 4.013e-001 4.009e-001 4.005e-001 4.003e-001 4.001e-001 9.225e-002 9.182e-002 9.144e-002 9.110e-002 9.081e-002 9.056e-002 9.036e-002 9.020e-002 9.009e-002 9.002e-002
           </DataArray>
           <DataArray type="Float32" Name="rootHairDensity" NumberOfComponents="1" format="ascii">
 0.000e+000 0.000e+000 0.000e+000 0.000e+000 0.000e+000 0.000e+000 0.000e+000 0.000e+000 0.000e+000 2.000e+003 2.000e+003 2.000e+003 2.000e+003 2.000e+003 2.000e+003 2.000e+003 2.000e+003 2.000e+003 2.000e+003
           </DataArray>
           <DataArray type="Float32" Name="rootHairDiameter" NumberOfComponents="1" format="ascii">
 5.000e-004 5.000e-004 5.000e-004 5.000e-004 5.000e-004 5.000e-004 5.000e-004 5.000e-004 5.000e-004 5.000e-004 5.000e-004 5.000e-004 5.000e-004 5.000e-004 5.000e-004 5.000e-004 5.000e-004 5.000e-004 5.000e-004
           </DataArray>
           <DataArray type="Float32" Name="rootHairLength" NumberOfComponents="1" format="ascii">
 3.000e-002 3.000e-002 3.000e-002 2.700e-002 2.100e-002 1.200e-002 3.000e-003 0.000e+000 0.000e+000 3.000e-002 3.000e-002 3.000e-002 3.000e-002 2.400e-002 1.500e-002 6.000e-003 0.000e+000 0.000e+000 0.000e+000
           </DataArray>
           <DataArray type="Float32" Name="rootHairSurfaceArea" NumberOfComponents="1" format="ascii">
 0.000e+000 0.000e+000 0.000e+000 0.000e+000 0.000e+000 0.000e+000 0.000e+000 0.000e+000 0.000e+000 9.425e-002 9.425e-002 9.425e-002 9.425e-002 7.540e-002 4.712e-002 1.885e-002 0.000e+000 0.000e+000 0.000e+000
           </DataArray>
           <DataArray type="Float32" Name="rootLength2Base" NumberOfComponents="1" format="ascii">
 0.000e+000 7.500e-001 1.440e+000 2.300e+000 2.900e+000 3.800e+000 4.700e+000 5.560e+000 6.440e+000 0.000e+000 7.071e-001 1.414e+000 2.121e+000 2.828e+000 3.535e+000 4.243e+000 4.950e+000 5.657e+000 6.364e+000
           </DataArray>
           <DataArray type="Float32" Name="rootPotentialSecondaryGrowth" NumberOfComponents="1" format="ascii">
 4.039e-001 4.027e-001 4.021e-001 4.016e-001 4.013e-001 4.009e-001 4.005e-001 4.003e-001 4.001e-001 9.225e-002 9.182e-002 9.144e-002 9.110e-002 9.081e-002 9.056e-002 9.036e-002 9.020e-002 9.009e-002 9.002e-002
           </DataArray>
           <DataArray type="Float32" Name="rootSegmentAge" NumberOfComponents="1" format="ascii">
 3.000e+000 2.500e+000 2.200e+000 1.900e+000 1.700e+000 1.400e+000 1.100e+000 8.000e-001 4.000e-001 3.000e+000 2.700e+000 2.400e+000 2.100e+000 1.800e+000 1.500e+000 1.200e+000 9.000e-001 6.000e-001 3.000e-001
           </DataArray>
           <DataArray type="Float32" Name="rootSegmentCarbonCostOfExudates" NumberOfComponents="1" format="ascii">
 0.000e+000 0.000e+000 0.000e+000 0.000e+000 0.000e+000 0.000e+000 0.000e+000 0.000e+000 0.000e+000 3.343e-005 2.983e-005 2.646e-005 2.304e-005 1.987e-005 1.652e-005 1.317e-005 9.537e-006 5.904e-006 1.984e-006
           </DataArray>
           <DataArray type="Float32" Name="rootSegmentDryWeight" NumberOfComponents="1" format="ascii">
 9.035e-003 8.262e-003 1.027e-002 7.144e-003 1.070e-002 1.068e-002 1.019e-002 1.041e-002 6.617e-003 4.443e-004 4.401e-004 4.365e-004 4.333e-004 4.305e-004 4.281e-004 4.262e-004 4.248e-004 4.237e-004 4.231e-004
           </DataArray>
           <DataArray type="Float32" Name="rootSegmentLength" NumberOfComponents="1" format="ascii">
 7.500e-001 6.900e-001 8.600e-001 6.000e-001 9.000e-001 9.000e-001 8.600e-001 8.800e-001 5.600e-001 7.071e-001 7.071e-001 7.071e-001 7.071e-001 7.071e-001 7.071e-001 7.071e-001 7.071e-001 7.071e-001 7.071e-001
           </DataArray>
           <DataArray type="Float32" Name="rootSegmentLengthDuration" NumberOfComponents="1" format="ascii">
 2.045e+000 1.621e+000 1.765e+000 1.080e+000 1.400e+000 1.130e+000 8.247e-001 5.387e-001 1.227e-001 2.019e+000 1.807e+000 1.595e+000 1.383e+000 1.171e+000 9.585e-001 7.464e-001 5.343e-001 3.221e-001 1.139e-001
           </DataArray>
           <DataArray type="Float32" Name="rootSegmentRespiration" NumberOfComponents="1" format="ascii">
 3.614e-004 3.305e-004 4.107e-004 3.036e-004 5.082e-004 5.872e-004 6.366e-004 7.287e-004 5.294e-004 1.777e-005 1.761e-005 1.746e-005 1.733e-005 1.937e-005 2.248e-005 2.557e-005 2.867e-005 3.178e-005 3.490e-005
           </DataArray>
           <DataArray type="Float32" Name="rootSegmentSecondaryPotentialCarbonSinkForGrowth" NumberOfComponents="1" format="ascii">
 6.642e-005 4.452e-005 4.221e-005 2.267e-005 2.526e-005 1.645e-005 9.113e-006 3.846e-006 3.721e-007 8.705e-006 6.954e-006 5.404e-006 4.053e-006 2.900e-006 1.941e-006 1.176e-006 6.033e-007 2.221e-007 3.172e-008
           </DataArray>
           <DataArray type="Float32" Name="rootSegmentSurfaceArea" NumberOfComponents="1" format="ascii">
 9.518e-001 8.730e-001 1.086e+000 7.570e-001 1.135e+000 1.133e+000 1.082e+000 1.107e+000 7.038e-001 2.049e-001 2.040e-001 2.031e-001 2.024e-001 2.017e-001 2.012e-001 2.007e-001 2.004e-001 2.001e-001 2.000e-001
           </DataArray>
           <DataArray type="Float32" Name="rootSegmentVolume" NumberOfComponents="1" format="ascii">
 9.611e-002 8.790e-002 1.092e-001 7.599e-002 1.138e-001 1.136e-001 1.084e-001 1.107e-001 7.040e-002 4.726e-003 4.682e-003 4.643e-003 4.609e-003 4.580e-003 4.555e-003 4.534e-003 4.519e-003 4.507e-003 4.501e-003
           </DataArray>
           <DataArray type="Float32" Name="rootSegmentWaterUptake" NumberOfComponents="1" format="ascii">
 4.431e-003 4.077e-003 5.081e-003 3.545e-003 5.317e-003 5.317e-003 5.065e-003 0.000e+000 0.000e+000 4.178e-003 4.178e-003 4.178e-003 4.178e-003 4.178e-003 4.178e-003 4.178e-003 4.038e-003 3.351e-003 1.437e-003
           </DataArray>
           <DataArray type="Float32" Name="spatialRootDensity" NumberOfComponents="1" format="ascii">
 3.376e-001 1.688e-001 0.000e+000 0.000e+000 0.000e+000 0.000e+000 0.000e+000 0.000e+000 0.000e+000 3.438e-001 1.790e-001 0.000e+000 0.000e+000 0.000e+000 0.000e+000 0.000e+000 0.000e+000 0.000e+000 0.000e+000
           </DataArray>
           <DataArray type="Float32" Name="volumetricWaterContentAtTheRootSurface" NumberOfComponents="1" format="ascii">
 2.217e-001 2.217e-001 2.216e-001 2.216e-001 2.215e-001 2.214e-001 2.214e-001 0.000e+000 0.000e+000 2.217e-001 2.218e-001 2.219e-001 2.219e-001 2.220e-001 2.220e-001 2.221e-001 2.222e-001 2.222e-001 2.223e-001
           </DataArray>
         </CellData>
      </Piece>
   </UnstructuredGrid>
</VTKFile>
