<?xml version="1.0"?>
<VTKFile type="UnstructuredGrid" version="0.1" byte_order="LittleEndian">
   <UnstructuredGrid>
      <Piece NumberOfPoints="21830" NumberOfCells="1529">
         <Points>
            <DataArray type="Float32" Name="Position" NumberOfComponents="3" format="ascii">
-0.034	-5.072	0.137
-0.035	-5.064	0.142
-0.036	-5.055	0.141
-0.036	-5.048	0.135
-0.037	-5.046	0.126
-0.037	-5.049	0.117
-0.037	-5.057	0.113
-0.036	-5.066	0.113
-0.035	-5.073	0.119
-0.035	-5.075	0.129
-0.896	-5.139	0.181
-0.898	-5.131	0.186
-0.899	-5.122	0.186
-0.901	-5.115	0.180
-0.901	-5.113	0.171
-0.901	-5.116	0.162
-0.899	-5.123	0.157
-0.897	-5.132	0.157
-0.896	-5.140	0.163
-0.895	-5.142	0.172
-1.719	-5.408	0.137
-1.721	-5.402	0.143
-1.724	-5.393	0.144
-1.727	-5.386	0.139
-1.728	-5.382	0.131
-1.728	-5.384	0.122
-1.726	-5.391	0.115
-1.723	-5.400	0.115
-1.720	-5.407	0.119
-1.719	-5.410	0.128
-1.850	-5.458	0.152
-1.852	-5.452	0.159
-1.855	-5.443	0.160
-1.858	-5.435	0.156
-1.861	-5.432	0.148
-1.861	-5.434	0.139
-1.860	-5.440	0.132
-1.857	-5.449	0.131
-1.853	-5.456	0.135
-1.851	-5.460	0.143
-0.052	-5.165	0.243
-0.047	-5.157	0.244
-0.049	-5.148	0.245
-0.055	-5.141	0.244
-0.064	-5.139	0.242
-0.072	-5.143	0.240
-0.076	-5.151	0.239
-0.075	-5.160	0.238
-0.069	-5.167	0.239
-0.060	-5.168	0.241
-0.223	-5.233	1.096
-0.219	-5.225	1.099
-0.220	-5.216	1.100
-0.226	-5.209	1.100
-0.235	-5.207	1.097
-0.243	-5.211	1.094
-0.247	-5.218	1.091
-0.245	-5.227	1.089
-0.239	-5.234	1.090
-0.230	-5.236	1.092
-0.591	-5.552	1.826
-0.588	-5.545	1.832
-0.590	-5.537	1.836
-0.597	-5.530	1.836
-0.605	-5.528	1.833
-0.612	-5.531	1.827
-0.615	-5.537	1.821
-0.613	-5.545	1.818
-0.606	-5.552	1.817
-0.598	-5.554	1.821
-0.894	-5.936	2.273
-0.890	-5.928	2.273
-0.891	-5.919	2.273
-0.898	-5.912	2.273
-0.907	-5.911	2.273
-0.915	-5.915	2.273
-0.920	-5.923	2.273
-0.918	-5.933	2.273
-0.912	-5.939	2.273
-0.902	-5.941	2.273
-0.152	-6.217	1.086
-0.154	-6.209	1.090
-0.155	-6.200	1.088
-0.155	-6.194	1.081
-0.154	-6.192	1.072
-0.152	-6.197	1.064
-0.150	-6.205	1.060
-0.149	-6.214	1.062
-0.149	-6.220	1.069
-0.150	-6.222	1.078
-1.002	-6.338	0.937
-1.004	-6.330	0.942
-1.006	-6.321	0.941
-1.007	-6.315	0.934
-1.006	-6.312	0.926
-1.004	-6.316	0.917
-1.001	-6.323	0.913
-0.999	-6.332	0.914
-0.998	-6.339	0.920
-0.999	-6.341	0.929
-1.807	-6.644	0.785
-1.809	-6.637	0.790
-1.812	-6.628	0.791
-1.814	-6.621	0.786
-1.815	-6.618	0.777
-1.814	-6.620	0.768
-1.812	-6.627	0.762
-1.809	-6.636	0.762
-1.806	-6.643	0.767
-1.806	-6.646	0.776
-1.835	-6.652	0.788
-1.836	-6.645	0.794
-1.839	-6.637	0.794
-1.842	-6.629	0.790
-1.844	-6.626	0.781
-1.844	-6.628	0.772
-1.843	-6.635	0.766
-1.840	-6.644	0.765
-1.838	-6.652	0.770
-1.836	-6.655	0.779
-0.156	-6.326	1.140
-0.154	-6.322	1.148
-0.152	-6.323	1.157
-0.152	-6.329	1.164
-0.155	-6.338	1.166
-0.158	-6.346	1.162
-0.160	-6.350	1.154
-0.162	-6.349	1.145
-0.162	-6.342	1.138
-0.159	-6.334	1.137
0.663	-6.558	0.969
0.666	-6.554	0.977
0.669	-6.556	0.986
0.669	-6.563	0.992
0.667	-6.572	0.994
0.664	-6.580	0.990
0.661	-6.583	0.982
0.658	-6.581	0.973
0.658	-6.574	0.967
0.659	-6.565	0.966
1.435	-6.710	0.593
1.440	-6.707	0.601
1.445	-6.710	0.608
1.447	-6.717	0.613
1.446	-6.726	0.614
1.442	-6.734	0.610
1.437	-6.737	0.603
1.432	-6.734	0.596
1.430	-6.727	0.590
1.431	-6.717	0.590
1.476	-6.729	0.572
1.484	-6.729	0.576
1.493	-6.729	0.575
1.500	-6.729	0.568
1.501	-6.729	0.559
1.497	-6.729	0.551
1.489	-6.729	0.547
1.480	-6.729	0.548
1.473	-6.729	0.555
1.472	-6.729	0.564
-0.162	-6.455	1.215
-0.153	-6.456	1.217
-0.147	-6.461	1.222
-0.147	-6.468	1.228
-0.152	-6.474	1.233
-0.160	-6.478	1.235
-0.169	-6.476	1.233
-0.175	-6.471	1.228
-0.176	-6.464	1.222
-0.171	-6.458	1.217
-0.099	-7.039	0.554
-0.090	-7.040	0.556
-0.084	-7.045	0.561
-0.083	-7.052	0.566
-0.087	-7.058	0.571
-0.095	-7.062	0.573
-0.104	-7.062	0.571
-0.111	-7.057	0.566
-0.112	-7.050	0.560
-0.108	-7.043	0.555
0.057	-7.533	-0.085
0.065	-7.533	-0.081
0.074	-7.533	-0.083
0.081	-7.533	-0.089
0.082	-7.533	-0.098
0.078	-7.533	-0.107
0.070	-7.533	-0.111
0.061	-7.533	-0.109
0.054	-7.533	-0.103
0.053	-7.533	-0.094
-0.158	-6.593	1.285
-0.161	-6.585	1.291
-0.165	-6.583	1.299
-0.169	-6.586	1.306
-0.172	-6.593	1.310
-0.173	-6.603	1.310
-0.170	-6.610	1.305
-0.166	-6.613	1.297
-0.162	-6.609	1.289
-0.159	-6.602	1.285
0.608	-6.648	1.712
0.606	-6.641	1.717
0.602	-6.638	1.725
0.597	-6.641	1.732
0.594	-6.648	1.736
0.593	-6.657	1.736
0.595	-6.665	1.731
0.599	-6.668	1.723
0.604	-6.665	1.716
0.607	-6.658	1.712
1.075	-6.711	2.007
1.073	-6.703	2.012
1.068	-6.700	2.019
1.063	-6.702	2.027
1.060	-6.709	2.031
1.058	-6.719	2.031
1.060	-6.726	2.026
1.065	-6.730	2.019
1.070	-6.727	2.011
1.074	-6.720	2.007
-0.168	-6.723	1.352
-0.169	-6.718	1.360
-0.169	-6.719	1.369
-0.170	-6.724	1.376
-0.171	-6.733	1.378
-0.172	-6.742	1.375
-0.172	-6.747	1.367
-0.171	-6.746	1.358
-0.170	-6.740	1.351
-0.169	-6.731	1.348
0.691	-6.806	1.413
0.691	-6.801	1.421
0.691	-6.802	1.430
0.690	-6.808	1.437
0.689	-6.817	1.439
0.688	-6.825	1.436
0.688	-6.830	1.428
0.688	-6.829	1.419
0.689	-6.823	1.412
0.690	-6.814	1.410
1.540	-6.909	1.436
1.540	-6.904	1.444
1.540	-6.905	1.453
1.539	-6.911	1.460
1.538	-6.920	1.462
1.537	-6.928	1.458
1.536	-6.933	1.450
1.537	-6.932	1.441
1.538	-6.926	1.434
1.539	-6.917	1.432
-0.173	-6.879	1.437
-0.174	-6.872	1.442
-0.175	-6.863	1.442
-0.177	-6.855	1.436
-0.178	-6.853	1.427
-0.178	-6.856	1.418
-0.178	-6.864	1.413
-0.176	-6.873	1.413
-0.175	-6.880	1.419
-0.174	-6.883	1.428
-1.043	-6.998	1.522
-1.044	-6.990	1.527
-1.046	-6.981	1.526
-1.047	-6.974	1.520
-1.047	-6.972	1.511
-1.047	-6.975	1.503
-1.046	-6.983	1.498
-1.045	-6.992	1.498
-1.044	-6.999	1.504
-1.043	-7.001	1.513
-1.536	-7.065	1.504
-1.537	-7.057	1.509
-1.539	-7.048	1.508
-1.539	-7.041	1.502
-1.539	-7.039	1.493
-1.539	-7.042	1.484
-1.537	-7.050	1.480
-1.536	-7.060	1.481
-1.535	-7.066	1.487
-1.535	-7.068	1.496
-0.178	-7.015	1.498
-0.179	-7.009	1.505
-0.182	-7.000	1.507
-0.185	-6.993	1.503
-0.188	-6.989	1.494
-0.189	-6.991	1.485
-0.188	-6.997	1.479
-0.185	-7.006	1.477
-0.182	-7.013	1.481
-0.179	-7.017	1.489
-0.971	-7.308	1.649
-0.972	-7.302	1.657
-0.976	-7.294	1.660
-0.980	-7.287	1.657
-0.985	-7.283	1.650
-0.987	-7.284	1.641
-0.986	-7.289	1.633
-0.982	-7.298	1.630
-0.977	-7.305	1.633
-0.973	-7.309	1.640
-1.495	-7.688	1.853
-1.496	-7.684	1.861
-1.500	-7.676	1.865
-1.505	-7.669	1.863
-1.511	-7.665	1.857
-1.514	-7.665	1.848
-1.513	-7.670	1.840
-1.510	-7.678	1.836
-1.504	-7.685	1.838
-1.498	-7.689	1.844
-0.178	-7.148	1.555
-0.175	-7.140	1.557
-0.177	-7.131	1.558
-0.184	-7.125	1.559
-0.193	-7.124	1.559
-0.201	-7.128	1.558
-0.205	-7.137	1.556
-0.203	-7.146	1.555
-0.196	-7.152	1.554
-0.186	-7.153	1.554
-0.200	-7.295	2.415
-0.196	-7.287	2.416
-0.198	-7.278	2.417
-0.205	-7.272	2.417
-0.214	-7.270	2.417
-0.222	-7.275	2.415
-0.226	-7.283	2.414
-0.224	-7.292	2.413
-0.218	-7.298	2.412
-0.208	-7.300	2.413
-0.324	-7.351	3.086
-0.324	-7.347	3.094
-0.324	-7.348	3.103
-0.324	-7.355	3.110
-0.324	-7.364	3.111
-0.324	-7.372	3.107
-0.324	-7.377	3.099
-0.324	-7.375	3.090
-0.324	-7.369	3.083
-0.324	-7.359	3.082
-0.186	-7.269	1.609
-0.187	-7.262	1.615
-0.190	-7.259	1.623
-0.195	-7.262	1.630
-0.199	-7.269	1.634
-0.202	-7.278	1.633
-0.202	-7.285	1.627
-0.198	-7.288	1.619
-0.193	-7.285	1.612
-0.189	-7.278	1.608
0.546	-7.530	1.995
0.545	-7.523	2.002
0.542	-7.520	2.010
0.538	-7.524	2.018
0.534	-7.531	2.021
0.532	-7.540	2.020
0.533	-7.547	2.014
0.535	-7.549	2.005
0.540	-7.546	1.998
0.544	-7.538	1.994
1.046	-7.677	2.195
1.054	-7.677	2.199
1.064	-7.677	2.198
1.070	-7.677	2.191
1.072	-7.677	2.182
1.067	-7.677	2.174
1.059	-7.677	2.169
1.050	-7.677	2.171
1.043	-7.677	2.177
1.042	-7.677	2.187
-0.199	-7.397	1.677
-0.190	-7.398	1.677
-0.183	-7.404	1.681
-0.181	-7.411	1.686
-0.185	-7.417	1.692
-0.193	-7.420	1.695
-0.203	-7.419	1.695
-0.209	-7.414	1.692
-0.211	-7.406	1.686
-0.207	-7.400	1.681
-0.281	-7.934	0.997
-0.272	-7.934	0.997
-0.264	-7.938	0.999
-0.260	-7.946	1.003
-0.263	-7.953	1.008
-0.270	-7.958	1.011
-0.279	-7.959	1.011
-0.287	-7.954	1.009
-0.290	-7.947	1.005
-0.288	-7.939	1.000
-0.268	-8.121	0.507
-0.259	-8.120	0.506
-0.250	-8.123	0.508
-0.246	-8.131	0.511
-0.247	-8.139	0.514
-0.253	-8.146	0.516
-0.262	-8.147	0.517
-0.270	-8.144	0.515
-0.275	-8.136	0.512
-0.274	-8.128	0.509
-0.076	-5.251	0.336
-0.077	-5.244	0.342
-0.080	-5.243	0.351
-0.083	-5.247	0.359
-0.086	-5.255	0.362
-0.087	-5.264	0.360
-0.086	-5.271	0.354
-0.084	-5.272	0.345
-0.080	-5.268	0.337
-0.077	-5.260	0.334
0.760	-5.415	0.630
0.759	-5.408	0.636
0.756	-5.406	0.645
0.753	-5.410	0.653
0.750	-5.418	0.656
0.748	-5.427	0.654
0.749	-5.434	0.648
0.752	-5.436	0.639
0.756	-5.432	0.632
0.759	-5.424	0.628
1.551	-5.590	0.926
1.551	-5.583	0.932
1.548	-5.581	0.941
1.544	-5.584	0.948
1.540	-5.592	0.952
1.538	-5.601	0.950
1.538	-5.608	0.944
1.541	-5.610	0.935
1.545	-5.606	0.928
1.549	-5.599	0.924
1.895	-5.735	1.071
1.895	-5.728	1.078
1.893	-5.726	1.086
1.888	-5.729	1.094
1.883	-5.736	1.097
1.881	-5.744	1.096
1.880	-5.751	1.089
1.883	-5.754	1.081
1.888	-5.750	1.073
1.892	-5.743	1.069
-0.197	-7.533	1.741
-0.188	-7.535	1.744
-0.183	-7.540	1.750
-0.183	-7.546	1.756
-0.189	-7.552	1.761
-0.198	-7.554	1.762
-0.207	-7.553	1.759
-0.212	-7.548	1.753
-0.211	-7.541	1.747
-0.206	-7.536	1.742
-0.093	-8.180	1.140
-0.084	-8.181	1.143
-0.079	-8.185	1.149
-0.079	-8.192	1.156
-0.085	-8.198	1.160
-0.093	-8.201	1.161
-0.102	-8.200	1.158
-0.107	-8.195	1.152
-0.107	-8.189	1.145
-0.102	-8.183	1.141
0.088	-8.685	0.663
0.097	-8.683	0.661
0.102	-8.678	0.655
0.102	-8.672	0.649
0.097	-8.666	0.643
0.088	-8.664	0.641
0.079	-8.666	0.643
0.074	-8.672	0.649
0.074	-8.678	0.655
0.079	-8.683	0.661
-0.203	-7.668	1.805
-0.194	-7.668	1.806
-0.187	-7.672	1.810
-0.184	-7.680	1.814
-0.187	-7.688	1.818
-0.194	-7.693	1.820
-0.203	-7.693	1.819
-0.211	-7.689	1.816
-0.214	-7.682	1.811
-0.211	-7.674	1.807
-0.103	-8.098	1.046
-0.094	-8.097	1.047
-0.086	-8.100	1.051
-0.083	-8.108	1.056
-0.085	-8.116	1.059
-0.092	-8.122	1.059
-0.101	-8.124	1.057
-0.109	-8.120	1.054
-0.112	-8.113	1.049
-0.110	-8.104	1.046
0.176	-8.301	0.412
0.184	-8.299	0.415
[...]
         <CellData>
           <DataArray type="Float32" Name="combinedRootClassID" NumberOfComponents="1" format="ascii">
 -1.300e+001 -1.300e+001 -1.300e+001 -1.300e+001 -1.300e+001 -1.300e+001 -1.300e+001 -1.300e+001 -1.300e+001 -1.300e+001 -1.300e+001 -1.300e+001 -1.300e+001 -1.300e+001 -1.300e+001 -1.300e+001 -1.300e+001 -1.300e+001 -1.300e+001 -1.300e+001 -1.300e+001 -1.300e+001 -1.300e+001 -1.300e+001 -1.300e+001 -1.300e+001 -1.300e+001 -1.300e+001 -1.300e+001 -1.300e+001 -1.300e+001 -1.300e+001 -1.300e+001 -1.300e+001 -1.300e+001 -1.300e+001 -1.300e+001 -1.300e+001 -1.300e+001 -1.300e+001 -1.300e+001 -1.300e+001 -1.300e+001 -1.300e+001 -1.300e+001 -1.300e+001 -1.300e+001 -1.300e+001 -1.300e+001 -1.300e+001 -1.300e+001 -1.300e+001 -1.300e+001 -1.300e+001 -1.300e+001 -1.300e+001 -1.300e+001 -1.300e+001 -1.300e+001 -1.300e+001 -1.300e+001 -1.300e+001 -1.300e+001 -1.300e+001 -1.300e+001 -1.300e+001 -1.300e+001 -1.300e+001 -1.300e+001 -1.300e+001 -1.300e+001 -1.300e+001 -1.300e+001 -1.300e+001 -1.300e+001 -1.300e+001 -1.300e+001 -1.300e+001 -1.300e+001 -1.300e+001 -1.300e+001 -1.300e+001 -1.300e+001 -1.300e+001 -1.300e+001 -1.300e+001 -1.300e+001 -1.300e+001 -1.300e+001 -1.300e+001 -1.300e+001 -1.300e+001 -1.300e+001 -1.300e+001 -1.300e+001 -1.300e+001 -1.300e+001 -1.300e+001 -1.300e+001 -1.300e+001 -1.300e+001 -1.300e+001 -1.300e+001 -1.300e+001 -1.300e+001 -1.300e+001 -1.300e+001 -1.300e+001 -1.300e+001 -1.300e+001 -1.300e+001 -1.300e+001 -1.300e+001 -1.300e+001 -1.300e+001 -1.300e+001 -1.300e+001 -1.300e+001 -1.300e+001 -1.300e+001 -1.300e+001 -1.300e+001 -1.300e+001 -1.300e+001 -1.300e+001 -1.300e+001 -1.300e+001 -1.300e+001 -1.300e+001 -1.300e+001 -1.300e+001 -1.300e+001 -1.300e+001 -1.300e+001 -1.300e+001 -1.300e+001 -1.300e+001 -1.300e+001 -1.300e+001 -1.300e+001 -1.300e+001 -1.300e+001 -1.300e+001 -1.300e+001 -1.300e+001 -1.300e+001 -1.300e+001 -1.300e+001 -1.300e+001 -1.300e+001 -5.000e+000 -5.000e+000 -5.000e+000 -5.000e+000 -5.000e+000 -5.000e+000 -5.000e+000 -5.000e+000 -5.000e+000 -5.000e+000 -5.000e+000 -5.000e+000 -5.000e+000 -5.000e+000 -5.000e+000 -5.000e+000 -5.000e+000 -5.000e+000 -5.000e+000 -5.000e+000 -5.000e+000 -5.000e+000 -5.000e+000 -5.000e+000 -5.000e+000 -5.000e+000 -5.000e+000 -5.000e+000 -1.300e+001 -1.300e+001 -1.300e+001 -1.300e+001 -1.300e+001 -1.300e+001 -1.300e+001 -1.300e+001 -1.300e+001 -1.300e+001 -1.300e+001 -1.300e+001 -1.300e+001 -1.300e+001 -1.300e+001 -1.300e+001 -1.300e+001 -1.300e+001 -1.300e+001 -1.300e+001 -1.300e+001 -1.300e+001 -1.300e+001 -1.300e+001 -1.300e+001 -1.300e+001 -1.300e+001 -1.300e+001 -1.300e+001 -1.300e+001 -1.300e+001 -1.300e+001 -1.300e+001 -1.300e+001 -1.300e+001 -1.300e+001 -1.300e+001 -1.300e+001 -1.300e+001 -1.300e+001 -1.300e+001 -1.300e+001 -1.300e+001 -1.300e+001 -1.300e+001 -1.300e+001 -1.300e+001 -1.300e+001 -1.300e+001 -1.300e+001 -1.300e+001 -1.300e+001 -1.300e+001 -1.300e+001 -1.300e+001 -1.300e+001 -1.300e+001 -1.300e+001 -1.300e+001 -1.300e+001 -1.300e+001 -1.300e+001 -1.300e+001 -1.300e+001 -1.300e+001 -1.300e+001 -1.300e+001 -1.300e+001 -1.300e+001 -1.300e+001 -1.300e+001 -1.300e+001 -1.300e+001 -1.300e+001 -1.300e+001 -1.300e+001 -1.300e+001 -1.300e+001 -1.300e+001 -1.300e+001 -1.300e+001 -1.300e+001 -1.300e+001 -1.300e+001 -1.300e+001 -1.300e+001 -1.300e+001 -1.300e+001 -1.300e+001 -1.300e+001 -1.300e+001 -1.300e+001 -1.300e+001 -1.300e+001 -1.300e+001 -1.300e+001 -1.300e+001 -1.300e+001 -1.300e+001 -1.300e+001 -1.300e+001 -1.300e+001 -1.300e+001 -1.300e+001 -1.300e+001 -1.300e+001 -1.300e+001 -1.300e+001 -1.300e+001 -1.300e+001 -1.300e+001 -1.300e+001 -1.300e+001 -1.300e+001 -1.300e+001 -1.300e+001 -1.300e+001 -1.300e+001 -1.300e+001 -1.300e+001 -1.300e+001 -1.300e+001 -1.300e+001 -1.300e+001 -1.300e+001 -1.300e+001 -1.300e+001 -1.300e+001 -1.300e+001 -1.300e+001 -1.300e+001 -1.300e+001 -1.300e+001 -1.300e+001 -1.300e+001 -1.300e+001 -1.300e+001 -1.300e+001 -1.300e+001 -1.300e+001 -1.300e+001 -1.300e+001 -1.300e+001 -1.300e+001 -1.300e+001 -1.300e+001 -1.300e+001 -1.300e+001 -1.300e+001 -1.300e+001 -1.300e+001 -1.300e+001 -5.000e+000 -5.000e+000 -5.000e+000 -5.000e+000 -5.000e+000 -5.000e+000 -5.000e+000 -5.000e+000 -5.000e+000 -5.000e+000 -5.000e+000 -5.000e+000 -5.000e+000 -5.000e+000 -5.000e+000 -5.000e+000 -5.000e+000 -5.000e+000 -5.000e+000 -5.000e+000 -5.000e+000 -5.000e+000 -5.000e+000 -5.000e+000 -5.000e+000 -5.000e+000 -5.000e+000 -5.000e+000 -1.300e+001 -1.300e+001 -1.300e+001 -1.300e+001 -1.300e+001 -1.300e+001 -1.300e+001 -1.300e+001 -1.300e+001 -1.300e+001 -1.300e+001 -1.300e+001 -1.300e+001 -1.300e+001 -1.300e+001 -1.300e+001 -1.300e+001 -1.300e+001 -1.300e+001 -1.300e+001 -1.300e+001 -1.300e+001 -1.300e+001 -1.300e+001 -1.300e+001 -1.300e+001 -1.300e+001 -1.300e+001 -1.300e+001 -1.300e+001 -1.300e+001 -1.300e+001 -1.300e+001 -1.300e+001 -1.300e+001 -1.300e+001 -1.300e+001 -1.300e+001 -1.300e+001 -1.300e+001 -1.300e+001 -1.300e+001 -1.300e+001 -1.300e+001 -1.300e+001 -1.300e+001 -1.300e+001 -1.300e+001 -1.300e+001 -1.300e+001 -1.300e+001 -1.300e+001 -1.300e+001 -1.300e+001 -1.300e+001 -1.300e+001 -1.300e+001 -1.300e+001 -1.300e+001 -1.300e+001 -1.300e+001 -1.300e+001 -1.300e+001 -1.300e+001 -1.300e+001 -1.300e+001 -1.300e+001 -1.300e+001 -1.300e+001 -1.300e+001 -1.300e+001 -1.300e+001 -1.300e+001 -1.300e+001 -1.300e+001 -1.300e+001 -1.300e+001 -1.300e+001 -1.300e+001 -1.300e+001 -1.300e+001 -1.300e+001 -1.300e+001 -1.300e+001 -1.300e+001 -1.300e+001 -1.300e+001 -1.300e+001 -1.300e+001 -1.300e+001 -1.300e+001 -1.300e+001 -1.300e+001 -1.300e+001 -1.300e+001 -1.300e+001 -1.300e+001 -1.300e+001 -1.300e+001 -1.300e+001 -1.300e+001 -1.300e+001 -1.300e+001 -1.300e+001 -1.300e+001 -1.300e+001 -1.300e+001 -1.300e+001 -1.300e+001 -1.300e+001 -1.300e+001 -1.300e+001 -1.300e+001 -1.300e+001 -1.300e+001 -1.300e+001 -1.300e+001 -1.300e+001 -1.300e+001 -1.300e+001 -1.300e+001 -1.300e+001 -1.300e+001 -1.300e+001 -1.300e+001 -1.300e+001 -1.300e+001 -1.300e+001 -1.300e+001 -1.300e+001 -1.300e+001 -1.300e+001 -1.300e+001 -1.300e+001 -1.300e+001 -1.300e+001 -1.300e+001 -1.300e+001 -1.300e+001 -1.300e+001 -1.300e+001 -1.300e+001 -1.300e+001 -1.300e+001 -1.300e+001 -1.300e+001 -1.300e+001 -1.300e+001 -1.300e+001 -1.300e+001 -1.300e+001 -1.300e+001 -1.300e+001 -5.000e+000 -5.000e+000 -5.000e+000 -5.000e+000 -5.000e+000 -5.000e+000 -5.000e+000 -5.000e+000 -5.000e+000 -5.000e+000 -5.000e+000 -5.000e+000 -5.000e+000 -5.000e+000 -5.000e+000 -5.000e+000 -5.000e+000 -5.000e+000 -5.000e+000 -5.000e+000 -5.000e+000 -5.000e+000 -5.000e+000 -5.000e+000 -5.000e+000 -5.000e+000 -5.000e+000 -5.000e+000 -1.300e+001 -1.300e+001 -1.300e+001 -1.300e+001 -1.300e+001 -1.300e+001 -1.300e+001 -1.300e+001 -1.300e+001 -1.300e+001 -1.300e+001 -1.300e+001 -1.300e+001 -1.300e+001 -1.300e+001 -1.300e+001 -1.300e+001 -1.300e+001 -1.300e+001 -1.300e+001 -1.300e+001 -1.300e+001 -1.300e+001 -1.300e+001 -1.300e+001 -1.300e+001 -1.300e+001 -1.300e+001 -1.300e+001 -1.300e+001 -1.300e+001 -1.300e+001 -1.300e+001 -1.300e+001 -1.300e+001 -1.300e+001 -1.300e+001 -1.300e+001 -1.300e+001 -1.300e+001 -1.300e+001 -1.300e+001 -1.300e+001 -1.300e+001 -1.300e+001 -1.300e+001 -1.300e+001 -1.300e+001 -1.300e+001 -1.300e+001 -1.300e+001 -1.300e+001 -1.300e+001 -1.300e+001 -1.300e+001 -1.300e+001 -1.300e+001 -1.300e+001 -1.300e+001 -1.300e+001 -1.300e+001 -1.300e+001 -1.300e+001 -1.300e+001 -1.300e+001 -1.300e+001 -1.300e+001 -1.300e+001 -1.300e+001 -1.300e+001 -1.300e+001 -1.300e+001 -1.300e+001 -1.300e+001 -1.300e+001 -1.300e+001 -1.300e+001 -1.300e+001 -1.300e+001 -1.300e+001 -1.300e+001 -1.300e+001 -1.300e+001 -1.300e+001 -1.300e+001 -1.300e+001 -1.300e+001 -1.300e+001 -1.300e+001 -1.300e+001 -1.300e+001 -1.300e+001 -1.300e+001 -1.300e+001 -1.300e+001 -1.300e+001 -1.300e+001 -1.300e+001 -1.300e+001 -1.300e+001 -1.300e+001 -1.300e+001 -1.300e+001 -1.300e+001 -1.300e+001 -1.300e+001 -1.300e+001 -1.300e+001 -1.300e+001 -1.300e+001 -1.300e+001 -1.300e+001 -1.300e+001 -1.300e+001 -1.300e+001 -1.300e+001 -1.300e+001 -1.300e+001 -1.300e+001 -1.300e+001 -1.300e+001 -1.300e+001 -1.300e+001 -1.300e+001 -1.300e+001 -1.300e+001 -1.300e+001 -1.300e+001 -1.300e+001 -1.300e+001 -1.300e+001 -1.300e+001 -1.300e+001 -1.300e+001 -1.300e+001 -1.300e+001 -1.300e+001 -1.300e+001 -1.300e+001 -1.300e+001 -1.300e+001 -1.300e+001 -1.300e+001 -1.300e+001 -1.300e+001 -1.300e+001 -1.300e+001 -1.300e+001 -1.300e+001 -1.300e+001 -5.000e+000 -5.000e+000 -5.000e+000 -5.000e+000 -5.000e+000 -5.000e+000 -5.000e+000 -5.000e+000 -5.000e+000 -5.000e+000 -5.000e+000 -5.000e+000 -5.000e+000 -5.000e+000 -5.000e+000 -5.000e+000 -5.000e+000 -5.000e+000 -5.000e+000 -5.000e+000 -5.000e+000 -5.000e+000 -5.000e+000 -5.000e+000 -5.000e+000 -5.000e+000 -5.000e+000 -5.000e+000 -1.900e+001 -1.900e+001 -1.900e+001 -1.900e+001 -1.900e+001 -1.900e+001 -1.900e+001 -1.900e+001 -1.900e+001 -1.900e+001 -1.900e+001 -1.900e+001 -1.900e+001 -1.900e+001 -1.900e+001 -1.900e+001 -1.900e+001 -1.900e+001 -1.900e+001 -1.900e+001 -1.100e+001 -1.100e+001 -1.100e+001 -1.100e+001 -1.100e+001 -1.100e+001 -1.100e+001 -1.100e+001 -1.100e+001 -1.100e+001 -1.100e+001 -1.100e+001 -1.100e+001 -1.100e+001 -1.100e+001 -1.100e+001 -1.100e+001 -1.900e+001 -1.900e+001 -1.900e+001 -1.900e+001 -1.900e+001 -1.900e+001 -1.900e+001 -1.900e+001 -1.900e+001 -1.900e+001 -1.900e+001 -1.900e+001 -1.900e+001 -1.900e+001 -1.900e+001 -1.900e+001 -1.900e+001 -1.900e+001 -1.900e+001 -1.900e+001 -1.100e+001 -1.100e+001 -1.100e+001 -1.100e+001 -1.100e+001 -1.100e+001 -1.100e+001 -1.100e+001 -1.100e+001 -1.100e+001 -1.100e+001 -1.100e+001 -1.100e+001 -1.100e+001 -1.100e+001 -1.100e+001 -1.100e+001 -1.900e+001 -1.900e+001 -1.900e+001 -1.900e+001 -1.900e+001 -1.900e+001 -1.900e+001 -1.900e+001 -1.900e+001 -1.900e+001 -1.900e+001 -1.900e+001 -1.900e+001 -1.900e+001 -1.900e+001 -1.900e+001 -1.900e+001 -1.900e+001 -1.900e+001 -1.900e+001 -1.100e+001 -1.100e+001 -1.100e+001 -1.100e+001 -1.100e+001 -1.100e+001 -1.100e+001 -1.100e+001 -1.100e+001 -1.100e+001 -1.100e+001 -1.100e+001 -1.100e+001 -1.100e+001 -1.100e+001 -1.100e+001 -1.100e+001 -1.900e+001 -1.900e+001 -1.900e+001 -1.900e+001 -1.900e+001 -1.900e+001 -1.900e+001 -1.900e+001 -1.900e+001 -1.900e+001 -1.900e+001 -1.900e+001 -1.900e+001 -1.900e+001 -1.900e+001 -1.900e+001 -1.900e+001 -1.900e+001 -1.900e+001 -1.900e+001 -1.100e+001 -1.100e+001 -1.100e+001 -1.100e+001 -1.100e+001 -1.100e+001 -1.100e+001 -1.100e+001 -1.100e+001 -1.100e+001 -1.100e+001 -1.100e+001 -1.100e+001 -1.100e+001 -1.100e+001 -1.100e+001 -1.100e+001 -2.000e+001 -2.000e+001 -2.000e+001 -2.000e+001 -2.000e+001 -2.000e+001 -2.000e+001 -2.000e+001 -2.000e+001 -2.000e+001 -2.000e+001 -2.000e+001 -2.000e+001 -2.000e+001 -2.000e+001 -2.000e+001 -2.000e+001 -2.000e+001 -2.000e+001 -2.000e+000 -2.000e+000 -2.000e+000 -2.000e+000 -2.000e+000 -2.000e+000 -2.000e+000 -2.000e+000 -2.000e+000 -2.000e+000 -1.500e+001 -7.000e+000 -7.000e+000 -7.000e+000 -7.000e+000 -7.000e+000 -7.000e+000 -1.500e+001 -1.500e+001 -1.500e+001 -7.000e+000 -7.000e+000 -7.000e+000 -7.000e+000 -7.000e+000 -7.000e+000 -7.000e+000 -1.500e+001 -1.500e+001 -7.000e+000 -7.000e+000 -7.000e+000 -7.000e+000 -7.000e+000 -7.000e+000 -7.000e+000 -7.000e+000 -7.000e+000 -7.000e+000 -7.000e+000 -7.000e+000 -7.000e+000 -7.000e+000 -7.000e+000 -7.000e+000 -7.000e+000 -7.000e+000 -7.000e+000 -7.000e+000 -7.000e+000 -7.000e+000 -7.000e+000 -7.000e+000 -7.000e+000 -7.000e+000 -7.000e+000 -7.000e+000 -7.000e+000 -7.000e+000 -7.000e+000 -7.000e+000 -7.000e+000 -7.000e+000 -7.000e+000 -7.000e+000 -7.000e+000 -7.000e+000 -7.000e+000 -7.000e+000 -7.000e+000 -7.000e+000 -7.000e+000 -7.000e+000 -7.000e+000 -7.000e+000 -7.000e+000 -7.000e+000 -7.000e+000 -7.000e+000 -7.000e+000 -7.000e+000 -7.000e+000 -7.000e+000 -7.000e+000 -7.000e+000 -7.000e+000 -7.000e+000 -7.000e+000 -7.000e+000 -7.000e+000 -7.000e+000 -7.000e+000 -7.000e+000 -7.000e+000 -7.000e+000 -7.000e+000 -7.000e+000 -7.000e+000 -7.000e+000 -7.000e+000 -7.000e+000 -7.000e+000 -7.000e+000 -7.000e+000 -7.000e+000 -7.000e+000 -7.000e+000 -7.000e+000 -7.000e+000 -7.000e+000 -7.000e+000 -7.000e+000 -7.000e+000 -7.000e+000 -7.000e+000 -7.000e+000 -7.000e+000 -7.000e+000 -7.000e+000 -7.000e+000 -7.000e+000 -7.000e+000 -7.000e+000 -7.000e+000 -7.000e+000 -7.000e+000 -7.000e+000 -1.500e+001 -7.000e+000 -7.000e+000 -7.000e+000 -7.000e+000 -7.000e+000 -7.000e+000 -7.000e+000 -7.000e+000 -7.000e+000 -7.000e+000 -7.000e+000 -7.000e+000 -7.000e+000 -7.000e+000 -7.000e+000 -7.000e+000 -1.500e+001 -7.000e+000 -7.000e+000 -7.000e+000 -7.000e+000 -7.000e+000 -7.000e+000 -7.000e+000 -7.000e+000 -7.000e+000 -7.000e+000 -7.000e+000 -7.000e+000 -7.000e+000 -7.000e+000 -7.000e+000 -1.500e+001 -7.000e+000 -7.000e+000 -7.000e+000 -7.000e+000 -7.000e+000 -7.000e+000 -1.500e+001 -7.000e+000 -7.000e+000 -7.000e+000 -7.000e+000 -7.000e+000 -7.000e+000 -7.000e+000 -7.000e+000 -7.000e+000 -7.000e+000 -7.000e+000 -7.000e+000 -7.000e+000 -7.000e+000 -7.000e+000 -7.000e+000 -7.000e+000 -1.500e+001 -1.500e+001 -1.500e+001 -7.000e+000 -7.000e+000 -7.000e+000 -7.000e+000 -7.000e+000 -7.000e+000 -7.000e+000 -7.000e+000 -7.000e+000 -7.000e+000 -7.000e+000 -7.000e+000 -1.500e+001 -7.000e+000 -7.000e+000 -7.000e+000 -7.000e+000 -7.000e+000 -7.000e+000 -1.500e+001 -1.500e+001 -7.000e+000 -7.000e+000 -7.000e+000 -7.000e+000 -7.000e+000 -7.000e+000 -7.000e+000 -7.000e+000 -7.000e+000 -7.000e+000 -7.000e+000 -1.500e+001 -7.000e+000 -7.000e+000 -7.000e+000 -7.000e+000 -7.000e+000 -7.000e+000 -1.500e+001 -7.000e+000 -7.000e+000 -7.000e+000 -7.000e+000 -7.000e+000 -7.000e+000 -7.000e+000 -7.000e+000 -7.000e+000 -7.000e+000 -7.000e+000 -7.000e+000 -7.000e+000 -7.000e+000 -7.000e+000 -7.000e+000 -7.000e+000 -7.000e+000 -7.000e+000 -7.000e+000 -7.000e+000 -7.000e+000 -7.000e+000 -7.000e+000 -7.000e+000 -7.000e+000 -7.000e+000 -1.500e+001 -1.500e+001 -1.500e+001 -7.000e+000 -7.000e+000 -7.000e+000 -7.000e+000 -7.000e+000 -7.000e+000 -7.000e+000 -7.000e+000 -7.000e+000 -7.000e+000 -7.000e+000 -7.000e+000 -7.000e+000 -7.000e+000 -7.000e+000 -7.000e+000 -7.000e+000 -7.000e+000 -7.000e+000 -7.000e+000 -7.000e+000 -7.000e+000 -7.000e+000 -7.000e+000 -7.000e+000 -7.000e+000 -7.000e+000 -7.000e+000 -7.000e+000 -7.000e+000 -7.000e+000 -7.000e+000 -7.000e+000 -7.000e+000 -7.000e+000 -7.000e+000 -7.000e+000 -7.000e+000 -7.000e+000 -7.000e+000 -7.000e+000 -7.000e+000 -7.000e+000 -7.000e+000 -7.000e+000 -7.000e+000 -7.000e+000 -7.000e+000 -7.000e+000 -7.000e+000 -7.000e+000 -7.000e+000 -7.000e+000 -7.000e+000 -1.500e+001 -7.000e+000 -7.000e+000 -7.000e+000 -7.000e+000 -7.000e+000 -7.000e+000 -7.000e+000 -7.000e+000 -7.000e+000 -7.000e+000 -7.000e+000 -7.000e+000 -7.000e+000 -7.000e+000 -7.000e+000 -7.000e+000 -7.000e+000 -7.000e+000 -7.000e+000 -7.000e+000 -7.000e+000 -7.000e+000 -7.000e+000 -7.000e+000 -7.000e+000 -7.000e+000 -7.000e+000 -7.000e+000 -7.000e+000 -7.000e+000 -7.000e+000 -7.000e+000 -7.000e+000 -7.000e+000 -7.000e+000 -7.000e+000 -7.000e+000 -7.000e+000 -7.000e+000 -7.000e+000 -7.000e+000 -7.000e+000 -7.000e+000 -7.000e+000 -7.000e+000 -7.000e+000 -7.000e+000 -7.000e+000 -7.000e+000 -7.000e+000 -1.500e+001 -7.000e+000 -7.000e+000 -7.000e+000 -7.000e+000 -7.000e+000 -7.000e+000 -7.000e+000 -7.000e+000 -7.000e+000 -7.000e+000 -7.000e+000 -7.000e+000 -7.000e+000 -7.000e+000 -7.000e+000 -7.000e+000 -7.000e+000 -7.000e+000 -7.000e+000 -7.000e+000 -7.000e+000 -7.000e+000 -7.000e+000 -7.000e+000 -7.000e+000 -7.000e+000 -7.000e+000 -7.000e+000 -7.000e+000 -7.000e+000 -7.000e+000 -7.000e+000 -7.000e+000 -7.000e+000 -7.000e+000 -7.000e+000 -7.000e+000 -7.000e+000 -7.000e+000 -7.000e+000 -7.000e+000 -7.000e+000 -7.000e+000 -7.000e+000 -7.000e+000 -7.000e+000 -7.000e+000 -7.000e+000 -7.000e+000 -7.000e+000 -1.500e+001 -1.500e+001 -1.500e+001 -7.000e+000 -7.000e+000 -7.000e+000 -7.000e+000 -7.000e+000 -7.000e+000 -7.000e+000 -7.000e+000 -7.000e+000 -7.000e+000 -7.000e+000 -7.000e+000 -7.000e+000 -7.000e+000 -7.000e+000 -7.000e+000 -7.000e+000 -7.000e+000 -7.000e+000 -7.000e+000 -7.000e+000 -7.000e+000 -7.000e+000 -7.000e+000 -7.000e+000 -7.000e+000 -7.000e+000 -7.000e+000 -7.000e+000 -7.000e+000 -7.000e+000 -7.000e+000 -7.000e+000 -7.000e+000 -7.000e+000 -7.000e+000 -7.000e+000 -7.000e+000 -7.000e+000 -7.000e+000 -7.000e+000 -7.000e+000 -7.000e+000 -7.000e+000 -7.000e+000 -7.000e+000 -7.000e+000 -7.000e+000 -7.000e+000 -1.500e+001 -1.500e+001 -7.000e+000 -7.000e+000 -7.000e+000 -7.000e+000 -7.000e+000 -7.000e+000 -7.000e+000 -7.000e+000 -7.000e+000 -7.000e+000 -7.000e+000 -7.000e+000 -7.000e+000 -7.000e+000 -7.000e+000 -7.000e+000 -7.000e+000 -7.000e+000 -7.000e+000 -7.000e+000 -7.000e+000 -7.000e+000 -7.000e+000 -7.000e+000 -7.000e+000 -7.000e+000 -7.000e+000 -7.000e+000 -7.000e+000 -7.000e+000 -7.000e+000 -7.000e+000 -7.000e+000 -7.000e+000 -7.000e+000 -7.000e+000 -7.000e+000 -7.000e+000 -7.000e+000 -7.000e+000 -7.000e+000 -1.500e+001 -7.000e+000 -7.000e+000 -7.000e+000 -7.000e+000 -7.000e+000 -7.000e+000 -7.000e+000 -7.000e+000 -7.000e+000 -7.000e+000 -7.000e+000 -7.000e+000 -7.000e+000 -7.000e+000 -7.000e+000 -7.000e+000 -7.000e+000 -7.000e+000 -7.000e+000 -7.000e+000 -7.000e+000 -7.000e+000 -7.000e+000 -7.000e+000 -7.000e+000 -7.000e+000 -7.000e+000 -7.000e+000 -7.000e+000 -7.000e+000 -7.000e+000 -7.000e+000 -7.000e+000 -7.000e+000 -7.000e+000 -7.000e+000 -7.000e+000 -7.000e+000 -7.000e+000 -7.000e+000 -7.000e+000 -7.000e+000 -7.000e+000 -7.000e+000 -7.000e+000 -7.000e+000 -7.000e+000 -7.000e+000 -7.000e+000 -7.000e+000 -7.000e+000 -7.000e+000 -7.000e+000 -7.000e+000 -7.000e+000 -7.000e+000 -7.000e+000 -7.000e+000 -7.000e+000 -7.000e+000 -7.000e+000 -7.000e+000 -7.000e+000 -7.000e+000 -7.000e+000 -7.000e+000 -7.000e+000 -7.000e+000 -7.000e+000 -7.000e+000 -7.000e+000 -7.000e+000 -7.000e+000 -1.700e+001 -1.700e+001 -1.700e+001 -9.000e+000 -9.000e+000 -9.000e+000 -9.000e+000 -9.000e+000 -9.000e+000 -9.000e+000 -1.700e+001 -1.700e+001 -9.000e+000 -9.000e+000 -9.000e+000 -9.000e+000 -9.000e+000 -9.000e+000 -9.000e+000 -9.000e+000 -9.000e+000 -9.000e+000 -9.000e+000 -9.000e+000 -9.000e+000 -9.000e+000 -4.000e+000 -4.000e+000 -4.000e+000 -4.000e+000 -4.000e+000 -4.000e+000 -4.000e+000 -4.000e+000 -4.000e+000 -4.000e+000 -4.000e+000 -4.000e+000 -4.000e+000 -4.000e+000 -4.000e+000 -4.000e+000 -4.000e+000 -4.000e+000 -4.000e+000 -4.000e+000 -4.000e+000 -4.000e+000 -4.000e+000 -4.000e+000 -4.000e+000 -4.000e+000 -4.000e+000 -4.000e+000 -4.000e+000 -4.000e+000 -4.000e+000 -4.000e+000 -4.000e+000 -4.000e+000 -4.000e+000 -4.000e+000
           </DataArray>
           <DataArray type="Float32" Name="nitrate/Cmin" NumberOfComponents="1" format="ascii">