<?xml version="1.0"?>
<VTKFile type="UnstructuredGrid" version="0.1" byte_order="LittleEndian">
   <UnstructuredGrid>
      <Piece NumberOfPoints="32160" NumberOfCells="2270">
         <Points>
            <DataArray type="Float32" Name="Position" NumberOfComponents="3" format="ascii">
-0.034	-5.072	0.137
-0.035	-5.064	0.142
-0.036	-5.055	0.141
-0.036	-5.048	0.135
-0.037	-5.046	0.126
-0.037	-5.049	0.117
-0.037	-5.057	0.113
-0.036	-5.066	0.113
-0.035	-5.073	0.119
-0.035	-5.075	0.129
-0.896	-5.139	0.181
-0.898	-5.131	0.186
-0.899	-5.122	0.186
-0.901	-5.115	0.180
-0.901	-5.113	0.171
-0.901	-5.116	0.162
-0.899	-5.123	0.157
-0.897	-5.132	0.157
-0.896	-5.140	0.163
-0.895	-5.142	0.172
-1.719	-5.408	0.137
-1.722	-5.402	0.143
-1.726	-5.394	0.144
-1.728	-5.386	0.139
-1.729	-5.383	0.130
-1.728	-5.384	0.121
-1.725	-5.391	0.115
-1.721	-5.399	0.115
-1.719	-5.407	0.119
-1.718	-5.410	0.128
-2.338	-5.706	0.077
-2.342	-5.700	0.083
-2.346	-5.692	0.084
-2.349	-5.685	0.080
-2.350	-5.681	0.072
-2.349	-5.682	0.063
-2.345	-5.688	0.056
-2.341	-5.696	0.055
-2.338	-5.703	0.059
-2.337	-5.707	0.067
-0.052	-5.165	0.243
-0.047	-5.157	0.244
-0.049	-5.148	0.245
-0.055	-5.141	0.244
-0.064	-5.139	0.242
-0.072	-5.143	0.240
-0.076	-5.151	0.239
-0.075	-5.160	0.238
-0.069	-5.167	0.239
-0.060	-5.168	0.241
-0.223	-5.233	1.096
-0.219	-5.225	1.099
-0.220	-5.216	1.100
-0.226	-5.209	1.100
-0.235	-5.207	1.097
-0.243	-5.211	1.094
-0.247	-5.218	1.091
-0.245	-5.227	1.089
-0.239	-5.234	1.090
-0.230	-5.236	1.092
-0.591	-5.552	1.827
-0.588	-5.545	1.832
-0.591	-5.537	1.836
-0.597	-5.530	1.836
-0.605	-5.528	1.833
-0.612	-5.530	1.827
-0.615	-5.537	1.821
-0.612	-5.545	1.817
-0.606	-5.552	1.817
-0.598	-5.554	1.821
-1.024	-6.054	2.409
-1.022	-6.047	2.415
-1.024	-6.039	2.419
-1.031	-6.032	2.419
-1.039	-6.030	2.415
-1.045	-6.032	2.409
-1.048	-6.039	2.402
-1.045	-6.047	2.399
-1.039	-6.053	2.399
-1.031	-6.056	2.403
-1.287	-6.237	2.797
-1.284	-6.230	2.802
-1.286	-6.222	2.805
-1.292	-6.215	2.804
-1.300	-6.212	2.800
-1.307	-6.215	2.794
-1.310	-6.222	2.789
-1.308	-6.231	2.786
-1.302	-6.237	2.787
-1.294	-6.240	2.791
-0.152	-6.217	1.086
-0.154	-6.209	1.090
-0.155	-6.200	1.088
-0.155	-6.194	1.081
-0.154	-6.192	1.072
-0.152	-6.197	1.064
-0.150	-6.205	1.060
-0.149	-6.214	1.062
-0.149	-6.220	1.069
-0.150	-6.222	1.078
-1.002	-6.338	0.937
-1.004	-6.330	0.942
-1.006	-6.321	0.941
-1.007	-6.315	0.934
-1.006	-6.312	0.926
-1.004	-6.316	0.917
-1.001	-6.323	0.913
-0.999	-6.332	0.914
-0.998	-6.339	0.920
-0.999	-6.341	0.929
-1.807	-6.644	0.785
-1.810	-6.637	0.790
-1.812	-6.628	0.791
-1.815	-6.621	0.785
-1.815	-6.618	0.777
-1.814	-6.620	0.768
-1.811	-6.627	0.762
-1.808	-6.636	0.762
-1.806	-6.643	0.767
-1.806	-6.646	0.776
-2.424	-6.814	0.815
-2.426	-6.807	0.821
-2.428	-6.798	0.821
-2.431	-6.790	0.816
-2.432	-6.787	0.807
-2.432	-6.790	0.798
-2.430	-6.797	0.793
-2.428	-6.806	0.792
-2.425	-6.813	0.797
-2.424	-6.816	0.806
-0.453	-19.329	3.614
-0.449	-19.322	3.618
-0.449	-19.313	3.618
-0.454	-19.305	3.615
-0.461	-19.302	3.610
-0.467	-19.305	3.604
-0.471	-19.313	3.600
-0.471	-19.322	3.600
-0.466	-19.329	3.603
-0.459	-19.332	3.608
-0.694	-19.345	3.896
-0.686	-19.345	3.900
-0.677	-19.345	3.899
-0.670	-19.345	3.892
-0.669	-19.345	3.883
-0.673	-19.345	3.875
-0.681	-19.345	3.871
-0.691	-19.345	3.872
-0.697	-19.345	3.879
-0.699	-19.345	3.888
-0.461	-19.464	3.611
-0.462	-19.456	3.615
-0.466	-19.452	3.623
-0.472	-19.453	3.630
-0.477	-19.460	3.634
-0.479	-19.469	3.634
-0.477	-19.477	3.630
-0.473	-19.481	3.623
-0.467	-19.479	3.616
-0.463	-19.473	3.611
-0.204	-19.515	3.824
-0.196	-19.511	3.825
-0.187	-19.511	3.825
-0.180	-19.517	3.823
-0.178	-19.526	3.821
-0.181	-19.534	3.819
-0.189	-19.539	3.818
-0.198	-19.538	3.818
-0.205	-19.533	3.819
-0.207	-19.524	3.822
-0.484	-19.623	3.649
-0.486	-19.614	3.650
-0.486	-19.606	3.646
-0.483	-19.601	3.638
-0.479	-19.602	3.630
-0.475	-19.608	3.624
-0.473	-19.616	3.623
-0.473	-19.625	3.627
-0.475	-19.630	3.634
-0.480	-19.629	3.643
-0.703	-19.674	3.521
-0.699	-19.666	3.521
-0.700	-19.656	3.521
-0.707	-19.650	3.521
-0.716	-19.648	3.521
-0.724	-19.653	3.521
-0.729	-19.661	3.521
-0.727	-19.670	3.521
-0.721	-19.677	3.521
-0.711	-19.678	3.521
-0.478	-19.761	3.637
-0.480	-19.753	3.642
-0.485	-19.750	3.649
-0.490	-19.752	3.656
-0.494	-19.759	3.661
-0.495	-19.768	3.661
-0.493	-19.776	3.656
-0.488	-19.780	3.649
-0.483	-19.777	3.641
-0.479	-19.770	3.637
-0.209	-19.809	3.824
-0.204	-19.801	3.824
-0.206	-19.792	3.824
-0.212	-19.785	3.824
-0.222	-19.784	3.824
-0.230	-19.788	3.824
-0.234	-19.796	3.824
-0.233	-19.805	3.824
-0.226	-19.812	3.824
-0.217	-19.813	3.824
-0.483	-19.925	3.662
-0.478	-19.917	3.663
-0.479	-19.908	3.663
-0.486	-19.901	3.663
-0.495	-19.899	3.662
-0.503	-19.903	3.660
-0.507	-19.911	3.659
-0.506	-19.920	3.659
-0.500	-19.927	3.659
-0.491	-19.929	3.661
-0.518	-19.937	3.907
-0.514	-19.929	3.908
-0.515	-19.920	3.908
-0.521	-19.913	3.907
-0.530	-19.911	3.906
-0.539	-19.915	3.905
-0.543	-19.923	3.904
-0.542	-19.932	3.903
-0.536	-19.939	3.904
-0.527	-19.941	3.905
-0.493	-20.057	3.661
-0.494	-20.051	3.668
-0.497	-20.049	3.677
-0.500	-20.053	3.684
-0.504	-20.061	3.688
-0.505	-20.070	3.686
-0.504	-20.076	3.679
-0.502	-20.078	3.671
-0.498	-20.074	3.663
-0.495	-20.066	3.660
-0.245	-20.119	3.751
-0.246	-20.113	3.758
-0.249	-20.111	3.767
-0.252	-20.115	3.774
-0.256	-20.123	3.778
-0.257	-20.132	3.776
-0.257	-20.138	3.769
-0.254	-20.140	3.761
-0.250	-20.136	3.753
-0.247	-20.128	3.750
-0.507	-20.222	3.701
-0.509	-20.213	3.704
-0.509	-20.204	3.701
-0.508	-20.198	3.694
-0.505	-20.198	3.685
-0.502	-20.203	3.678
-0.500	-20.212	3.675
-0.500	-20.221	3.678
-0.501	-20.226	3.685
-0.504	-20.227	3.694
-0.712	-20.250	3.637
-0.714	-20.241	3.639
-0.714	-20.233	3.637
-0.713	-20.227	3.629
-0.710	-20.226	3.621
-0.707	-20.232	3.613
-0.705	-20.240	3.611
-0.705	-20.249	3.613
-0.706	-20.255	3.620
-0.709	-20.255	3.629
-0.504	-20.355	3.693
-0.504	-20.349	3.700
-0.505	-20.348	3.709
-0.508	-20.352	3.716
-0.512	-20.360	3.719
-0.515	-20.368	3.717
-0.516	-20.374	3.710
-0.515	-20.375	3.701
-0.511	-20.371	3.693
-0.507	-20.363	3.690
-0.315	-20.433	3.732
-0.314	-20.427	3.739
-0.315	-20.426	3.748
-0.319	-20.431	3.755
-0.323	-20.438	3.759
-0.325	-20.447	3.756
-0.326	-20.453	3.749
-0.325	-20.454	3.740
-0.322	-20.449	3.732
-0.318	-20.441	3.729
-0.504	-20.522	3.721
-0.500	-20.514	3.723
-0.501	-20.505	3.725
-0.507	-20.498	3.724
-0.516	-20.496	3.722
-0.524	-20.500	3.719
-0.528	-20.508	3.716
-0.527	-20.517	3.715
-0.520	-20.523	3.715
-0.512	-20.525	3.717
-0.557	-20.552	3.871
-0.557	-20.543	3.875
-0.557	-20.534	3.874
-0.557	-20.528	3.867
-0.557	-20.526	3.858
-0.557	-20.531	3.850
-0.557	-20.539	3.846
-0.557	-20.548	3.847
-0.557	-20.555	3.854
-0.557	-20.556	3.863
-0.506	-20.671	3.734
-0.502	-20.663	3.736
-0.503	-20.653	3.737
-0.510	-20.647	3.736
-0.519	-20.645	3.735
-0.527	-20.649	3.734
-0.531	-20.657	3.733
-0.530	-20.667	3.732
-0.523	-20.673	3.732
-0.514	-20.675	3.733
-0.524	-20.674	3.867
-0.520	-20.674	3.875
-0.521	-20.674	3.884
-0.528	-20.674	3.891
-0.537	-20.674	3.892
-0.545	-20.674	3.888
-0.549	-20.674	3.880
-0.548	-20.674	3.871
-0.541	-20.674	3.864
-0.532	-20.674	3.863
-0.156	-6.326	1.140
-0.154	-6.322	1.148
-0.152	-6.323	1.157
-0.152	-6.329	1.164
-0.155	-6.338	1.166
-0.158	-6.346	1.162
-0.160	-6.350	1.154
-0.162	-6.349	1.145
-0.162	-6.342	1.138
-0.159	-6.334	1.137
0.663	-6.558	0.969
0.666	-6.554	0.977
0.669	-6.556	0.986
0.669	-6.563	0.992
0.667	-6.572	0.994
0.664	-6.580	0.990
0.661	-6.583	0.982
0.658	-6.581	0.973
0.658	-6.574	0.967
0.659	-6.565	0.966
1.435	-6.710	0.594
1.440	-6.707	0.600
1.445	-6.710	0.608
1.447	-6.717	0.613
1.446	-6.726	0.614
1.442	-6.734	0.610
1.437	-6.737	0.603
1.432	-6.734	0.596
1.430	-6.727	0.591
1.431	-6.717	0.590
1.934	-6.799	0.128
1.940	-6.796	0.134
1.946	-6.799	0.141
1.949	-6.807	0.145
1.948	-6.816	0.146
1.943	-6.823	0.143
1.937	-6.826	0.137
1.931	-6.823	0.130
1.928	-6.816	0.125
1.929	-6.806	0.125
-0.517	-20.800	3.737
-0.516	-20.795	3.745
-0.517	-20.795	3.754
-0.519	-20.801	3.761
-0.520	-20.810	3.764
-0.522	-20.818	3.760
-0.522	-20.824	3.753
-0.521	-20.823	3.743
-0.520	-20.817	3.736
-0.518	-20.809	3.734
-0.385	-20.823	3.746
-0.384	-20.818	3.754
-0.385	-20.818	3.763
-0.386	-20.824	3.771
-0.388	-20.833	3.773
-0.389	-20.841	3.770
-0.390	-20.846	3.762
-0.389	-20.846	3.753
-0.387	-20.840	3.745
-0.386	-20.831	3.743
-0.513	-20.969	3.766
-0.508	-20.961	3.768
-0.510	-20.952	3.769
-0.516	-20.945	3.768
-0.525	-20.943	3.767
-0.533	-20.947	3.765
-0.537	-20.955	3.763
-0.536	-20.964	3.762
-0.530	-20.971	3.762
-0.521	-20.973	3.764
-0.531	-20.979	3.850
-0.526	-20.971	3.852
-0.528	-20.962	3.853
-0.534	-20.955	3.852
-0.543	-20.953	3.851
-0.551	-20.957	3.849
-0.555	-20.965	3.847
-0.554	-20.974	3.846
-0.548	-20.981	3.846
-0.539	-20.983	3.848
-0.533	-21.095	3.777
-0.524	-21.094	3.777
-0.516	-21.097	3.780
-0.512	-21.105	3.784
-0.514	-21.113	3.787
-0.520	-21.119	3.789
-0.530	-21.121	3.788
-0.538	-21.117	3.786
-0.541	-21.110	3.782
-0.540	-21.101	3.779
-0.522	-21.133	3.687
-0.513	-21.132	3.688
-0.505	-21.135	3.690
-0.501	-21.143	3.694
-0.503	-21.151	3.698
-0.510	-21.158	3.699
-0.519	-21.159	3.699
-0.527	-21.155	3.696
-0.531	-21.148	3.693
-0.529	-21.139	3.689
-0.524	-21.252	3.788
-0.525	-21.244	3.793
-0.529	-21.241	3.801
-0.533	-21.244	3.809
-0.537	-21.251	3.813
-0.539	-21.261	3.812
-0.538	-21.268	3.807
-0.534	-21.271	3.799
-0.529	-21.268	3.791
-0.525	-21.261	3.787
-0.467	-21.265	3.819
-0.468	-21.257	3.824
-0.472	-21.255	3.832
-0.476	-21.257	3.840
-0.480	-21.265	3.844
-0.482	-21.274	3.843
-0.481	-21.281	3.838
-0.477	-21.284	3.830
-0.472	-21.281	3.822
-0.468	-21.274	3.818
-0.530	-21.403	3.803
-0.532	-21.395	3.807
-0.536	-21.391	3.814
-0.542	-21.392	3.821
-0.547	-21.398	3.826
-0.550	-21.407	3.826
-0.548	-21.415	3.822
-0.544	-21.420	3.815
-0.538	-21.418	3.808
-0.533	-21.412	3.803
-0.505	-21.410	3.823
-0.506	-21.402	3.827
-0.511	-21.398	3.834
-0.517	-21.399	3.841
-0.522	-21.405	3.846
-0.524	-21.414	3.846
-0.523	-21.422	3.842
-0.519	-21.426	3.835
-0.513	-21.425	3.828
-0.508	-21.419	3.823
-0.540	-21.551	3.817
-0.541	-21.543	3.823
[...]
         <CellData>
           <DataArray type="Float32" Name="combinedRootClassID" NumberOfComponents="1" format="ascii">
 -1.300e+001 -1.300e+001 -1.300e+001 -1.300e+001 -1.300e+001 -1.300e+001 -1.300e+001 -1.300e+001 -1.300e+001 -1.300e+001 -1.300e+001 -1.300e+001 -1.300e+001 -1.300e+001 -1.300e+001 -1.300e+001 -1.300e+001 -1.300e+001 -1.300e+001 -1.300e+001 -1.300e+001 -1.300e+001 -1.300e+001 -1.300e+001 -1.300e+001 -1.300e+001 -1.300e+001 -1.300e+001 -1.300e+001 -1.300e+001 -1.300e+001 -1.300e+001 -1.300e+001 -1.300e+001 -1.300e+001 -1.300e+001 -1.300e+001 -1.300e+001 -1.300e+001 -1.300e+001 -1.300e+001 -1.300e+001 -1.300e+001 -1.300e+001 -1.300e+001 -1.300e+001 -1.300e+001 -1.300e+001 -1.300e+001 -1.300e+001 -1.300e+001 -1.300e+001 -1.300e+001 -1.300e+001 -1.300e+001 -1.300e+001 -1.300e+001 -1.300e+001 -1.300e+001 -1.300e+001 -1.300e+001 -1.300e+001 -1.300e+001 -1.300e+001 -1.300e+001 -1.300e+001 -1.300e+001 -1.300e+001 -1.300e+001 -1.300e+001 -1.300e+001 -1.300e+001 -1.300e+001 -1.300e+001 -1.300e+001 -1.300e+001 -1.300e+001 -1.300e+001 -1.300e+001 -1.300e+001 -1.300e+001 -1.300e+001 -1.300e+001 -1.300e+001 -1.300e+001 -1.300e+001 -1.300e+001 -1.300e+001 -1.300e+001 -1.300e+001 -1.300e+001 -1.300e+001 -1.300e+001 -1.300e+001 -1.300e+001 -1.300e+001 -1.300e+001 -1.300e+001 -1.300e+001 -1.300e+001 -1.300e+001 -1.300e+001 -1.300e+001 -1.300e+001 -1.300e+001 -1.300e+001 -1.300e+001 -1.300e+001 -1.300e+001 -1.300e+001 -1.300e+001 -1.300e+001 -1.300e+001 -1.300e+001 -1.300e+001 -1.300e+001 -1.300e+001 -1.300e+001 -1.300e+001 -1.300e+001 -1.300e+001 -1.300e+001 -1.300e+001 -1.300e+001 -1.300e+001 -1.300e+001 -1.300e+001 -1.300e+001 -1.300e+001 -1.300e+001 -1.300e+001 -1.300e+001 -1.300e+001 -1.300e+001 -1.300e+001 -1.300e+001 -1.300e+001 -1.300e+001 -1.300e+001 -1.300e+001 -1.300e+001 -1.300e+001 -1.300e+001 -1.300e+001 -1.300e+001 -1.300e+001 -1.300e+001 -1.300e+001 -1.300e+001 -1.300e+001 -1.300e+001 -1.300e+001 -1.300e+001 -1.300e+001 -1.300e+001 -1.300e+001 -1.300e+001 -1.300e+001 -1.300e+001 -1.300e+001 -1.300e+001 -1.300e+001 -1.300e+001 -1.300e+001 -1.300e+001 -1.300e+001 -1.300e+001 -1.300e+001 -1.300e+001 -1.300e+001 -1.300e+001 -1.300e+001 -1.300e+001 -1.300e+001 -1.300e+001 -1.300e+001 -1.300e+001 -1.300e+001 -1.300e+001 -1.300e+001 -1.300e+001 -1.300e+001 -1.300e+001 -1.300e+001 -1.300e+001 -1.300e+001 -1.300e+001 -1.300e+001 -1.300e+001 -1.300e+001 -1.300e+001 -1.300e+001 -1.300e+001 -1.300e+001 -1.300e+001 -1.300e+001 -1.300e+001 -1.300e+001 -1.300e+001 -1.300e+001 -1.300e+001 -1.300e+001 -1.300e+001 -1.300e+001 -1.300e+001 -1.300e+001 -1.300e+001 -1.300e+001 -1.300e+001 -1.300e+001 -1.300e+001 -1.300e+001 -1.300e+001 -1.300e+001 -1.300e+001 -1.300e+001 -1.300e+001 -1.300e+001 -1.300e+001 -1.300e+001 -1.300e+001 -1.300e+001 -1.300e+001 -1.300e+001 -1.300e+001 -1.300e+001 -1.300e+001 -1.300e+001 -1.300e+001 -1.300e+001 -1.300e+001 -1.300e+001 -1.300e+001 -1.300e+001 -1.300e+001 -5.000e+000 -5.000e+000 -5.000e+000 -5.000e+000 -5.000e+000 -5.000e+000 -5.000e+000 -5.000e+000 -5.000e+000 -5.000e+000 -5.000e+000 -5.000e+000 -5.000e+000 -5.000e+000 -5.000e+000 -5.000e+000 -5.000e+000 -5.000e+000 -5.000e+000 -5.000e+000 -5.000e+000 -5.000e+000 -5.000e+000 -5.000e+000 -5.000e+000 -5.000e+000 -5.000e+000 -5.000e+000 -5.000e+000 -5.000e+000 -5.000e+000 -5.000e+000 -5.000e+000 -1.300e+001 -1.300e+001 -1.300e+001 -1.300e+001 -1.300e+001 -1.300e+001 -1.300e+001 -1.300e+001 -1.300e+001 -1.300e+001 -1.300e+001 -1.300e+001 -1.300e+001 -1.300e+001 -1.300e+001 -1.300e+001 -1.300e+001 -1.300e+001 -1.300e+001 -1.300e+001 -1.300e+001 -1.300e+001 -1.300e+001 -1.300e+001 -1.300e+001 -1.300e+001 -1.300e+001 -1.300e+001 -1.300e+001 -1.300e+001 -1.300e+001 -1.300e+001 -1.300e+001 -1.300e+001 -1.300e+001 -1.300e+001 -1.300e+001 -1.300e+001 -1.300e+001 -1.300e+001 -1.300e+001 -1.300e+001 -1.300e+001 -1.300e+001 -1.300e+001 -1.300e+001 -1.300e+001 -1.300e+001 -1.300e+001 -1.300e+001 -1.300e+001 -1.300e+001 -1.300e+001 -1.300e+001 -1.300e+001 -1.300e+001 -1.300e+001 -1.300e+001 -1.300e+001 -1.300e+001 -1.300e+001 -1.300e+001 -1.300e+001 -1.300e+001 -1.300e+001 -1.300e+001 -1.300e+001 -1.300e+001 -1.300e+001 -1.300e+001 -1.300e+001 -1.300e+001 -1.300e+001 -1.300e+001 -1.300e+001 -1.300e+001 -1.300e+001 -1.300e+001 -1.300e+001 -1.300e+001 -1.300e+001 -1.300e+001 -1.300e+001 -1.300e+001 -1.300e+001 -1.300e+001 -1.300e+001 -1.300e+001 -1.300e+001 -1.300e+001 -1.300e+001 -1.300e+001 -1.300e+001 -1.300e+001 -1.300e+001 -1.300e+001 -1.300e+001 -1.300e+001 -1.300e+001 -1.300e+001 -1.300e+001 -1.300e+001 -1.300e+001 -1.300e+001 -1.300e+001 -1.300e+001 -1.300e+001 -1.300e+001 -1.300e+001 -1.300e+001 -1.300e+001 -1.300e+001 -1.300e+001 -1.300e+001 -1.300e+001 -1.300e+001 -1.300e+001 -1.300e+001 -1.300e+001 -1.300e+001 -1.300e+001 -1.300e+001 -1.300e+001 -1.300e+001 -1.300e+001 -1.300e+001 -1.300e+001 -1.300e+001 -1.300e+001 -1.300e+001 -1.300e+001 -1.300e+001 -1.300e+001 -1.300e+001 -1.300e+001 -1.300e+001 -1.300e+001 -1.300e+001 -1.300e+001 -1.300e+001 -1.300e+001 -1.300e+001 -1.300e+001 -1.300e+001 -1.300e+001 -1.300e+001 -1.300e+001 -1.300e+001 -1.300e+001 -1.300e+001 -1.300e+001 -1.300e+001 -1.300e+001 -1.300e+001 -1.300e+001 -1.300e+001 -1.300e+001 -1.300e+001 -1.300e+001 -1.300e+001 -1.300e+001 -1.300e+001 -1.300e+001 -1.300e+001 -1.300e+001 -1.300e+001 -1.300e+001 -1.300e+001 -1.300e+001 -1.300e+001 -1.300e+001 -1.300e+001 -1.300e+001 -1.300e+001 -1.300e+001 -1.300e+001 -1.300e+001 -1.300e+001 -1.300e+001 -1.300e+001 -1.300e+001 -1.300e+001 -1.300e+001 -1.300e+001 -1.300e+001 -1.300e+001 -1.300e+001 -1.300e+001 -1.300e+001 -1.300e+001 -1.300e+001 -1.300e+001 -1.300e+001 -1.300e+001 -1.300e+001 -1.300e+001 -1.300e+001 -1.300e+001 -1.300e+001 -1.300e+001 -1.300e+001 -1.300e+001 -1.300e+001 -1.300e+001 -1.300e+001 -1.300e+001 -1.300e+001 -1.300e+001 -1.300e+001 -1.300e+001 -1.300e+001 -1.300e+001 -1.300e+001 -1.300e+001 -1.300e+001 -1.300e+001 -1.300e+001 -1.300e+001 -1.300e+001 -1.300e+001 -1.300e+001 -1.300e+001 -1.300e+001 -1.300e+001 -1.300e+001 -1.300e+001 -1.300e+001 -1.300e+001 -1.300e+001 -1.300e+001 -1.300e+001 -1.300e+001 -1.300e+001 -1.300e+001 -1.300e+001 -1.300e+001 -1.300e+001 -1.300e+001 -5.000e+000 -5.000e+000 -5.000e+000 -5.000e+000 -5.000e+000 -5.000e+000 -5.000e+000 -5.000e+000 -5.000e+000 -5.000e+000 -5.000e+000 -5.000e+000 -5.000e+000 -5.000e+000 -5.000e+000 -5.000e+000 -5.000e+000 -5.000e+000 -5.000e+000 -5.000e+000 -5.000e+000 -5.000e+000 -5.000e+000 -5.000e+000 -5.000e+000 -5.000e+000 -5.000e+000 -5.000e+000 -5.000e+000 -5.000e+000 -5.000e+000 -5.000e+000 -5.000e+000 -1.300e+001 -1.300e+001 -1.300e+001 -1.300e+001 -1.300e+001 -1.300e+001 -1.300e+001 -1.300e+001 -1.300e+001 -1.300e+001 -1.300e+001 -1.300e+001 -1.300e+001 -1.300e+001 -1.300e+001 -1.300e+001 -1.300e+001 -1.300e+001 -1.300e+001 -1.300e+001 -1.300e+001 -1.300e+001 -1.300e+001 -1.300e+001 -1.300e+001 -1.300e+001 -1.300e+001 -1.300e+001 -1.300e+001 -1.300e+001 -1.300e+001 -1.300e+001 -1.300e+001 -1.300e+001 -1.300e+001 -1.300e+001 -1.300e+001 -1.300e+001 -1.300e+001 -1.300e+001 -1.300e+001 -1.300e+001 -1.300e+001 -1.300e+001 -1.300e+001 -1.300e+001 -1.300e+001 -1.300e+001 -1.300e+001 -1.300e+001 -1.300e+001 -1.300e+001 -1.300e+001 -1.300e+001 -1.300e+001 -1.300e+001 -1.300e+001 -1.300e+001 -1.300e+001 -1.300e+001 -1.300e+001 -1.300e+001 -1.300e+001 -1.300e+001 -1.300e+001 -1.300e+001 -1.300e+001 -1.300e+001 -1.300e+001 -1.300e+001 -1.300e+001 -1.300e+001 -1.300e+001 -1.300e+001 -1.300e+001 -1.300e+001 -1.300e+001 -1.300e+001 -1.300e+001 -1.300e+001 -1.300e+001 -1.300e+001 -1.300e+001 -1.300e+001 -1.300e+001 -1.300e+001 -1.300e+001 -1.300e+001 -1.300e+001 -1.300e+001 -1.300e+001 -1.300e+001 -1.300e+001 -1.300e+001 -1.300e+001 -1.300e+001 -1.300e+001 -1.300e+001 -1.300e+001 -1.300e+001 -1.300e+001 -1.300e+001 -1.300e+001 -1.300e+001 -1.300e+001 -1.300e+001 -1.300e+001 -1.300e+001 -1.300e+001 -1.300e+001 -1.300e+001 -1.300e+001 -1.300e+001 -1.300e+001 -1.300e+001 -1.300e+001 -1.300e+001 -1.300e+001 -1.300e+001 -1.300e+001 -1.300e+001 -1.300e+001 -1.300e+001 -1.300e+001 -1.300e+001 -1.300e+001 -1.300e+001 -1.300e+001 -1.300e+001 -1.300e+001 -1.300e+001 -1.300e+001 -1.300e+001 -1.300e+001 -1.300e+001 -1.300e+001 -1.300e+001 -1.300e+001 -1.300e+001 -1.300e+001 -1.300e+001 -1.300e+001 -1.300e+001 -1.300e+001 -1.300e+001 -1.300e+001 -1.300e+001 -1.300e+001 -1.300e+001 -1.300e+001 -1.300e+001 -1.300e+001 -1.300e+001 -1.300e+001 -1.300e+001 -1.300e+001 -1.300e+001 -1.300e+001 -1.300e+001 -1.300e+001 -1.300e+001 -1.300e+001 -1.300e+001 -1.300e+001 -1.300e+001 -1.300e+001 -1.300e+001 -1.300e+001 -1.300e+001 -1.300e+001 -1.300e+001 -1.300e+001 -1.300e+001 -1.300e+001 -1.300e+001 -1.300e+001 -1.300e+001 -1.300e+001 -1.300e+001 -1.300e+001 -1.300e+001 -1.300e+001 -1.300e+001 -1.300e+001 -1.300e+001 -1.300e+001 -1.300e+001 -1.300e+001 -1.300e+001 -1.300e+001 -1.300e+001 -1.300e+001 -1.300e+001 -1.300e+001 -1.300e+001 -1.300e+001 -1.300e+001 -1.300e+001 -1.300e+001 -1.300e+001 -1.300e+001 -1.300e+001 -1.300e+001 -1.300e+001 -1.300e+001 -1.300e+001 -1.300e+001 -1.300e+001 -1.300e+001 -1.300e+001 -1.300e+001 -1.300e+001 -1.300e+001 -1.300e+001 -1.300e+001 -1.300e+001 -1.300e+001 -1.300e+001 -1.300e+001 -1.300e+001 -1.300e+001 -1.300e+001 -1.300e+001 -1.300e+001 -1.300e+001 -1.300e+001 -1.300e+001 -1.300e+001 -1.300e+001 -1.300e+001 -1.300e+001 -1.300e+001 -1.300e+001 -5.000e+000 -5.000e+000 -5.000e+000 -5.000e+000 -5.000e+000 -5.000e+000 -5.000e+000 -5.000e+000 -5.000e+000 -5.000e+000 -5.000e+000 -5.000e+000 -5.000e+000 -5.000e+000 -5.000e+000 -5.000e+000 -5.000e+000 -5.000e+000 -5.000e+000 -5.000e+000 -5.000e+000 -5.000e+000 -5.000e+000 -5.000e+000 -5.000e+000 -5.000e+000 -5.000e+000 -5.000e+000 -5.000e+000 -5.000e+000 -5.000e+000 -5.000e+000 -5.000e+000 -1.300e+001 -1.300e+001 -1.300e+001 -1.300e+001 -1.300e+001 -1.300e+001 -1.300e+001 -1.300e+001 -1.300e+001 -1.300e+001 -1.300e+001 -1.300e+001 -1.300e+001 -1.300e+001 -1.300e+001 -1.300e+001 -1.300e+001 -1.300e+001 -1.300e+001 -1.300e+001 -1.300e+001 -1.300e+001 -1.300e+001 -1.300e+001 -1.300e+001 -1.300e+001 -1.300e+001 -1.300e+001 -1.300e+001 -1.300e+001 -1.300e+001 -1.300e+001 -1.300e+001 -1.300e+001 -1.300e+001 -1.300e+001 -1.300e+001 -1.300e+001 -1.300e+001 -1.300e+001 -1.300e+001 -1.300e+001 -1.300e+001 -1.300e+001 -1.300e+001 -1.300e+001 -1.300e+001 -1.300e+001 -1.300e+001 -1.300e+001 -1.300e+001 -1.300e+001 -1.300e+001 -1.300e+001 -1.300e+001 -1.300e+001 -1.300e+001 -1.300e+001 -1.300e+001 -1.300e+001 -1.300e+001 -1.300e+001 -1.300e+001 -1.300e+001 -1.300e+001 -1.300e+001 -1.300e+001 -1.300e+001 -1.300e+001 -1.300e+001 -1.300e+001 -1.300e+001 -1.300e+001 -1.300e+001 -1.300e+001 -1.300e+001 -1.300e+001 -1.300e+001 -1.300e+001 -1.300e+001 -1.300e+001 -1.300e+001 -1.300e+001 -1.300e+001 -1.300e+001 -1.300e+001 -1.300e+001 -1.300e+001 -1.300e+001 -1.300e+001 -1.300e+001 -1.300e+001 -1.300e+001 -1.300e+001 -1.300e+001 -1.300e+001 -1.300e+001 -1.300e+001 -1.300e+001 -1.300e+001 -1.300e+001 -1.300e+001 -1.300e+001 -1.300e+001 -1.300e+001 -1.300e+001 -1.300e+001 -1.300e+001 -1.300e+001 -1.300e+001 -1.300e+001 -1.300e+001 -1.300e+001 -1.300e+001 -1.300e+001 -1.300e+001 -1.300e+001 -1.300e+001 -1.300e+001 -1.300e+001 -1.300e+001 -1.300e+001 -1.300e+001 -1.300e+001 -1.300e+001 -1.300e+001 -1.300e+001 -1.300e+001 -1.300e+001 -1.300e+001 -1.300e+001 -1.300e+001 -1.300e+001 -1.300e+001 -1.300e+001 -1.300e+001 -1.300e+001 -1.300e+001 -1.300e+001 -1.300e+001 -1.300e+001 -1.300e+001 -1.300e+001 -1.300e+001 -1.300e+001 -1.300e+001 -1.300e+001 -1.300e+001 -1.300e+001 -1.300e+001 -1.300e+001 -1.300e+001 -1.300e+001 -1.300e+001 -1.300e+001 -1.300e+001 -1.300e+001 -1.300e+001 -1.300e+001 -1.300e+001 -1.300e+001 -1.300e+001 -1.300e+001 -1.300e+001 -1.300e+001 -1.300e+001 -1.300e+001 -1.300e+001 -1.300e+001 -1.300e+001 -1.300e+001 -1.300e+001 -1.300e+001 -1.300e+001 -1.300e+001 -1.300e+001 -1.300e+001 -1.300e+001 -1.300e+001 -1.300e+001 -1.300e+001 -1.300e+001 -1.300e+001 -1.300e+001 -1.300e+001 -1.300e+001 -1.300e+001 -1.300e+001 -1.300e+001 -1.300e+001 -1.300e+001 -1.300e+001 -1.300e+001 -1.300e+001 -1.300e+001 -1.300e+001 -1.300e+001 -1.300e+001 -1.300e+001 -1.300e+001 -1.300e+001 -1.300e+001 -1.300e+001 -1.300e+001 -1.300e+001 -1.300e+001 -1.300e+001 -1.300e+001 -1.300e+001 -1.300e+001 -1.300e+001 -1.300e+001 -1.300e+001 -1.300e+001 -1.300e+001 -1.300e+001 -1.300e+001 -1.300e+001 -1.300e+001 -1.300e+001 -1.300e+001 -1.300e+001 -1.300e+001 -1.300e+001 -1.300e+001 -1.300e+001 -1.300e+001 -1.300e+001 -1.300e+001 -1.300e+001 -1.300e+001 -1.300e+001 -1.300e+001 -1.300e+001 -1.300e+001 -5.000e+000 -5.000e+000 -5.000e+000 -5.000e+000 -5.000e+000 -5.000e+000 -5.000e+000 -5.000e+000 -5.000e+000 -5.000e+000 -5.000e+000 -5.000e+000 -5.000e+000 -5.000e+000 -5.000e+000 -5.000e+000 -5.000e+000 -5.000e+000 -5.000e+000 -5.000e+000 -5.000e+000 -5.000e+000 -5.000e+000 -5.000e+000 -5.000e+000 -5.000e+000 -5.000e+000 -5.000e+000 -5.000e+000 -5.000e+000 -5.000e+000 -5.000e+000 -5.000e+000 -1.900e+001 -1.900e+001 -1.900e+001 -1.900e+001 -1.900e+001 -1.900e+001 -1.900e+001 -1.900e+001 -1.900e+001 -1.900e+001 -1.900e+001 -1.900e+001 -1.900e+001 -1.900e+001 -1.900e+001 -1.900e+001 -1.900e+001 -1.900e+001 -1.900e+001 -1.900e+001 -1.900e+001 -1.900e+001 -1.900e+001 -1.900e+001 -1.900e+001 -1.900e+001 -1.900e+001 -1.900e+001 -1.900e+001 -1.900e+001 -1.900e+001 -1.900e+001 -1.900e+001 -1.900e+001 -1.900e+001 -1.900e+001 -1.900e+001 -1.900e+001 -1.900e+001 -1.900e+001 -1.900e+001 -1.900e+001 -1.900e+001 -1.900e+001 -1.900e+001 -1.900e+001 -1.900e+001 -1.900e+001 -1.900e+001 -1.900e+001 -1.900e+001 -1.900e+001 -1.900e+001 -1.900e+001 -1.900e+001 -1.100e+001 -1.100e+001 -1.100e+001 -1.100e+001 -1.100e+001 -1.100e+001 -1.100e+001 -1.100e+001 -1.100e+001 -1.100e+001 -1.100e+001 -1.100e+001 -1.100e+001 -1.100e+001 -1.100e+001 -1.100e+001 -1.100e+001 -1.100e+001 -1.100e+001 -1.100e+001 -1.100e+001 -1.100e+001 -1.900e+001 -1.900e+001 -1.900e+001 -1.900e+001 -1.900e+001 -1.900e+001 -1.900e+001 -1.900e+001 -1.900e+001 -1.900e+001 -1.900e+001 -1.900e+001 -1.900e+001 -1.900e+001 -1.900e+001 -1.900e+001 -1.900e+001 -1.900e+001 -1.900e+001 -1.900e+001 -1.900e+001 -1.900e+001 -1.900e+001 -1.900e+001 -1.900e+001 -1.900e+001 -1.900e+001 -1.900e+001 -1.900e+001 -1.900e+001 -1.900e+001 -1.900e+001 -1.900e+001 -1.900e+001 -1.900e+001 -1.900e+001 -1.900e+001 -1.900e+001 -1.900e+001 -1.900e+001 -1.900e+001 -1.900e+001 -1.900e+001 -1.900e+001 -1.900e+001 -1.900e+001 -1.900e+001 -1.900e+001 -1.900e+001 -1.900e+001 -1.900e+001 -1.900e+001 -1.900e+001 -1.900e+001 -1.900e+001 -1.100e+001 -1.100e+001 -1.100e+001 -1.100e+001 -1.100e+001 -1.100e+001 -1.100e+001 -1.100e+001 -1.100e+001 -1.100e+001 -1.100e+001 -1.100e+001 -1.100e+001 -1.100e+001 -1.100e+001 -1.100e+001 -1.100e+001 -1.100e+001 -1.100e+001 -1.100e+001 -1.100e+001 -1.100e+001 -1.900e+001 -1.900e+001 -1.900e+001 -1.900e+001 -1.900e+001 -1.900e+001 -1.900e+001 -1.900e+001 -1.900e+001 -1.900e+001 -1.900e+001 -1.900e+001 -1.900e+001 -1.900e+001 -1.900e+001 -1.900e+001 -1.900e+001 -1.900e+001 -1.900e+001 -1.900e+001 -1.900e+001 -1.900e+001 -1.900e+001 -1.900e+001 -1.900e+001 -1.900e+001 -1.900e+001 -1.900e+001 -1.900e+001 -1.900e+001 -1.900e+001 -1.900e+001 -1.900e+001 -1.900e+001 -1.900e+001 -1.900e+001 -1.900e+001 -1.900e+001 -1.900e+001 -1.900e+001 -1.900e+001 -1.900e+001 -1.900e+001 -1.900e+001 -1.900e+001 -1.900e+001 -1.900e+001 -1.900e+001 -1.900e+001 -1.900e+001 -1.900e+001 -1.900e+001 -1.900e+001 -1.100e+001 -1.100e+001 -1.100e+001 -1.100e+001 -1.100e+001 -1.100e+001 -1.100e+001 -1.100e+001 -1.100e+001 -1.100e+001 -1.100e+001 -1.100e+001 -1.100e+001 -1.100e+001 -1.100e+001 -1.100e+001 -1.100e+001 -1.100e+001 -1.100e+001 -1.100e+001 -1.100e+001 -1.100e+001 -1.900e+001 -1.900e+001 -1.900e+001 -1.900e+001 -1.900e+001 -1.900e+001 -1.900e+001 -1.900e+001 -1.900e+001 -1.900e+001 -1.900e+001 -1.900e+001 -1.900e+001 -1.900e+001 -1.900e+001 -1.900e+001 -1.900e+001 -1.900e+001 -1.900e+001 -1.900e+001 -1.900e+001 -1.900e+001 -1.900e+001 -1.900e+001 -1.900e+001 -1.900e+001 -1.900e+001 -1.900e+001 -1.900e+001 -1.900e+001 -1.900e+001 -1.900e+001 -1.900e+001 -1.900e+001 -1.900e+001 -1.900e+001 -1.900e+001 -1.900e+001 -1.900e+001 -1.900e+001 -1.900e+001 -1.900e+001 -1.900e+001 -1.900e+001 -1.900e+001 -1.900e+001 -1.900e+001 -1.900e+001 -1.900e+001 -1.900e+001 -1.900e+001 -1.900e+001 -1.900e+001 -1.100e+001 -1.100e+001 -1.100e+001 -1.100e+001 -1.100e+001 -1.100e+001 -1.100e+001 -1.100e+001 -1.100e+001 -1.100e+001 -1.100e+001 -1.100e+001 -1.100e+001 -1.100e+001 -1.100e+001 -1.100e+001 -1.100e+001 -1.100e+001 -1.100e+001 -1.100e+001 -1.100e+001 -1.100e+001 -2.000e+001 -2.000e+001 -2.000e+001 -2.000e+001 -2.000e+001 -2.000e+001 -2.000e+001 -2.000e+001 -2.000e+001 -2.000e+001 -2.000e+001 -2.000e+001 -2.000e+001 -2.000e+001 -2.000e+001 -2.000e+001 -2.000e+001 -2.000e+001 -2.000e+001 -2.000e+001 -2.000e+001 -2.000e+001 -2.000e+001 -2.000e+001 -2.000e+001 -2.000e+001 -2.000e+001 -2.000e+001 -2.000e+001 -2.000e+000 -2.000e+000 -2.000e+000 -2.000e+000 -2.000e+000 -2.000e+000 -2.000e+000 -2.000e+000 -2.000e+000 -2.000e+000 -1.500e+001 -1.500e+001 -7.000e+000 -7.000e+000 -7.000e+000 -7.000e+000 -7.000e+000 -7.000e+000 -1.500e+001 -1.500e+001 -1.500e+001 -1.500e+001 -1.500e+001 -7.000e+000 -7.000e+000 -7.000e+000 -7.000e+000 -7.000e+000 -7.000e+000 -7.000e+000 -7.000e+000 -1.500e+001 -1.500e+001 -1.500e+001 -7.000e+000 -7.000e+000 -7.000e+000 -7.000e+000 -7.000e+000 -7.000e+000 -7.000e+000 -7.000e+000 -7.000e+000 -7.000e+000 -7.000e+000 -7.000e+000 -7.000e+000 -7.000e+000 -7.000e+000 -7.000e+000 -7.000e+000 -7.000e+000 -7.000e+000 -7.000e+000 -7.000e+000 -7.000e+000 -7.000e+000 -7.000e+000 -7.000e+000 -7.000e+000 -7.000e+000 -7.000e+000 -7.000e+000 -7.000e+000 -7.000e+000 -7.000e+000 -7.000e+000 -7.000e+000 -7.000e+000 -7.000e+000 -7.000e+000 -7.000e+000 -7.000e+000 -7.000e+000 -1.500e+001 -7.000e+000 -7.000e+000 -7.000e+000 -7.000e+000 -7.000e+000 -7.000e+000 -7.000e+000 -7.000e+000 -7.000e+000 -7.000e+000 -7.000e+000 -7.000e+000 -7.000e+000 -7.000e+000 -7.000e+000 -7.000e+000 -7.000e+000 -7.000e+000 -7.000e+000 -7.000e+000 -7.000e+000 -7.000e+000 -7.000e+000 -7.000e+000 -7.000e+000 -7.000e+000 -7.000e+000 -7.000e+000 -7.000e+000 -7.000e+000 -7.000e+000 -7.000e+000 -7.000e+000 -7.000e+000 -7.000e+000 -7.000e+000 -1.500e+001 -7.000e+000 -7.000e+000 -7.000e+000 -7.000e+000 -7.000e+000 -7.000e+000 -7.000e+000 -7.000e+000 -7.000e+000 -7.000e+000 -7.000e+000 -7.000e+000 -7.000e+000 -7.000e+000 -7.000e+000 -7.000e+000 -7.000e+000 -7.000e+000 -7.000e+000 -7.000e+000 -7.000e+000 -7.000e+000 -7.000e+000 -7.000e+000 -7.000e+000 -7.000e+000 -7.000e+000 -7.000e+000 -7.000e+000 -7.000e+000 -7.000e+000 -1.500e+001 -7.000e+000 -7.000e+000 -7.000e+000 -7.000e+000 -7.000e+000 -7.000e+000 -7.000e+000 -7.000e+000 -7.000e+000 -7.000e+000 -7.000e+000 -7.000e+000 -7.000e+000 -7.000e+000 -7.000e+000 -7.000e+000 -7.000e+000 -7.000e+000 -7.000e+000 -7.000e+000 -7.000e+000 -7.000e+000 -7.000e+000 -7.000e+000 -7.000e+000 -7.000e+000 -7.000e+000 -1.500e+001 -1.500e+001 -7.000e+000 -7.000e+000 -7.000e+000 -7.000e+000 -7.000e+000 -7.000e+000 -7.000e+000 -7.000e+000 -7.000e+000 -7.000e+000 -7.000e+000 -7.000e+000 -7.000e+000 -7.000e+000 -7.000e+000 -7.000e+000 -7.000e+000 -7.000e+000 -7.000e+000 -7.000e+000 -7.000e+000 -7.000e+000 -7.000e+000 -7.000e+000 -7.000e+000 -7.000e+000 -7.000e+000 -1.500e+001 -1.500e+001 -7.000e+000 -7.000e+000 -7.000e+000 -7.000e+000 -7.000e+000 -7.000e+000 -7.000e+000 -7.000e+000 -7.000e+000 -7.000e+000 -7.000e+000 -7.000e+000 -7.000e+000 -7.000e+000 -7.000e+000 -7.000e+000 -7.000e+000 -7.000e+000 -7.000e+000 -7.000e+000 -7.000e+000 -1.500e+001 -1.500e+001 -7.000e+000 -7.000e+000 -7.000e+000 -7.000e+000 -7.000e+000 -7.000e+000 -7.000e+000 -7.000e+000 -7.000e+000 -7.000e+000 -7.000e+000 -7.000e+000 -7.000e+000 -7.000e+000 -7.000e+000 -7.000e+000 -1.500e+001 -1.500e+001 -7.000e+000 -7.000e+000 -7.000e+000 -7.000e+000 -7.000e+000 -7.000e+000 -7.000e+000 -7.0