<?xml version="1.0"?>
<VTKFile type="UnstructuredGrid" version="0.1" byte_order="LittleEndian">
   <UnstructuredGrid>
      <Piece NumberOfPoints="21850" NumberOfCells="1528">
         <Points>
            <DataArray type="Float32" Name="Position" NumberOfComponents="3" format="ascii">
0.068	-5.032	-0.142
0.072	-5.030	-0.134
0.070	-5.028	-0.125
0.063	-5.027	-0.119
0.053	-5.027	-0.119
0.045	-5.028	-0.124
0.042	-5.030	-0.132
0.044	-5.032	-0.141
0.051	-5.034	-0.146
0.061	-5.034	-0.147
0.079	-5.886	0.066
0.082	-5.884	0.074
0.080	-5.881	0.083
0.073	-5.880	0.088
0.063	-5.879	0.089
0.056	-5.880	0.084
0.052	-5.883	0.075
0.055	-5.885	0.067
0.062	-5.887	0.061
0.071	-5.887	0.061
0.023	-6.708	0.325
0.026	-6.705	0.334
0.023	-6.702	0.342
0.016	-6.700	0.347
0.007	-6.699	0.347
-0.001	-6.701	0.342
-0.004	-6.703	0.333
-0.001	-6.707	0.325
0.006	-6.709	0.320
0.015	-6.709	0.320
0.020	-6.759	0.346
0.023	-6.755	0.354
0.020	-6.752	0.362
0.013	-6.749	0.367
0.003	-6.749	0.367
-0.004	-6.751	0.362
-0.007	-6.754	0.354
-0.004	-6.757	0.346
0.003	-6.760	0.341
0.012	-6.760	0.341
0.108	-5.081	-0.272
0.108	-5.076	-0.264
0.108	-5.076	-0.255
0.106	-5.082	-0.248
0.106	-5.091	-0.246
0.105	-5.100	-0.250
0.105	-5.105	-0.257
0.106	-5.104	-0.267
0.107	-5.098	-0.274
0.108	-5.089	-0.276
0.946	-5.157	-0.210
0.946	-5.152	-0.202
0.945	-5.152	-0.193
0.944	-5.158	-0.186
0.943	-5.167	-0.184
0.942	-5.176	-0.187
0.942	-5.181	-0.195
0.943	-5.180	-0.204
0.944	-5.174	-0.211
0.946	-5.165	-0.214
1.781	-5.274	-0.135
1.782	-5.269	-0.127
1.781	-5.270	-0.118
1.780	-5.276	-0.111
1.779	-5.285	-0.109
1.778	-5.294	-0.112
1.778	-5.299	-0.120
1.778	-5.298	-0.129
1.779	-5.292	-0.136
1.780	-5.283	-0.138
2.411	-5.346	-0.167
2.412	-5.342	-0.159
2.412	-5.343	-0.150
2.412	-5.350	-0.143
2.411	-5.359	-0.141
2.409	-5.367	-0.145
2.409	-5.371	-0.153
2.408	-5.370	-0.163
2.409	-5.364	-0.169
2.410	-5.355	-0.171
0.446	-5.990	-1.184
0.454	-5.988	-1.179
0.461	-5.991	-1.174
0.465	-5.998	-1.171
0.465	-6.007	-1.171
0.460	-6.015	-1.174
0.453	-6.018	-1.179
0.446	-6.015	-1.184
0.441	-6.007	-1.187
0.442	-5.998	-1.187
0.926	-6.009	-1.879
0.934	-6.007	-1.874
0.941	-6.010	-1.869
0.945	-6.017	-1.866
0.945	-6.026	-1.866
0.940	-6.034	-1.869
0.933	-6.037	-1.874
0.926	-6.034	-1.879
0.921	-6.026	-1.882
0.922	-6.017	-1.882
1.445	-6.064	-2.587
1.452	-6.061	-2.582
1.459	-6.064	-2.577
1.463	-6.072	-2.573
1.462	-6.081	-2.572
1.457	-6.088	-2.574
1.449	-6.091	-2.579
1.442	-6.088	-2.584
1.438	-6.080	-2.588
1.439	-6.071	-2.589
1.654	-6.172	-2.958
1.662	-6.170	-2.954
1.669	-6.173	-2.949
1.673	-6.180	-2.945
1.671	-6.189	-2.943
1.665	-6.196	-2.945
1.657	-6.199	-2.949
1.650	-6.195	-2.954
1.646	-6.188	-2.958
1.648	-6.179	-2.959
0.499	-6.131	-1.265
0.502	-6.124	-1.260
0.499	-6.116	-1.256
0.492	-6.110	-1.255
0.484	-6.108	-1.258
0.477	-6.111	-1.263
0.474	-6.118	-1.269
0.476	-6.126	-1.273
0.483	-6.132	-1.273
0.492	-6.134	-1.271
0.183	-6.555	-0.595
0.186	-6.547	-0.590
0.184	-6.539	-0.587
0.178	-6.532	-0.588
0.170	-6.529	-0.592
0.163	-6.532	-0.598
0.160	-6.539	-0.603
0.162	-6.548	-0.605
0.168	-6.555	-0.604
0.176	-6.557	-0.600
-0.344	-6.684	0.067
-0.340	-6.677	0.072
-0.341	-6.668	0.073
-0.346	-6.660	0.071
-0.353	-6.657	0.065
-0.359	-6.660	0.059
-0.363	-6.667	0.054
-0.362	-6.677	0.053
-0.357	-6.684	0.056
-0.350	-6.687	0.061
-0.385	-6.695	0.112
-0.382	-6.688	0.116
-0.383	-6.679	0.118
-0.387	-6.671	0.115
-0.394	-6.668	0.109
-0.400	-6.671	0.103
-0.404	-6.678	0.098
-0.403	-6.687	0.097
-0.398	-6.695	0.100
-0.391	-6.698	0.105
0.514	-6.228	-1.353
0.522	-6.226	-1.349
0.529	-6.228	-1.344
0.534	-6.236	-1.341
0.534	-6.245	-1.341
0.529	-6.253	-1.343
0.521	-6.256	-1.348
0.514	-6.253	-1.352
0.509	-6.245	-1.355
0.509	-6.236	-1.355
0.930	-6.259	-2.085
0.938	-6.256	-2.080
0.945	-6.259	-2.076
0.949	-6.267	-2.072
0.948	-6.276	-2.071
0.943	-6.283	-2.073
0.935	-6.286	-2.077
0.928	-6.283	-2.082
0.924	-6.275	-2.086
0.925	-6.266	-2.087
1.368	-6.454	-2.785
1.376	-6.452	-2.781
1.383	-6.455	-2.776
1.386	-6.463	-2.771
1.384	-6.472	-2.769
1.378	-6.478	-2.770
1.370	-6.480	-2.774
1.363	-6.477	-2.779
1.360	-6.470	-2.784
1.362	-6.461	-2.786
1.395	-6.478	-2.835
1.403	-6.476	-2.832
1.410	-6.480	-2.827
1.412	-6.487	-2.822
1.410	-6.496	-2.819
1.403	-6.502	-2.820
1.395	-6.504	-2.823
1.388	-6.500	-2.828
1.385	-6.493	-2.833
1.388	-6.484	-2.836
0.559	-6.353	-1.443
0.559	-6.348	-1.436
0.557	-6.347	-1.427
0.554	-6.352	-1.419
0.552	-6.360	-1.416
0.551	-6.369	-1.419
0.551	-6.375	-1.426
0.553	-6.375	-1.435
0.556	-6.371	-1.442
0.558	-6.362	-1.445
1.390	-6.520	-1.257
1.388	-6.513	-1.250
1.385	-6.511	-1.242
1.381	-6.515	-1.234
1.378	-6.523	-1.231
1.377	-6.532	-1.232
1.378	-6.539	-1.238
1.382	-6.541	-1.247
1.385	-6.537	-1.254
1.388	-6.529	-1.258
2.073	-6.628	-0.807
2.071	-6.620	-0.803
2.066	-6.616	-0.797
2.060	-6.617	-0.789
2.056	-6.624	-0.785
2.055	-6.633	-0.784
2.057	-6.641	-0.788
2.061	-6.645	-0.795
2.067	-6.644	-0.802
2.071	-6.637	-0.807
2.282	-6.652	-0.611
2.287	-6.644	-0.612
2.286	-6.635	-0.612
2.279	-6.628	-0.613
2.270	-6.627	-0.613
2.262	-6.631	-0.613
2.257	-6.639	-0.612
2.259	-6.648	-0.612
2.265	-6.655	-0.611
2.274	-6.656	-0.611
0.588	-6.477	-1.522
0.589	-6.472	-1.515
0.588	-6.472	-1.506
0.586	-6.476	-1.498
0.583	-6.485	-1.495
0.580	-6.493	-1.498
0.579	-6.498	-1.506
0.579	-6.499	-1.515
0.582	-6.494	-1.522
0.585	-6.485	-1.525
1.394	-6.768	-1.450
1.396	-6.763	-1.442
1.395	-6.762	-1.433
1.392	-6.767	-1.426
1.387	-6.774	-1.423
1.383	-6.782	-1.425
1.381	-6.787	-1.433
1.382	-6.788	-1.442
1.386	-6.784	-1.449
1.390	-6.776	-1.453
2.056	-7.305	-1.327
2.059	-7.300	-1.319
2.058	-7.298	-1.310
2.053	-7.301	-1.303
2.047	-7.307	-1.300
2.041	-7.313	-1.302
2.038	-7.318	-1.310
2.039	-7.320	-1.319
2.044	-7.317	-1.326
2.051	-7.311	-1.329
2.140	-7.404	-1.293
2.143	-7.399	-1.286
2.141	-7.398	-1.277
2.136	-7.400	-1.270
2.129	-7.405	-1.267
2.122	-7.411	-1.270
2.119	-7.416	-1.277
2.121	-7.418	-1.286
2.126	-7.416	-1.293
2.133	-7.411	-1.296
0.617	-6.604	-1.599
0.618	-6.598	-1.592
0.616	-6.597	-1.583
0.613	-6.601	-1.576
0.609	-6.609	-1.572
0.606	-6.618	-1.575
0.606	-6.623	-1.582
0.607	-6.624	-1.591
0.610	-6.620	-1.599
0.614	-6.612	-1.602
1.418	-6.928	-1.429
1.420	-6.923	-1.421
1.419	-6.922	-1.412
1.417	-6.927	-1.404
1.413	-6.935	-1.401
1.410	-6.943	-1.404
1.408	-6.948	-1.412
1.409	-6.949	-1.421
1.411	-6.944	-1.429
1.415	-6.936	-1.431
2.022	-7.218	-1.455
2.024	-7.214	-1.448
2.025	-7.214	-1.439
2.022	-7.219	-1.431
2.019	-7.227	-1.429
2.015	-7.235	-1.432
2.012	-7.240	-1.439
2.012	-7.239	-1.448
2.014	-7.234	-1.456
2.018	-7.226	-1.459
0.631	-6.744	-1.644
0.630	-6.735	-1.646
0.633	-6.728	-1.651
0.638	-6.726	-1.659
0.644	-6.730	-1.665
0.648	-6.738	-1.668
0.648	-6.747	-1.667
0.645	-6.754	-1.661
0.640	-6.756	-1.654
0.634	-6.752	-1.647
-0.054	-6.862	-2.173
-0.053	-6.854	-2.176
-0.047	-6.849	-2.182
-0.041	-6.849	-2.188
-0.035	-6.855	-2.193
-0.033	-6.864	-2.194
-0.034	-6.872	-2.191
-0.040	-6.877	-2.185
-0.046	-6.877	-2.179
-0.052	-6.871	-2.174
-0.438	-6.903	-2.730
-0.438	-6.895	-2.726
-0.439	-6.886	-2.727
-0.439	-6.879	-2.733
-0.440	-6.877	-2.743
-0.439	-6.881	-2.751
-0.439	-6.889	-2.755
-0.438	-6.898	-2.754
-0.438	-6.905	-2.748
-0.438	-6.907	-2.739
0.670	-6.864	-1.737
0.669	-6.858	-1.729
0.667	-6.858	-1.720
0.664	-6.862	-1.713
0.662	-6.871	-1.710
0.662	-6.880	-1.712
0.663	-6.886	-1.720
0.665	-6.886	-1.729
0.667	-6.881	-1.736
0.669	-6.873	-1.739
1.495	-6.990	-1.540
1.495	-6.985	-1.532
1.493	-6.985	-1.523
1.491	-6.990	-1.516
1.490	-6.999	-1.513
1.489	-7.008	-1.516
1.489	-7.013	-1.524
1.491	-7.013	-1.533
1.493	-7.008	-1.540
1.494	-6.999	-1.543
2.291	-7.120	-1.472
2.295	-7.111	-1.472
2.294	-7.102	-1.472
2.287	-7.096	-1.472
2.278	-7.094	-1.472
2.270	-7.098	-1.472
2.266	-7.107	-1.472
2.267	-7.116	-1.472
2.274	-7.122	-1.472
2.283	-7.124	-1.472
0.694	-6.994	-1.803
0.694	-6.989	-1.796
0.693	-6.989	-1.786
0.692	-6.995	-1.779
0.691	-7.004	-1.777
0.690	-7.013	-1.781
0.690	-7.018	-1.789
0.691	-7.017	-1.798
0.692	-7.011	-1.805
0.693	-7.002	-1.807
1.568	-7.082	-1.743
1.569	-7.077	-1.735
1.569	-7.078	-1.726
1.568	-7.083	-1.719
1.566	-7.092	-1.717
1.564	-7.101	-1.720
1.563	-7.105	-1.728
1.564	-7.105	-1.737
1.565	-7.099	-1.744
1.567	-7.090	-1.747
1.999	-7.213	-1.761
2.000	-7.208	-1.753
2.000	-7.209	-1.744
1.999	-7.214	-1.736
1.996	-7.223	-1.734
1.994	-7.231	-1.737
1.992	-7.236	-1.745
1.992	-7.235	-1.754
1.993	-7.230	-1.762
1.996	-7.221	-1.764
0.713	-7.139	-1.848
0.711	-7.130	-1.849
0.713	-7.122	-1.854
0.717	-7.119	-1.861
0.723	-7.122	-1.868
0.728	-7.129	-1.872
0.729	-7.138	-1.871
0.728	-7.146	-1.866
0.723	-7.149	-1.859
0.718	-7.146	-1.852
0.024	-7.318	-2.330
0.024	-7.309	-2.332
0.028	-7.302	-2.338
0.034	-7.301	-2.345
0.040	-7.306	-2.351
0.043	-7.314	-2.353
0.043	-7.323	-2.350
0.040	-7.329	-2.345
0.034	-7.330	-2.338
0.028	-7.326	-2.332
-0.557	-7.422	-2.944
-0.556	-7.413	-2.947
-0.551	-7.408	-2.952
-0.544	-7.408	-2.959
-0.538	-7.414	-2.963
-0.536	-7.423	-2.964
-0.537	-7.432	-2.961
-0.542	-7.437	-2.955
-0.549	-7.436	-2.949
-0.555	-7.430	-2.944
0.143	-5.171	-0.370
0.140	-5.162	-0.372
0.141	-5.155	-0.378
0.146	-5.152	-0.386
0.152	-5.155	-0.392
0.158	-5.162	-0.395
0.160	-5.170	-0.393
0.159	-5.177	-0.387
0.155	-5.180	-0.379
0.148	-5.178	-0.373
-0.488	-5.481	-0.876
-0.491	-5.472	-0.879
-0.490	-5.465	-0.885
-0.486	-5.462	-0.892
-0.479	-5.465	-0.898
-0.473	-5.471	-0.901
-0.470	-5.480	-0.898
-0.471	-5.487	-0.892
-0.476	-5.490	-0.885
-0.482	-5.487	-0.879
-1.008	-5.897	-1.382
-1.004	-5.888	-1.382
-1.005	-5.879	-1.382
-1.012	-5.873	-1.382
-1.021	-5.871	-1.382
-1.029	-5.875	-1.382
-1.033	-5.884	-1.382
-1.032	-5.893	-1.382
-1.025	-5.899	-1.382
-1.016	-5.901	-1.382
0.743	-7.252	-1.934
0.751	-7.250	-1.930
0.758	-7.253	-1.925
0.762	-7.260	-1.921
0.762	-7.269	-1.920
0.756	-7.277	-1.922
0.748	-7.279	-1.926
0.741	-7.276	-1.931
0.737	-7.269	-1.934
0.738	-7.259	-1.935
1.170	-7.374	-2.691
1.178	-7.372	-2.688
1.185	-7.376	-2.683
1.188	-7.383	-2.678
1.186	-7.392	-2.676
1.179	-7.398	-2.676
1.170	-7.400	-2.679
1.163	-7.396	-2.684
1.160	-7.389	-2.689
1.163	-7.380	-2.691
1.347	-7.748	-3.192
1.356	-7.748	-3.189
1.362	-7.752	-3.184
1.363	-7.759	-3.178
[...]
         <CellData>
           <DataArray type="Float32" Name="combinedRootClassID" NumberOfComponents="1" format="ascii">
 -1.300e+01 -1.300e+01 -1.300e+01 -1.300e+01 -1.300e+01 -1.300e+01 -1.300e+01 -1.300e+01 -1.300e+01 -1.300e+01 -1.300e+01 -1.300e+01 -1.300e+01 -1.300e+01 -1.300e+01 -1.300e+01 -1.300e+01 -1.300e+01 -1.300e+01 -1.300e+01 -1.300e+01 -1.300e+01 -1.300e+01 -1.300e+01 -1.300e+01 -1.300e+01 -1.300e+01 -1.300e+01 -1.300e+01 -1.300e+01 -1.300e+01 -1.300e+01 -1.300e+01 -1.300e+01 -1.300e+01 -1.300e+01 -1.300e+01 -1.300e+01 -1.300e+01 -1.300e+01 -1.300e+01 -1.300e+01 -1.300e+01 -1.300e+01 -1.300e+01 -1.300e+01 -1.300e+01 -1.300e+01 -1.300e+01 -1.300e+01 -1.300e+01 -1.300e+01 -1.300e+01 -1.300e+01 -1.300e+01 -1.300e+01 -1.300e+01 -1.300e+01 -1.300e+01 -1.300e+01 -1.300e+01 -1.300e+01 -1.300e+01 -1.300e+01 -1.300e+01 -1.300e+01 -1.300e+01 -1.300e+01 -1.300e+01 -1.300e+01 -1.300e+01 -1.300e+01 -1.300e+01 -1.300e+01 -1.300e+01 -1.300e+01 -1.300e+01 -1.300e+01 -1.300e+01 -1.300e+01 -1.300e+01 -1.300e+01 -1.300e+01 -1.300e+01 -1.300e+01 -1.300e+01 -1.300e+01 -1.300e+01 -1.300e+01 -1.300e+01 -1.300e+01 -1.300e+01 -1.300e+01 -1.300e+01 -1.300e+01 -1.300e+01 -1.300e+01 -1.300e+01 -1.300e+01 -1.300e+01 -1.300e+01 -1.300e+01 -1.300e+01 -1.300e+01 -1.300e+01 -1.300e+01 -1.300e+01 -1.300e+01 -1.300e+01 -1.300e+01 -1.300e+01 -1.300e+01 -1.300e+01 -1.300e+01 -1.300e+01 -1.300e+01 -1.300e+01 -1.300e+01 -1.300e+01 -1.300e+01 -1.300e+01 -1.300e+01 -1.300e+01 -1.300e+01 -1.300e+01 -1.300e+01 -1.300e+01 -1.300e+01 -1.300e+01 -1.300e+01 -1.300e+01 -1.300e+01 -1.300e+01 -1.300e+01 -1.300e+01 -1.300e+01 -1.300e+01 -1.300e+01 -1.300e+01 -1.300e+01 -1.300e+01 -1.300e+01 -1.300e+01 -1.300e+01 -1.300e+01 -1.300e+01 -1.300e+01 -1.300e+01 -1.300e+01 -1.300e+01 -1.300e+01 -1.300e+01 -1.300e+01 -5.000e+00 -5.000e+00 -5.000e+00 -5.000e+00 -5.000e+00 -5.000e+00 -5.000e+00 -5.000e+00 -5.000e+00 -5.000e+00 -5.000e+00 -5.000e+00 -5.000e+00 -5.000e+00 -5.000e+00 -5.000e+00 -5.000e+00 -5.000e+00 -5.000e+00 -5.000e+00 -5.000e+00 -5.000e+00 -5.000e+00 -5.000e+00 -5.000e+00 -5.000e+00 -5.000e+00 -5.000e+00 -1.300e+01 -1.300e+01 -1.300e+01 -1.300e+01 -1.300e+01 -1.300e+01 -1.300e+01 -1.300e+01 -1.300e+01 -1.300e+01 -1.300e+01 -1.300e+01 -1.300e+01 -1.300e+01 -1.300e+01 -1.300e+01 -1.300e+01 -1.300e+01 -1.300e+01 -1.300e+01 -1.300e+01 -1.300e+01 -1.300e+01 -1.300e+01 -1.300e+01 -1.300e+01 -1.300e+01 -1.300e+01 -1.300e+01 -1.300e+01 -1.300e+01 -1.300e+01 -1.300e+01 -1.300e+01 -1.300e+01 -1.300e+01 -1.300e+01 -1.300e+01 -1.300e+01 -1.300e+01 -1.300e+01 -1.300e+01 -1.300e+01 -1.300e+01 -1.300e+01 -1.300e+01 -1.300e+01 -1.300e+01 -1.300e+01 -1.300e+01 -1.300e+01 -1.300e+01 -1.300e+01 -1.300e+01 -1.300e+01 -1.300e+01 -1.300e+01 -1.300e+01 -1.300e+01 -1.300e+01 -1.300e+01 -1.300e+01 -1.300e+01 -1.300e+01 -1.300e+01 -1.300e+01 -1.300e+01 -1.300e+01 -1.300e+01 -1.300e+01 -1.300e+01 -1.300e+01 -1.300e+01 -1.300e+01 -1.300e+01 -1.300e+01 -1.300e+01 -1.300e+01 -1.300e+01 -1.300e+01 -1.300e+01 -1.300e+01 -1.300e+01 -1.300e+01 -1.300e+01 -1.300e+01 -1.300e+01 -1.300e+01 -1.300e+01 -1.300e+01 -1.300e+01 -1.300e+01 -1.300e+01 -1.300e+01 -1.300e+01 -1.300e+01 -1.300e+01 -1.300e+01 -1.300e+01 -1.300e+01 -1.300e+01 -1.300e+01 -1.300e+01 -1.300e+01 -1.300e+01 -1.300e+01 -1.300e+01 -1.300e+01 -1.300e+01 -1.300e+01 -1.300e+01 -1.300e+01 -1.300e+01 -1.300e+01 -1.300e+01 -1.300e+01 -1.300e+01 -1.300e+01 -1.300e+01 -1.300e+01 -1.300e+01 -1.300e+01 -1.300e+01 -1.300e+01 -1.300e+01 -1.300e+01 -1.300e+01 -1.300e+01 -1.300e+01 -1.300e+01 -1.300e+01 -1.300e+01 -1.300e+01 -1.300e+01 -1.300e+01 -1.300e+01 -1.300e+01 -1.300e+01 -1.300e+01 -1.300e+01 -1.300e+01 -1.300e+01 -1.300e+01 -1.300e+01 -1.300e+01 -1.300e+01 -5.000e+00 -5.000e+00 -5.000e+00 -5.000e+00 -5.000e+00 -5.000e+00 -5.000e+00 -5.000e+00 -5.000e+00 -5.000e+00 -5.000e+00 -5.000e+00 -5.000e+00 -5.000e+00 -5.000e+00 -5.000e+00 -5.000e+00 -5.000e+00 -5.000e+00 -5.000e+00 -5.000e+00 -5.000e+00 -5.000e+00 -5.000e+00 -5.000e+00 -5.000e+00 -5.000e+00 -5.000e+00 -1.300e+01 -1.300e+01 -1.300e+01 -1.300e+01 -1.300e+01 -1.300e+01 -1.300e+01 -1.300e+01 -1.300e+01 -1.300e+01 -1.300e+01 -1.300e+01 -1.300e+01 -1.300e+01 -1.300e+01 -1.300e+01 -1.300e+01 -1.300e+01 -1.300e+01 -1.300e+01 -1.300e+01 -1.300e+01 -1.300e+01 -1.300e+01 -1.300e+01 -1.300e+01 -1.300e+01 -1.300e+01 -1.300e+01 -1.300e+01 -1.300e+01 -1.300e+01 -1.300e+01 -1.300e+01 -1.300e+01 -1.300e+01 -1.300e+01 -1.300e+01 -1.300e+01 -1.300e+01 -1.300e+01 -1.300e+01 -1.300e+01 -1.300e+01 -1.300e+01 -1.300e+01 -1.300e+01 -1.300e+01 -1.300e+01 -1.300e+01 -1.300e+01 -1.300e+01 -1.300e+01 -1.300e+01 -1.300e+01 -1.300e+01 -1.300e+01 -1.300e+01 -1.300e+01 -1.300e+01 -1.300e+01 -1.300e+01 -1.300e+01 -1.300e+01 -1.300e+01 -1.300e+01 -1.300e+01 -1.300e+01 -1.300e+01 -1.300e+01 -1.300e+01 -1.300e+01 -1.300e+01 -1.300e+01 -1.300e+01 -1.300e+01 -1.300e+01 -1.300e+01 -1.300e+01 -1.300e+01 -1.300e+01 -1.300e+01 -1.300e+01 -1.300e+01 -1.300e+01 -1.300e+01 -1.300e+01 -1.300e+01 -1.300e+01 -1.300e+01 -1.300e+01 -1.300e+01 -1.300e+01 -1.300e+01 -1.300e+01 -1.300e+01 -1.300e+01 -1.300e+01 -1.300e+01 -1.300e+01 -1.300e+01 -1.300e+01 -1.300e+01 -1.300e+01 -1.300e+01 -1.300e+01 -1.300e+01 -1.300e+01 -1.300e+01 -1.300e+01 -1.300e+01 -1.300e+01 -1.300e+01 -1.300e+01 -1.300e+01 -1.300e+01 -1.300e+01 -1.300e+01 -1.300e+01 -1.300e+01 -1.300e+01 -1.300e+01 -1.300e+01 -1.300e+01 -1.300e+01 -1.300e+01 -1.300e+01 -1.300e+01 -1.300e+01 -1.300e+01 -1.300e+01 -1.300e+01 -1.300e+01 -1.300e+01 -1.300e+01 -1.300e+01 -1.300e+01 -1.300e+01 -1.300e+01 -1.300e+01 -1.300e+01 -1.300e+01 -1.300e+01 -1.300e+01 -1.300e+01 -1.300e+01 -1.300e+01 -1.300e+01 -1.300e+01 -1.300e+01 -1.300e+01 -1.300e+01 -1.300e+01 -5.000e+00 -5.000e+00 -5.000e+00 -5.000e+00 -5.000e+00 -5.000e+00 -5.000e+00 -5.000e+00 -5.000e+00 -5.000e+00 -5.000e+00 -5.000e+00 -5.000e+00 -5.000e+00 -5.000e+00 -5.000e+00 -5.000e+00 -5.000e+00 -5.000e+00 -5.000e+00 -5.000e+00 -5.000e+00 -5.000e+00 -5.000e+00 -5.000e+00 -5.000e+00 -5.000e+00 -5.000e+00 -1.300e+01 -1.300e+01 -1.300e+01 -1.300e+01 -1.300e+01 -1.300e+01 -1.300e+01 -1.300e+01 -1.300e+01 -1.300e+01 -1.300e+01 -1.300e+01 -1.300e+01 -1.300e+01 -1.300e+01 -1.300e+01 -1.300e+01 -1.300e+01 -1.300e+01 -1.300e+01 -1.300e+01 -1.300e+01 -1.300e+01 -1.300e+01 -1.300e+01 -1.300e+01 -1.300e+01 -1.300e+01 -1.300e+01 -1.300e+01 -1.300e+01 -1.300e+01 -1.300e+01 -1.300e+01 -1.300e+01 -1.300e+01 -1.300e+01 -1.300e+01 -1.300e+01 -1.300e+01 -1.300e+01 -1.300e+01 -1.300e+01 -1.300e+01 -1.300e+01 -1.300e+01 -1.300e+01 -1.300e+01 -1.300e+01 -1.300e+01 -1.300e+01 -1.300e+01 -1.300e+01 -1.300e+01 -1.300e+01 -1.300e+01 -1.300e+01 -1.300e+01 -1.300e+01 -1.300e+01 -1.300e+01 -1.300e+01 -1.300e+01 -1.300e+01 -1.300e+01 -1.300e+01 -1.300e+01 -1.300e+01 -1.300e+01 -1.300e+01 -1.300e+01 -1.300e+01 -1.300e+01 -1.300e+01 -1.300e+01 -1.300e+01 -1.300e+01 -1.300e+01 -1.300e+01 -1.300e+01 -1.300e+01 -1.300e+01 -1.300e+01 -1.300e+01 -1.300e+01 -1.300e+01 -1.300e+01 -1.300e+01 -1.300e+01 -1.300e+01 -1.300e+01 -1.300e+01 -1.300e+01 -1.300e+01 -1.300e+01 -1.300e+01 -1.300e+01 -1.300e+01 -1.300e+01 -1.300e+01 -1.300e+01 -1.300e+01 -1.300e+01 -1.300e+01 -1.300e+01 -1.300e+01 -1.300e+01 -1.300e+01 -1.300e+01 -1.300e+01 -1.300e+01 -1.300e+01 -1.300e+01 -1.300e+01 -1.300e+01 -1.300e+01 -1.300e+01 -1.300e+01 -1.300e+01 -1.300e+01 -1.300e+01 -1.300e+01 -1.300e+01 -1.300e+01 -1.300e+01 -1.300e+01 -1.300e+01 -1.300e+01 -1.300e+01 -1.300e+01 -1.300e+01 -1.300e+01 -1.300e+01 -1.300e+01 -1.300e+01 -1.300e+01 -1.300e+01 -1.300e+01 -1.300e+01 -1.300e+01 -1.300e+01 -1.300e+01 -1.300e+01 -1.300e+01 -1.300e+01 -1.300e+01 -1.300e+01 -1.300e+01 -1.300e+01 -1.300e+01 -1.300e+01 -1.300e+01 -5.000e+00 -5.000e+00 -5.000e+00 -5.000e+00 -5.000e+00 -5.000e+00 -5.000e+00 -5.000e+00 -5.000e+00 -5.000e+00 -5.000e+00 -5.000e+00 -5.000e+00 -5.000e+00 -5.000e+00 -5.000e+00 -5.000e+00 -5.000e+00 -5.000e+00 -5.000e+00 -5.000e+00 -5.000e+00 -5.000e+00 -5.000e+00 -5.000e+00 -5.000e+00 -5.000e+00 -5.000e+00 -1.900e+01 -1.900e+01 -1.900e+01 -1.900e+01 -1.900e+01 -1.900e+01 -1.900e+01 -1.900e+01 -1.900e+01 -1.900e+01 -1.900e+01 -1.900e+01 -1.900e+01 -1.900e+01 -1.900e+01 -1.900e+01 -1.900e+01 -1.900e+01 -1.900e+01 -1.900e+01 -9.000e+00 -9.000e+00 -9.000e+00 -9.000e+00 -9.000e+00 -9.000e+00 -9.000e+00 -9.000e+00 -9.000e+00 -9.000e+00 -9.000e+00 -9.000e+00 -9.000e+00 -9.000e+00 -9.000e+00 -9.000e+00 -9.000e+00 -1.900e+01 -1.900e+01 -1.900e+01 -1.900e+01 -1.900e+01 -1.900e+01 -1.900e+01 -1.900e+01 -1.900e+01 -1.900e+01 -1.900e+01 -1.900e+01 -1.900e+01 -1.900e+01 -1.900e+01 -1.900e+01 -1.900e+01 -1.900e+01 -1.900e+01 -1.900e+01 -9.000e+00 -9.000e+00 -9.000e+00 -9.000e+00 -9.000e+00 -9.000e+00 -9.000e+00 -9.000e+00 -9.000e+00 -9.000e+00 -9.000e+00 -9.000e+00 -9.000e+00 -9.000e+00 -9.000e+00 -9.000e+00 -9.000e+00 -1.900e+01 -1.900e+01 -1.900e+01 -1.900e+01 -1.900e+01 -1.900e+01 -1.900e+01 -1.900e+01 -1.900e+01 -1.900e+01 -1.900e+01 -1.900e+01 -1.900e+01 -1.900e+01 -1.900e+01 -1.900e+01 -1.900e+01 -1.900e+01 -1.900e+01 -1.900e+01 -9.000e+00 -9.000e+00 -9.000e+00 -9.000e+00 -9.000e+00 -9.000e+00 -9.000e+00 -9.000e+00 -9.000e+00 -9.000e+00 -9.000e+00 -9.000e+00 -9.000e+00 -9.000e+00 -9.000e+00 -9.000e+00 -9.000e+00 -1.900e+01 -1.900e+01 -1.900e+01 -1.900e+01 -1.900e+01 -1.900e+01 -1.900e+01 -1.900e+01 -1.900e+01 -1.900e+01 -1.900e+01 -1.900e+01 -1.900e+01 -1.900e+01 -1.900e+01 -1.900e+01 -1.900e+01 -1.900e+01 -1.900e+01 -1.900e+01 -9.000e+00 -9.000e+00 -9.000e+00 -9.000e+00 -9.000e+00 -9.000e+00 -9.000e+00 -9.000e+00 -9.000e+00 -9.000e+00 -9.000e+00 -9.000e+00 -9.000e+00 -9.000e+00 -9.000e+00 -9.000e+00 -9.000e+00 -2.000e+01 -2.000e+01 -2.000e+01 -2.000e+01 -2.000e+01 -2.000e+01 -2.000e+01 -2.000e+01 -2.000e+01 -2.000e+01 -2.000e+01 -2.000e+01 -2.000e+01 -2.000e+01 -2.000e+01 -2.000e+01 -2.000e+01 -2.000e+01 -2.000e+00 -2.000e+00 -2.000e+00 -2.000e+00 -2.000e+00 -2.000e+00 -2.000e+00 -2.000e+00 -2.000e+00 -2.000e+00 -1.500e+01 -1.500e+01 -1.500e+01 -7.000e+00 -7.000e+00 -7.000e+00 -7.000e+00 -7.000e+00 -7.000e+00 -7.000e+00 -1.500e+01 -1.500e+01 -1.500e+01 -7.000e+00 -7.000e+00 -7.000e+00 -7.000e+00 -7.000e+00 -7.000e+00 -7.000e+00 -1.500e+01 -7.000e+00 -7.000e+00 -7.000e+00 -7.000e+00 -7.000e+00 -7.000e+00 -7.000e+00 -7.000e+00 -7.000e+00 -7.000e+00 -7.000e+00 -7.000e+00 -7.000e+00 -7.000e+00 -7.000e+00 -7.000e+00 -7.000e+00 -7.000e+00 -7.000e+00 -7.000e+00 -7.000e+00 -7.000e+00 -7.000e+00 -7.000e+00 -7.000e+00 -7.000e+00 -7.000e+00 -7.000e+00 -7.000e+00 -7.000e+00 -1.500e+01 -1.500e+01 -7.000e+00 -7.000e+00 -7.000e+00 -7.000e+00 -7.000e+00 -7.000e+00 -7.000e+00 -7.000e+00 -7.000e+00 -7.000e+00 -7.000e+00 -7.000e+00 -7.000e+00 -7.000e+00 -7.000e+00 -7.000e+00 -7.000e+00 -7.000e+00 -7.000e+00 -7.000e+00 -7.000e+00 -7.000e+00 -7.000e+00 -7.000e+00 -7.000e+00 -7.000e+00 -7.000e+00 -1.500e+01 -1.500e+01 -7.000e+00 -7.000e+00 -7.000e+00 -7.000e+00 -7.000e+00 -7.000e+00 -7.000e+00 -7.000e+00 -7.000e+00 -7.000e+00 -7.000e+00 -7.000e+00 -7.000e+00 -7.000e+00 -7.000e+00 -7.000e+00 -7.000e+00 -7.000e+00 -7.000e+00 -7.000e+00 -7.000e+00 -7.000e+00 -7.000e+00 -7.000e+00 -7.000e+00 -7.000e+00 -7.000e+00 -7.000e+00 -7.000e+00 -7.000e+00 -7.000e+00 -7.000e+00 -7.000e+00 -7.000e+00 -7.000e+00 -7.000e+00 -7.000e+00 -7.000e+00 -7.000e+00 -7.000e+00 -7.000e+00 -7.000e+00 -7.000e+00 -7.000e+00 -7.000e+00 -7.000e+00 -7.000e+00 -7.000e+00 -7.000e+00 -7.000e+00 -7.000e+00 -7.000e+00 -7.000e+00 -7.000e+00 -7.000e+00 -7.000e+00 -1.500e+01 -1.500e+01 -7.000e+00 -7.000e+00 -7.000e+00 -7.000e+00 -7.000e+00 -7.000e+00 -7.000e+00 -7.000e+00 -7.000e+00 -7.000e+00 -7.000e+00 -7.000e+00 -7.000e+00 -7.000e+00 -7.000e+00 -7.000e+00 -7.000e+00 -7.000e+00 -7.000e+00 -7.000e+00 -7.000e+00 -7.000e+00 -7.000e+00 -7.000e+00 -7.000e+00 -7.000e+00 -1.500e+01 -7.000e+00 -7.000e+00 -7.000e+00 -7.000e+00 -7.000e+00 -7.000e+00 -7.000e+00 -7.000e+00 -7.000e+00 -7.000e+00 -7.000e+00 -1.500e+01 -7.000e+00 -7.000e+00 -7.000e+00 -7.000e+00 -7.000e+00 -7.000e+00 -7.000e+00 -7.000e+00 -7.000e+00 -7.000e+00 -7.000e+00 -1.500e+01 -7.000e+00 -7.000e+00 -7.000e+00 -7.000e+00 -7.000e+00 -7.000e+00 -7.000e+00 -7.000e+00 -7.000e+00 -7.000e+00 -7.000e+00 -1.500e+01 -7.000e+00 -7.000e+00 -7.000e+00 -7.000e+00 -7.000e+00 -7.000e+00 -7.000e+00 -7.000e+00 -7.000e+00 -7.000e+00 -7.000e+00 -7.000e+00 -7.000e+00 -7.000e+00 -7.000e+00 -1.500e+01 -1.500e+01 -7.000e+00 -7.000e+00 -7.000e+00 -7.000e+00 -7.000e+00 -7.000e+00 -1.500e+01 -7.000e+00 -7.000e+00 -7.000e+00 -7.000e+00 -7.000e+00 -7.000e+00 -7.000e+00 -7.000e+00 -7.000e+00 -7.000e+00 -7.000e+00 -7.000e+00 -7.000e+00 -7.000e+00 -7.000e+00 -7.000e+00 -1.500e+01 -1.500e+01 -7.000e+00 -7.000e+00 -7.000e+00 -7.000e+00 -7.000e+00 -7.000e+00 -7.000e+00 -7.000e+00 -7.000e+00 -7.000e+00 -7.000e+00 -7.000e+00 -7.000e+00 -7.000e+00 -7.000e+00 -7.000e+00 -7.000e+00 -7.000e+00 -7.000e+00 -7.000e+00 -7.000e+00 -7.000e+00 -7.000e+00 -7.000e+00 -7.000e+00 -7.000e+00 -7.000e+00 -7.000e+00 -7.000e+00 -7.000e+00 -7.000e+00 -7.000e+00 -7.000e+00 -7.000e+00 -7.000e+00 -7.000e+00 -1.500e+01 -7.000e+00 -7.000e+00 -7.000e+00 -7.000e+00 -7.000e+00 -7.000e+00 -7.000e+00 -7.000e+00 -7.000e+00 -7.000e+00 -7.000e+00 -7.000e+00 -7.000e+00 -7.000e+00 -7.000e+00 -7.000e+00 -7.000e+00 -7.000e+00 -7.000e+00 -7.000e+00 -7.000e+00 -1.500e+01 -1.500e+01 -1.500e+01 -7.000e+00 -7.000e+00 -7.000e+00 -7.000e+00 -7.000e+00 -7.000e+00 -7.000e+00 -7.000e+00 -7.000e+00 -7.000e+00 -7.000e+00 -7.000e+00 -7.000e+00 -7.000e+00 -7.000e+00 -7.000e+00 -7.000e+00 -7.000e+00 -7.000e+00 -7.000e+00 -7.000e+00 -7.000e+00 -7.000e+00 -7.000e+00 -7.000e+00 -7.000e+00 -7.000e+00 -7.000e+00 -7.000e+00 -7.000e+00 -7.000e+00 -7.000e+00 -7.000e+00 -7.000e+00 -7.000e+00 -7.000e+00 -7.000e+00 -7.000e+00 -7.000e+00 -7.000e+00 -7.000e+00 -7.000e+00 -7.000e+00 -7.000e+00 -7.000e+00 -7.000e+00 -7.000e+00 -7.000e+00 -7.000e+00 -7.000e+00 -7.000e+00 -7.000e+00 -7.000e+00 -7.000e+00 -1.500e+01 -1.500e+01 -7.000e+00 -7.000e+00 -7.000e+00 -7.000e+00 -7.000e+00 -7.000e+00 -7.000e+00 -7.000e+00 -7.000e+00 -7.000e+00 -7.000e+00 -7.000e+00 -7.000e+00 -7.000e+00 -7.000e+00 -7.000e+00 -7.000e+00 -7.000e+00 -7.000e+00 -7.000e+00 -7.000e+00 -7.000e+00 -7.000e+00 -7.000e+00 -7.000e+00 -7.000e+00 -7.000e+00 -7.000e+00 -7.000e+00 -7.000e+00 -7.000e+00 -7.000e+00 -7.000e+00 -7.000e+00 -7.000e+00 -7.000e+00 -7.000e+00 -7.000e+00 -7.000e+00 -7.000e+00 -7.000e+00 -7.000e+00 -7.000e+00 -7.000e+00 -7.000e+00 -7.000e+00 -7.000e+00 -1.500e+01 -1.500e+01 -7.000e+00 -7.000e+00 -7.000e+00 -7.000e+00 -7.000e+00 -7.000e+00 -7.000e+00 -7.000e+00 -7.000e+00 -7.000e+00 -7.000e+00 -7.000e+00 -7.000e+00 -7.000e+00 -7.000e+00 -7.000e+00 -7.000e+00 -7.000e+00 -7.000e+00 -7.000e+00 -7.000e+00 -7.000e+00 -7.000e+00 -7.000e+00 -7.000e+00 -7.000e+00 -7.000e+00 -7.000e+00 -7.000e+00 -7.000e+00 -7.000e+00 -7.000e+00 -7.000e+00 -7.000e+00 -7.000e+00 -7.000e+00 -7.000e+00 -7.000e+00 -7.000e+00 -7.000e+00 -7.000e+00 -7.000e+00 -7.000e+00 -7.000e+00 -7.000e+00 -7.000e+00 -7.000e+00 -1.500e+01 -1.500e+01 -7.000e+00 -7.000e+00 -7.000e+00 -7.000e+00 -7.000e+00 -7.000e+00 -7.000e+00 -7.000e+00 -7.000e+00 -7.000e+00 -7.000e+00 -7.000e+00 -7.000e+00 -7.000e+00 -7.000e+00 -7.000e+00 -7.000e+00 -7.000e+00 -7.000e+00 -7.000e+00 -7.000e+00 -7.000e+00 -7.000e+00 -7.000e+00 -7.000e+00 -7.000e+00 -7.000e+00 -7.000e+00 -7.000e+00 -7.000e+00 -7.000e+00 -7.000e+00 -7.000e+00 -7.000e+00 -7.000e+00 -7.000e+00 -7.000e+00 -7.000e+00 -7.000e+00 -7.000e+00 -7.000e+00 -7.000e+00 -7.000e+00 -7.000e+00 -7.000e+00 -7.000e+00 -7.000e+00 -7.000e+00 -7.000e+00 -7.000e+00 -7.000e+00 -7.000e+00 -7.000e+00 -7.000e+00 -7.000e+00 -7.000e+00 -7.000e+00 -7.000e+00 -7.000e+00 -7.000e+00 -7.000e+00 -7.000e+00 -7.000e+00 -7.000e+00 -7.000e+00 -7.000e+00 -7.000e+00 -7.000e+00 -7.000e+00 -7.000e+00 -7.000e+00 -7.000e+00 -7.000e+00 -7.000e+00 -7.000e+00 -7.000e+00 -7.000e+00 -7.000e+00 -7.000e+00 -7.000e+00 -7.000e+00 -7.000e+00 -7.000e+00 -7.000e+00 -7.000e+00 -7.000e+00 -7.000e+00 -7.000e+00 -7.000e+00 -7.000e+00 -7.000e+00 -7.000e+00 -7.000e+00 -7.000e+00 -7.000e+00 -7.000e+00 -7.000e+00 -7.000e+00 -7.000e+00 -7.000e+00 -7.000e+00 -7.000e+00 -7.000e+00 -7.000e+00 -7.000e+00 -7.000e+00 -7.000e+00 -7.000e+00 -7.000e+00 -7.000e+00 -7.000e+00 -7.000e+00 -1.700e+01 -1.700e+01 -1.700e+01 -1.700e+01 -1.100e+01 -1.100e+01 -1.100e+01 -1.100e+01 -1.100e+01 -1.100e+01 -1.100e+01 -1.100e+01 -1.700e+01 -1.100e+01 -1.100e+01 -1.100e+01 -1.100e+01 -1.100e+01 -1.100e+01 -1.100e+01 -1.100e+01 -1.100e+01 -1.100e+01 -1.100e+01 -1.100e+01 -1.100e+01 -1.100e+01 -1.100e+01 -4.000e+00 -4.000e+00 -4.000e+00 -4.000e+00 -4.000e+00 -4.000e+00 -4.000e+00 -4.000e+00 -4.000e+00 -4.000e+00 -4.000e+00 -4.000e+00 -4.000e+00 -4.000e+00 -4.000e+00 -4.000e+00 -4.000e+00 -4.000e+00 -4.000e+00 -4.000e+00 -4.000e+00 -4.000e+00 -4.000e+00 -4.000e+00 -4.000e+00 -4.000e+00 -4.000e+00 -4.000e+00 -4.000e+00 -4.000e+00 -4.000e+00 -4.000e+00 -4.000e+00 -4.000e+00 -4.000e+00 -4.000e+00
           </DataArray>
           <DataArray type="Float32" Name="nitrate/Cmin" NumberOfComponents="1" format="ascii">