<?xml version="1.0"?>
<VTKFile type="UnstructuredGrid" version="0.1" byte_order="LittleEndian">
   <UnstructuredGrid>
      <Piece NumberOfPoints="260" NumberOfCells="24">
         <Points>
            <DataArray type="Float32" Name="Position" NumberOfComponents="3" format="ascii">
-0.146	-4.996	0.142
-0.035	-4.995	0.200
0.090	-4.997	0.183
0.180	-4.999	0.095
0.201	-5.002	-0.029
0.146	-5.004	-0.142
0.035	-5.005	-0.200
-0.090	-5.003	-0.183
-0.180	-5.001	-0.095
-0.201	-4.998	0.029
-0.140	-4.248	0.126
-0.028	-4.248	0.184
0.096	-4.248	0.165
0.185	-4.249	0.077
0.205	-4.251	-0.047
0.149	-4.252	-0.159
0.038	-4.253	-0.216
-0.086	-4.253	-0.197
-0.175	-4.251	-0.109
-0.196	-4.250	0.014
-0.142	-3.560	0.123
-0.030	-3.559	0.180
0.093	-3.559	0.161
0.182	-3.559	0.073
0.201	-3.560	-0.051
0.145	-3.561	-0.162
0.034	-3.561	-0.219
-0.090	-3.562	-0.200
-0.178	-3.561	-0.111
-0.198	-3.561	0.012
-0.143	-2.400	0.116
-0.032	-2.399	0.172
0.091	-2.399	0.153
0.179	-2.399	0.065
0.199	-2.400	-0.058
0.142	-2.401	-0.169
0.031	-2.402	-0.226
-0.092	-2.402	-0.207
-0.180	-2.402	-0.119
-0.200	-2.401	0.004
-0.147	-1.801	0.111
-0.036	-1.800	0.168
0.087	-1.799	0.148
0.175	-1.799	0.060
0.194	-1.799	-0.063
0.138	-1.800	-0.174
0.026	-1.801	-0.230
-0.096	-1.802	-0.211
-0.184	-1.802	-0.123
-0.204	-1.802	0.000
-0.150	-1.201	0.110
-0.040	-1.200	0.166
0.083	-1.200	0.147
0.171	-1.200	0.059
0.191	-1.200	-0.064
0.134	-1.200	-0.175
0.023	-1.201	-0.231
-0.100	-1.201	-0.212
-0.188	-1.201	-0.124
-0.207	-1.201	-0.001
-0.152	-0.300	0.107
-0.041	-0.300	0.163
0.082	-0.300	0.144
0.170	-0.300	0.056
0.189	-0.301	-0.066
0.133	-0.301	-0.177
0.023	-0.301	-0.234
-0.100	-0.301	-0.214
-0.188	-0.301	-0.127
-0.208	-0.300	-0.004
-0.149	0.560	0.104
-0.039	0.560	0.160
0.084	0.560	0.141
0.171	0.560	0.053
0.191	0.560	-0.069
0.135	0.559	-0.180
0.024	0.559	-0.236
-0.098	0.559	-0.217
-0.186	0.559	-0.129
-0.206	0.560	-0.007
-0.151	1.439	0.105
-0.040	1.439	0.161
0.082	1.440	0.142
0.169	1.440	0.054
0.188	1.440	-0.069
0.132	1.440	-0.179
0.021	1.440	-0.235
-0.101	1.439	-0.215
-0.188	1.439	-0.127
-0.207	1.439	-0.005
-0.156	2.315	0.106
-0.045	2.315	0.162
0.077	2.316	0.142
0.164	2.317	0.054
0.183	2.317	-0.068
0.126	2.317	-0.178
0.016	2.317	-0.233
-0.106	2.316	-0.214
-0.193	2.315	-0.126
-0.212	2.315	-0.004
-0.157	2.611	-0.035
-0.046	2.667	-0.035
0.076	2.648	-0.035
0.163	2.560	-0.035
0.182	2.438	-0.035
0.126	2.328	-0.035
0.016	2.272	-0.035
-0.106	2.291	-0.035
-0.193	2.379	-0.035
-0.213	2.501	-0.035
0.033	-5.000	-0.033
0.046	-4.999	-0.007
0.042	-4.999	0.022
0.021	-4.998	0.042
-0.008	-4.999	0.046
-0.033	-5.000	0.033
-0.046	-5.001	0.007
-0.042	-5.001	-0.022
-0.021	-5.002	-0.042
0.008	-5.001	-0.046
0.045	-5.707	-0.013
0.058	-5.706	0.013
0.053	-5.705	0.041
0.032	-5.704	0.062
0.004	-5.705	0.066
-0.022	-5.706	0.053
-0.035	-5.707	0.027
-0.030	-5.708	-0.002
-0.009	-5.709	-0.022
0.019	-5.708	-0.026
0.067	-6.413	0.025
0.080	-6.410	0.050
0.074	-6.408	0.078
0.053	-6.407	0.098
0.025	-6.407	0.102
-0.000	-6.410	0.088
-0.012	-6.412	0.063
-0.007	-6.415	0.034
0.014	-6.416	0.015
0.042	-6.415	0.011
0.094	-7.114	0.121
0.106	-7.110	0.146
0.101	-7.107	0.174
0.080	-7.106	0.194
0.051	-7.106	0.197
0.027	-7.109	0.183
0.015	-7.112	0.158
0.020	-7.115	0.130
0.041	-7.117	0.110
0.069	-7.116	0.107
0.117	-7.817	0.197
0.129	-7.814	0.223
0.123	-7.811	0.251
0.102	-7.809	0.270
0.074	-7.809	0.273
0.049	-7.810	0.259
0.037	-7.813	0.233
0.043	-7.816	0.205
0.064	-7.818	0.186
0.092	-7.818	0.183
0.104	-8.520	0.277
0.116	-8.517	0.303
0.110	-8.514	0.330
0.088	-8.512	0.349
0.060	-8.511	0.351
0.036	-8.512	0.337
0.025	-8.514	0.311
0.031	-8.517	0.284
0.052	-8.520	0.265
0.080	-8.521	0.263
0.081	-9.224	0.352
0.091	-9.222	0.378
0.085	-9.219	0.405
0.063	-9.216	0.423
0.035	-9.213	0.425
0.011	-9.212	0.410
0.001	-9.213	0.384
0.008	-9.216	0.356
0.029	-9.220	0.339
0.057	-9.223	0.337
-0.028	-9.922	0.409
-0.018	-9.922	0.436
-0.026	-9.919	0.463
-0.048	-9.914	0.480
-0.076	-9.909	0.480
-0.098	-9.906	0.464
-0.108	-9.906	0.438
-0.100	-9.909	0.411
-0.078	-9.914	0.394
-0.051	-9.919	0.393
-0.161	-10.615	0.443
-0.152	-10.616	0.469
-0.159	-10.615	0.496
-0.181	-10.610	0.513
-0.208	-10.605	0.514
-0.231	-10.601	0.499
-0.241	-10.599	0.472
-0.233	-10.601	0.445
-0.212	-10.605	0.428
-0.184	-10.610	0.427
-0.297	-11.307	0.423
-0.287	-11.309	0.448
-0.294	-11.309	0.476
-0.316	-11.306	0.493
-0.343	-11.301	0.495
-0.366	-11.296	0.480
-0.376	-11.293	0.455
-0.369	-11.293	0.427
-0.348	-11.297	0.410
-0.321	-11.302	0.408
-0.422	-12.001	0.391
-0.411	-12.004	0.416
-0.418	-12.004	0.443
-0.438	-12.002	0.462
-0.466	-11.997	0.464
-0.489	-11.992	0.450
-0.500	-11.989	0.424
-0.494	-11.989	0.397
-0.473	-11.991	0.379
-0.445	-11.996	0.376
-0.534	-12.696	0.345
-0.523	-12.699	0.370
-0.529	-12.700	0.397
-0.549	-12.698	0.416
-0.577	-12.695	0.419
-0.601	-12.690	0.406
-0.612	-12.687	0.380
-0.606	-12.686	0.353
-0.586	-12.688	0.334
-0.558	-12.691	0.331
-0.624	-13.394	0.296
-0.612	-13.397	0.321
-0.617	-13.399	0.348
-0.637	-13.398	0.367
-0.665	-13.395	0.371
-0.689	-13.391	0.358
-0.701	-13.388	0.333
-0.696	-13.387	0.306
-0.676	-13.388	0.287
-0.648	-13.390	0.283
-0.691	-14.095	0.239
-0.679	-14.099	0.264
-0.683	-14.101	0.291
-0.703	-14.100	0.311
-0.731	-14.097	0.315
-0.755	-14.093	0.302
-0.767	-14.090	0.277
-0.762	-14.088	0.250
-0.742	-14.088	0.231
-0.715	-14.091	0.227
-0.723	-14.327	0.215
-0.711	-14.332	0.239
-0.716	-14.334	0.267
-0.736	-14.333	0.286
-0.763	-14.330	0.290
-0.787	-14.325	0.277
-0.799	-14.321	0.252
-0.794	-14.319	0.225
-0.774	-14.319	0.206
-0.747	-14.323	0.202
		    </DataArray>
         </Points>
         <Cells>
            <DataArray type="Int32" Name="connectivity" NumberOfComponents="1" format="ascii">
 0 10 1 11 2 12 3 13 4 14 5 15 6 16 7 17 8 18 9 19 0 10
 10 20 11 21 12 22 13 23 14 24 15 25 16 26 17 27 18 28 19 29 10 20
 20 30 21 31 22 32 23 33 24 34 25 35 26 36 27 37 28 38 29 39 20 30
 30 40 31 41 32 42 33 43 34 44 35 45 36 46 37 47 38 48 39 49 30 40
 40 50 41 51 42 52 43 53 44 54 45 55 46 56 47 57 48 58 49 59 40 50
 50 60 51 61 52 62 53 63 54 64 55 65 56 66 57 67 58 68 59 69 50 60
 60 70 61 71 62 72 63 73 64 74 65 75 66 76 67 77 68 78 69 79 60 70
 70 80 71 81 72 82 73 83 74 84 75 85 76 86 77 87 78 88 79 89 70 80
 80 90 81 91 82 92 83 93 84 94 85 95 86 96 87 97 88 98 89 99 80 90
 90 100 91 101 92 102 93 103 94 104 95 105 96 106 97 107 98 108 99 109 90 100
 110 120 111 121 112 122 113 123 114 124 115 125 116 126 117 127 118 128 119 129 110 120
 120 130 121 131 122 132 123 133 124 134 125 135 126 136 127 137 128 138 129 139 120 130
 130 140 131 141 132 142 133 143 134 144 135 145 136 146 137 147 138 148 139 149 130 140
 140 150 141 151 142 152 143 153 144 154 145 155 146 156 147 157 148 158 149 159 140 150
 150 160 151 161 152 162 153 163 154 164 155 165 156 166 157 167 158 168 159 169 150 160
 160 170 161 171 162 172 163 173 164 174 165 175 166 176 167 177 168 178 169 179 160 170
 170 180 171 181 172 182 173 183 174 184 175 185 176 186 177 187 178 188 179 189 170 180
 180 190 181 191 182 192 183 193 184 194 185 195 186 196 187 197 188 198 189 199 180 190
 190 200 191 201 192 202 193 203 194 204 195 205 196 206 197 207 198 208 199 209 190 200
 200 210 201 211 202 212 203 213 204 214 205 215 206 216 207 217 208 218 209 219 200 210
 210 220 211 221 212 222 213 223 214 224 215 225 216 226 217 227 218 228 219 229 210 220
 220 230 221 231 222 232 223 233 224 234 225 235 226 236 227 237 228 238 229 239 220 230
 230 240 231 241 232 242 233 243 234 244 235 245 236 246 237 247 238 248 239 249 230 240
 240 250 241 251 242 252 243 253 244 254 245 255 246 256 247 257 248 258 249 259 240 250

            </DataArray>
            <DataArray type="Int32" Name="offsets" NumberOfComponents="1" format="ascii">
 22 44 66 88 110 132 154 176 198 220 242 264 286 308 330 352 374 396 418 440 462 484 506 528
            </DataArray>
            <DataArray type="UInt8"  Name="types" NumberOfComponents="1" format="ascii">
6 6 6 6 6 6 6 6 6 6 6 6 6 6 6 6 6 6 6 6 6 6 6 6
            </DataArray>
         </Cells>
         <CellData>
           <DataArray type="Float32" Name="combinedRootClassID" NumberOfComponents="1" format="ascii">
 -2.000e+00 -2.000e+00 -2.000e+00 -2.000e+00 -2.000e+00 -2.000e+00 -2.000e+00 -2.000e+00 -2.000e+00 -2.000e+00 -4.000e+00 -4.000e+00 -4.000e+00 -4.000e+00 -4.000e+00 -4.000e+00 -4.000e+00 -4.000e+00 -4.000e+00 -4.000e+00 -4.000e+00 -4.000e+00 -4.000e+00 -4.000e+00
           </DataArray>
           <DataArray type="Float32" Name="nitrate/Cmin" NumberOfComponents="1" format="ascii">
 1.000e-03 1.000e-03 1.000e-03 1.000e-03 1.000e-03 1.000e-03 1.000e-03 1.000e-03 1.000e-03 1.000e-03 1.000e-03 1.000e-03 1.000e-03 1.000e-03 1.000e-03 1.000e-03 1.000e-03 1.000e-03 1.000e-03 1.000e-03 1.000e-03 1.000e-03 1.000e-03 1.000e-03
           </DataArray>
           <DataArray type="Float32" Name="nitrate/Imax" NumberOfComponents="1" format="ascii">
 1.900e+00 1.900e+00 1.900e+00 1.900e+00 1.900e+00 1.900e+00 1.900e+00 1.900e+00 1.900e+00 1.900e+00 1.900e+00 1.900e+00 1.900e+00 1.900e+00 1.900e+00 1.900e+00 1.900e+00 1.900e+00 1.900e+00 1.900e+00 1.900e+00 1.900e+00 1.900e+00 1.900e+00
           </DataArray>
           <DataArray type="Float32" Name="nitrate/Km" NumberOfComponents="1" format="ascii">
 1.610e-02 1.610e-02 1.610e-02 1.610e-02 1.610e-02 1.610e-02 1.610e-02 1.610e-02 1.610e-02 1.610e-02 1.610e-02 1.610e-02 1.610e-02 1.610e-02 1.610e-02 1.610e-02 1.610e-02 1.610e-02 1.610e-02 1.610e-02 1.610e-02 1.610e-02 1.610e-02 1.610e-02
           </DataArray>
           <DataArray type="Float32" Name="nitrate/minimalNutrientConcentration" NumberOfComponents="1" format="ascii">
 6.000e+02 6.000e+02 6.000e+02 6.000e+02 6.000e+02 6.000e+02 6.000e+02 6.000e+02 6.000e+02 6.000e+02 6.000e+02 6.000e+02 6.000e+02 6.000e+02 6.000e+02 6.000e+02 6.000e+02 6.000e+02 6.000e+02 6.000e+02 6.000e+02 6.000e+02 6.000e+02 6.000e+02
           </DataArray>
           <DataArray type="Float32" Name="nitrate/nutrientConcentrationAtTheRootSurface" NumberOfComponents="1" format="ascii">
 3.902e-01 3.341e-01 2.882e-01 2.085e-01 1.736e-01 1.353e-01 8.955e-02 0.000e+00 0.000e+00 0.000e+00 3.902e-01 4.317e-01 4.660e-01 4.819e-01 5.099e-01 5.476e-01 5.479e-01 5.948e-01 6.633e-01 6.940e-01 7.118e-01 7.460e-01 7.823e-01 8.498e-01
           </DataArray>
           <DataArray type="Float32" Name="nitrate/optimalNutrientConcentration" NumberOfComponents="1" format="ascii">
 1.200e+03 1.200e+03 1.200e+03 1.200e+03 1.200e+03 1.200e+03 1.200e+03 1.200e+03 1.200e+03 1.200e+03 1.200e+03 1.200e+03 1.200e+03 1.200e+03 1.200e+03 1.200e+03 1.200e+03 1.200e+03 1.200e+03 1.200e+03 1.200e+03 1.200e+03 1.200e+03 1.200e+03
           </DataArray>
           <DataArray type="Float32" Name="nitrate/rootSegmentMinimalNutrientContent" NumberOfComponents="1" format="ascii">
 5.503e+00 5.022e+00 8.407e+00 4.326e+00 4.316e+00 6.459e+00 6.154e+00 6.281e+00 6.238e+00 1.089e+00 2.768e-01 2.734e-01 2.703e-01 2.674e-01 2.649e-01 2.626e-01 2.606e-01 2.588e-01 2.573e-01 2.561e-01 2.551e-01 2.544e-01 2.539e-01 8.457e-02
           </DataArray>
           <DataArray type="Float32" Name="nitrate/rootSegmentNutrientUptake" NumberOfComponents="1" format="ascii">
 0.000e+00 6.526e-01 5.579e-01 4.060e-01 3.256e-01 2.374e-01 1.066e-01 0.000e+00 0.000e+00 0.000e+00 0.000e+00 7.544e-01 7.153e-01 6.578e-01 6.242e-01 5.927e-01 5.239e-01 4.773e-01 4.288e-01 3.527e-01 2.705e-01 1.880e-01 9.820e-02 1.243e-02
           </DataArray>
           <DataArray type="Float32" Name="nitrate/rootSegmentOptimalNutrientContent" NumberOfComponents="1" format="ascii">
 1.101e+01 1.004e+01 1.681e+01 8.651e+00 8.631e+00 1.292e+01 1.231e+01 1.256e+01 1.248e+01 2.178e+00 5.535e-01 5.467e-01 5.405e-01 5.349e-01 5.298e-01 5.252e-01 5.212e-01 5.176e-01 5.147e-01 5.122e-01 5.102e-01 5.088e-01 5.079e-01 1.691e-01
           </DataArray>
           <DataArray type="Float32" Name="parentRootClassID" NumberOfComponents="1" format="ascii">
 -3.000e+00 -3.000e+00 -3.000e+00 -3.000e+00 -3.000e+00 -3.000e+00 -3.000e+00 -3.000e+00 -3.000e+00 -3.000e+00 -3.000e+00 -3.000e+00 -3.000e+00 -3.000e+00 -3.000e+00 -3.000e+00 -3.000e+00 -3.000e+00 -3.000e+00 -3.000e+00 -3.000e+00 -3.000e+00 -3.000e+00 -3.000e+00
           </DataArray>
           <DataArray type="Float32" Name="plantID" NumberOfComponents="1" format="ascii">
 5.000e+00 5.000e+00 5.000e+00 5.000e+00 5.000e+00 5.000e+00 5.000e+00 5.000e+00 5.000e+00 5.000e+00 5.000e+00 5.000e+00 5.000e+00 5.000e+00 5.000e+00 5.000e+00 5.000e+00 5.000e+00 5.000e+00 5.000e+00 5.000e+00 5.000e+00 5.000e+00 5.000e+00
           </DataArray>
           <DataArray type="Float32" Name="plantTypeID" NumberOfComponents="1" format="ascii">
 0.000e+00 0.000e+00 0.000e+00 0.000e+00 0.000e+00 0.000e+00 0.000e+00 0.000e+00 0.000e+00 0.000e+00 0.000e+00 0.000e+00 0.000e+00 0.000e+00 0.000e+00 0.000e+00 0.000e+00 0.000e+00 0.000e+00 0.000e+00 0.000e+00 0.000e+00 0.000e+00 0.000e+00
           </DataArray>
           <DataArray type="Float32" Name="rootCircumference" NumberOfComponents="1" format="ascii">
 1.279e+00 1.273e+00 1.271e+00 1.267e+00 1.266e+00 1.265e+00 1.263e+00 1.261e+00 1.259e+00 1.257e+00 2.953e-01 2.935e-01 2.918e-01 2.903e-01 2.889e-01 2.877e-01 2.865e-01 2.856e-01 2.848e-01 2.841e-01 2.835e-01 2.831e-01 2.829e-01 2.828e-01
           </DataArray>
           <DataArray type="Float32" Name="rootClassID" NumberOfComponents="1" format="ascii">
 -2.000e+00 -2.000e+00 -2.000e+00 -2.000e+00 -2.000e+00 -2.000e+00 -2.000e+00 -2.000e+00 -2.000e+00 -2.000e+00 -4.000e+00 -4.000e+00 -4.000e+00 -4.000e+00 -4.000e+00 -4.000e+00 -4.000e+00 -4.000e+00 -4.000e+00 -4.000e+00 -4.000e+00 -4.000e+00 -4.000e+00 -4.000e+00
           </DataArray>
           <DataArray type="Float32" Name="rootDiameter" NumberOfComponents="1" format="ascii">
 4.070e-01 4.054e-01 4.045e-01 4.034e-01 4.030e-01 4.025e-01 4.019e-01 4.014e-01 4.009e-01 4.001e-01 9.400e-02 9.342e-02 9.289e-02 9.240e-02 9.196e-02 9.156e-02 9.121e-02 9.090e-02 9.064e-02 9.042e-02 9.025e-02 9.012e-02 9.004e-02 9.000e-02
           </DataArray>
           <DataArray type="Float32" Name="rootHairDensity" NumberOfComponents="1" format="ascii">
 0.000e+00 0.000e+00 0.000e+00 0.000e+00 0.000e+00 0.000e+00 0.000e+00 0.000e+00 0.000e+00 0.000e+00 2.000e+03 2.000e+03 2.000e+03 2.000e+03 2.000e+03 2.000e+03 2.000e+03 2.000e+03 2.000e+03 2.000e+03 2.000e+03 2.000e+03 2.000e+03 2.000e+03
           </DataArray>
           <DataArray type="Float32" Name="rootHairDiameter" NumberOfComponents="1" format="ascii">
 5.000e-04 5.000e-04 5.000e-04 5.000e-04 5.000e-04 5.000e-04 5.000e-04 5.000e-04 5.000e-04 5.000e-04 5.000e-04 5.000e-04 5.000e-04 5.000e-04 5.000e-04 5.000e-04 5.000e-04 5.000e-04 5.000e-04 5.000e-04 5.000e-04 5.000e-04 5.000e-04 5.000e-04
           </DataArray>
           <DataArray type="Float32" Name="rootHairLength" NumberOfComponents="1" format="ascii">
 3.000e-02 3.000e-02 3.000e-02 3.000e-02 3.000e-02 3.000e-02 3.000e-02 2.400e-02 1.200e-02 0.000e+00 3.000e-02 3.000e-02 3.000e-02 3.000e-02 3.000e-02 3.000e-02 3.000e-02 2.700e-02 1.800e-02 9.000e-03 0.000e+00 0.000e+00 0.000e+00 0.000e+00
           </DataArray>
           <DataArray type="Float32" Name="rootHairSurfaceArea" NumberOfComponents="1" format="ascii">
 0.000e+00 0.000e+00 0.000e+00 0.000e+00 0.000e+00 0.000e+00 0.000e+00 0.000e+00 0.000e+00 0.000e+00 9.425e-02 9.425e-02 9.425e-02 9.425e-02 9.425e-02 9.425e-02 9.425e-02 8.482e-02 5.655e-02 2.827e-02 0.000e+00 0.000e+00 0.000e+00 0.000e+00
           </DataArray>
           <DataArray type="Float32" Name="rootLength2Base" NumberOfComponents="1" format="ascii">
 0.000e+00 7.500e-01 1.440e+00 2.600e+00 3.200e+00 3.800e+00 4.700e+00 5.560e+00 6.440e+00 7.316e+00 0.000e+00 7.071e-01 1.414e+00 2.121e+00 2.828e+00 3.535e+00 4.243e+00 4.950e+00 5.657e+00 6.364e+00 7.071e+00 7.778e+00 8.485e+00 9.192e+00
           </DataArray>
           <DataArray type="Float32" Name="rootPotentialSecondaryGrowth" NumberOfComponents="1" format="ascii">
 4.070e-01 4.054e-01 4.045e-01 4.034e-01 4.030e-01 4.025e-01 4.019e-01 4.014e-01 4.009e-01 4.001e-01 9.400e-02 9.342e-02 9.289e-02 9.240e-02 9.196e-02 9.156e-02 9.121e-02 9.090e-02 9.064e-02 9.042e-02 9.025e-02 9.012e-02 9.004e-02 9.000e-02
           </DataArray>
           <DataArray type="Float32" Name="rootSegmentAge" NumberOfComponents="1" format="ascii">
 4.000e+00 3.500e+00 3.200e+00 2.800e+00 2.600e+00 2.400e+00 2.100e+00 1.800e+00 1.400e+00 5.000e-01 4.000e+00 3.700e+00 3.400e+00 3.100e+00 2.800e+00 2.500e+00 2.200e+00 1.900e+00 1.600e+00 1.300e+00 1.000e+00 7.000e-01 4.000e-01 1.000e-01
           </DataArray>
           <DataArray type="Float32" Name="rootSegmentCarbonCostOfExudates" NumberOfComponents="1" format="ascii">
 0.000e+00 0.000e+00 0.000e+00 0.000e+00 0.000e+00 0.000e+00 0.000e+00 0.000e+00 0.000e+00 0.000e+00 4.469e-05 4.143e-05 3.814e-05 3.455e-05 3.106e-05 2.752e-05 2.422e-05 2.087e-05 1.770e-05 1.425e-05 1.081e-05 7.083e-06 3.355e-06 2.239e-07
           </DataArray>
           <DataArray type="Float32" Name="rootSegmentDryWeight" NumberOfComponents="1" format="ascii">
 9.172e-03 8.370e-03 1.401e-02 7.210e-03 7.193e-03 1.077e-02 1.026e-02 1.047e-02 1.040e-02 1.815e-03 4.613e-04 4.556e-04 4.504e-04 4.457e-04 4.415e-04 4.377e-04 4.343e-04 4.314e-04 4.289e-04 4.268e-04 4.252e-04 4.240e-04 4.232e-04 1.410e-04
           </DataArray>
           <DataArray type="Float32" Name="rootSegmentLength" NumberOfComponents="1" format="ascii">
 7.500e-01 6.900e-01 1.160e+00 6.000e-01 6.000e-01 9.000e-01 8.600e-01 8.800e-01 8.764e-01 1.536e-01 7.071e-01 7.071e-01 7.071e-01 7.071e-01 7.071e-01 7.071e-01 7.071e-01 7.071e-01 7.071e-01 7.071e-01 7.071e-01 7.071e-01 7.071e-01 2.357e-01
           </DataArray>
           <DataArray type="Float32" Name="rootSegmentLengthDuration" NumberOfComponents="1" format="ascii">
 2.795e+00 2.311e+00 3.475e+00 1.620e+00 1.500e+00 2.030e+00 1.685e+00 1.419e+00 9.335e-01 4.388e-02 2.726e+00 2.514e+00 2.302e+00 2.090e+00 1.878e+00 1.666e+00 1.453e+00 1.241e+00 1.029e+00 8.171e-01 6.050e-01 3.928e-01 1.807e-01 2.357e-02
           </DataArray>
           <DataArray type="Float32" Name="rootSegmentRespiration" NumberOfComponents="1" format="ascii">
 3.669e-04 3.348e-04 5.604e-04 2.884e-04 2.877e-04 4.306e-04 4.103e-04 4.711e-04 5.718e-04 1.407e-04 1.845e-05 1.822e-05 1.802e-05 1.783e-05 1.766e-05 1.751e-05 1.737e-05 1.833e-05 2.144e-05 2.454e-05 2.764e-05 3.074e-05 3.386e-05 1.233e-05
           </DataArray>
           <DataArray type="Float32" Name="rootSegmentSecondaryPotentialCarbonSinkForGrowth" NumberOfComponents="1" format="ascii">
 1.239e-04 9.071e-05 1.223e-04 5.111e-05 4.379e-05 5.323e-05 3.820e-05 2.641e-05 1.039e-05 1.618e-07 1.603e-05 1.359e-05 1.136e-05 9.334e-06 7.515e-06 5.899e-06 4.482e-06 3.262e-06 2.239e-06 1.410e-06 7.729e-07 3.280e-07 7.402e-08 1.175e-09
           </DataArray>
           <DataArray type="Float32" Name="rootSegmentSurfaceArea" NumberOfComponents="1" format="ascii">
 9.590e-01 8.787e-01 1.474e+00 7.604e-01 7.596e-01 1.138e+00 1.086e+00 1.110e+00 1.104e+00 1.930e-01 2.088e-01 2.075e-01 2.063e-01 2.053e-01 2.043e-01 2.034e-01 2.026e-01 2.019e-01 2.013e-01 2.009e-01 2.005e-01 2.002e-01 2.000e-01 6.664e-02
           </DataArray>
           <DataArray type="Float32" Name="rootSegmentVolume" NumberOfComponents="1" format="ascii">
 9.758e-02 8.905e-02 1.491e-01 7.670e-02 7.652e-02 1.145e-01 1.091e-01 1.114e-01 1.106e-01 1.931e-02 4.907e-03 4.847e-03 4.792e-03 4.742e-03 4.696e-03 4.656e-03 4.620e-03 4.589e-03 4.563e-03 4.541e-03 4.523e-03 4.511e-03 4.502e-03 1.500e-03
           </DataArray>
           <DataArray type="Float32" Name="rootSegmentWaterUptake" NumberOfComponents="1" format="ascii">
 2.837e-02 2.610e-02 4.388e-02 2.269e-02 2.269e-02 3.404e-02 3.251e-02 0.000e+00 0.000e+00 0.000e+00 2.675e-02 2.675e-02 2.675e-02 2.675e-02 2.675e-02 2.675e-02 2.675e-02 2.661e-02 2.592e-02 2.400e-02 2.064e-02 1.533e-02 7.959e-03 5.638e-04
           </DataArray>
           <DataArray type="Float32" Name="spatialRootDensity" NumberOfComponents="1" format="ascii">
 3.376e-01 1.688e-01 0.000e+00 0.000e+00 0.000e+00 0.000e+00 0.000e+00 0.000e+00 0.000e+00 0.000e+00 3.438e-01 1.790e-01 0.000e+00 0.000e+00 0.000e+00 0.000e+00 0.000e+00 0.000e+00 0.000e+00 0.000e+00 0.000e+00 0.000e+00 0.000e+00 0.000e+00
           </DataArray>
           <DataArray type="Float32" Name="volumetricWaterContentAtTheRootSurface" NumberOfComponents="1" format="ascii">
 1.939e-01 1.939e-01 1.939e-01 1.939e-01 1.939e-01 1.939e-01 1.939e-01 0.000e+00 0.000e+00 0.000e+00 1.939e-01 1.939e-01 1.939e-01 1.939e-01 1.939e-01 1.939e-01 1.939e-01 1.939e-01 1.939e-01 1.939e-01 1.938e-01 1.938e-01 1.938e-01 1.938e-01
           </DataArray>
         </CellData>
      </Piece>
   </UnstructuredGrid>
</VTKFile>
