<?xml version="1.0"?>
<VTKFile type="UnstructuredGrid" version="0.1" byte_order="LittleEndian">
   <UnstructuredGrid>
      <Piece NumberOfPoints="32490" NumberOfCells="2296">
         <Points>
            <DataArray type="Float32" Name="Position" NumberOfComponents="3" format="ascii">
0.068	-5.032	-0.142
0.072	-5.030	-0.134
0.070	-5.028	-0.125
0.063	-5.027	-0.119
0.053	-5.027	-0.119
0.045	-5.028	-0.124
0.042	-5.030	-0.132
0.044	-5.032	-0.141
0.051	-5.034	-0.146
0.061	-5.034	-0.147
0.079	-5.886	0.066
0.082	-5.884	0.074
0.080	-5.881	0.083
0.073	-5.880	0.088
0.063	-5.879	0.089
0.056	-5.880	0.084
0.052	-5.883	0.075
0.055	-5.885	0.067
0.062	-5.887	0.061
0.071	-5.887	0.061
0.023	-6.708	0.325
0.026	-6.705	0.334
0.023	-6.702	0.342
0.016	-6.700	0.347
0.007	-6.699	0.347
-0.001	-6.701	0.342
-0.004	-6.703	0.334
-0.001	-6.707	0.325
0.006	-6.709	0.320
0.015	-6.709	0.320
-0.007	-7.247	0.545
-0.004	-7.244	0.553
-0.007	-7.241	0.561
-0.014	-7.238	0.566
-0.024	-7.238	0.566
-0.031	-7.240	0.561
-0.034	-7.243	0.553
-0.032	-7.246	0.545
-0.024	-7.249	0.540
-0.015	-7.249	0.540
0.108	-5.081	-0.272
0.108	-5.076	-0.264
0.108	-5.076	-0.255
0.106	-5.082	-0.248
0.106	-5.091	-0.246
0.105	-5.100	-0.250
0.105	-5.105	-0.257
0.106	-5.104	-0.267
0.107	-5.098	-0.274
0.108	-5.089	-0.276
0.946	-5.157	-0.210
0.946	-5.152	-0.202
0.945	-5.152	-0.193
0.944	-5.158	-0.186
0.943	-5.167	-0.184
0.942	-5.176	-0.187
0.942	-5.181	-0.195
0.943	-5.180	-0.204
0.944	-5.174	-0.211
0.946	-5.165	-0.214
1.781	-5.274	-0.135
1.782	-5.270	-0.127
1.781	-5.270	-0.118
1.780	-5.276	-0.111
1.779	-5.285	-0.109
1.778	-5.294	-0.112
1.778	-5.298	-0.120
1.778	-5.298	-0.129
1.779	-5.292	-0.136
1.780	-5.283	-0.138
2.623	-5.365	-0.145
2.622	-5.360	-0.138
2.621	-5.360	-0.128
2.620	-5.366	-0.121
2.619	-5.375	-0.119
2.619	-5.384	-0.123
2.619	-5.389	-0.130
2.620	-5.388	-0.140
2.621	-5.382	-0.147
2.622	-5.373	-0.149
3.097	-5.398	-0.048
3.096	-5.393	-0.041
3.094	-5.393	-0.031
3.092	-5.398	-0.024
3.091	-5.407	-0.021
3.091	-5.416	-0.024
3.092	-5.421	-0.032
3.094	-5.421	-0.041
3.096	-5.416	-0.048
3.097	-5.407	-0.051
0.446	-5.990	-1.184
0.454	-5.988	-1.179
0.461	-5.991	-1.174
0.465	-5.998	-1.171
0.465	-6.007	-1.171
0.460	-6.015	-1.174
0.453	-6.018	-1.179
0.446	-6.015	-1.184
0.441	-6.007	-1.187
0.442	-5.998	-1.187
0.926	-6.009	-1.879
0.934	-6.007	-1.874
0.941	-6.010	-1.869
0.945	-6.017	-1.866
0.945	-6.026	-1.866
0.940	-6.034	-1.869
0.933	-6.037	-1.874
0.926	-6.034	-1.879
0.921	-6.026	-1.882
0.922	-6.017	-1.882
1.445	-6.064	-2.587
1.452	-6.061	-2.582
1.460	-6.064	-2.577
1.463	-6.072	-2.573
1.462	-6.081	-2.572
1.457	-6.088	-2.574
1.449	-6.091	-2.579
1.442	-6.088	-2.584
1.438	-6.080	-2.588
1.439	-6.071	-2.589
1.865	-6.288	-3.324
1.873	-6.286	-3.320
1.880	-6.289	-3.315
1.884	-6.296	-3.311
1.883	-6.305	-3.310
1.877	-6.313	-3.312
1.869	-6.315	-3.316
1.862	-6.312	-3.320
1.858	-6.304	-3.324
1.859	-6.295	-3.325
1.999	-6.321	-3.581
2.007	-6.319	-3.577
2.014	-6.322	-3.573
2.019	-6.329	-3.570
2.018	-6.338	-3.569
2.013	-6.346	-3.571
2.005	-6.349	-3.574
1.997	-6.346	-3.579
1.993	-6.338	-3.582
1.993	-6.329	-3.583
1.781	-18.875	-4.367
1.784	-18.867	-4.364
1.781	-18.858	-4.361
1.774	-18.853	-4.359
1.764	-18.854	-4.358
1.757	-18.859	-4.359
1.754	-18.867	-4.362
1.757	-18.875	-4.365
1.764	-18.880	-4.367
1.773	-18.880	-4.368
1.807	-18.987	-4.050
1.810	-18.979	-4.047
1.807	-18.970	-4.044
1.800	-18.965	-4.042
1.790	-18.965	-4.041
1.783	-18.971	-4.042
1.780	-18.979	-4.045
1.783	-18.987	-4.048
1.790	-18.992	-4.050
1.799	-18.992	-4.051
1.758	-19.005	-4.377
1.766	-19.002	-4.379
1.775	-19.004	-4.380
1.782	-19.011	-4.379
1.783	-19.020	-4.377
1.778	-19.027	-4.375
1.770	-19.031	-4.372
1.761	-19.029	-4.371
1.755	-19.022	-4.372
1.754	-19.013	-4.374
1.700	-19.085	-4.703
1.708	-19.082	-4.705
1.717	-19.084	-4.706
1.723	-19.091	-4.706
1.725	-19.100	-4.704
1.720	-19.107	-4.701
1.712	-19.111	-4.699
1.703	-19.109	-4.698
1.697	-19.102	-4.698
1.696	-19.093	-4.700
1.780	-19.174	-4.392
1.783	-19.167	-4.387
1.780	-19.159	-4.383
1.773	-19.153	-4.381
1.763	-19.153	-4.382
1.756	-19.157	-4.385
1.753	-19.165	-4.389
1.755	-19.173	-4.393
1.763	-19.178	-4.395
1.772	-19.179	-4.394
1.758	-19.310	-4.127
1.761	-19.303	-4.123
1.758	-19.295	-4.119
1.751	-19.289	-4.117
1.742	-19.289	-4.118
1.734	-19.293	-4.121
1.731	-19.301	-4.125
1.734	-19.309	-4.129
1.741	-19.314	-4.131
1.750	-19.315	-4.130
1.769	-19.306	-4.415
1.773	-19.302	-4.407
1.774	-19.303	-4.398
1.773	-19.309	-4.391
1.769	-19.317	-4.389
1.764	-19.324	-4.392
1.760	-19.328	-4.399
1.758	-19.327	-4.408
1.760	-19.321	-4.415
1.764	-19.313	-4.418
1.971	-19.421	-4.468
1.975	-19.417	-4.461
1.976	-19.419	-4.452
1.975	-19.424	-4.445
1.971	-19.432	-4.442
1.966	-19.440	-4.445
1.962	-19.443	-4.453
1.960	-19.442	-4.462
1.962	-19.436	-4.469
1.966	-19.428	-4.471
1.766	-19.454	-4.430
1.769	-19.450	-4.422
1.770	-19.452	-4.413
1.770	-19.458	-4.406
1.767	-19.467	-4.404
1.764	-19.474	-4.408
1.761	-19.478	-4.416
1.759	-19.477	-4.425
1.760	-19.471	-4.432
1.762	-19.462	-4.434
2.033	-19.556	-4.472
2.041	-19.556	-4.468
2.050	-19.556	-4.470
2.057	-19.556	-4.476
2.058	-19.556	-4.485
2.054	-19.556	-4.494
2.046	-19.556	-4.498
2.036	-19.556	-4.496
2.030	-19.556	-4.490
2.028	-19.556	-4.481
1.770	-19.626	-4.428
1.770	-19.619	-4.422
1.768	-19.610	-4.420
1.764	-19.603	-4.424
1.760	-19.599	-4.431
1.756	-19.601	-4.439
1.756	-19.608	-4.446
1.758	-19.617	-4.447
1.762	-19.625	-4.444
1.766	-19.628	-4.437
1.507	-19.682	-4.319
1.515	-19.678	-4.319
1.524	-19.680	-4.319
1.531	-19.686	-4.319
1.532	-19.695	-4.319
1.528	-19.703	-4.319
1.520	-19.708	-4.319
1.510	-19.706	-4.319
1.504	-19.700	-4.319
1.502	-19.691	-4.319
1.766	-19.775	-4.438
1.767	-19.769	-4.431
1.764	-19.760	-4.429
1.760	-19.752	-4.432
1.755	-19.749	-4.439
1.752	-19.751	-4.448
1.751	-19.758	-4.454
1.753	-19.766	-4.456
1.757	-19.774	-4.453
1.762	-19.777	-4.446
1.614	-19.832	-4.360
1.615	-19.825	-4.353
1.613	-19.816	-4.351
1.608	-19.809	-4.355
1.603	-19.805	-4.362
1.600	-19.807	-4.370
1.599	-19.814	-4.376
1.601	-19.823	-4.378
1.606	-19.830	-4.375
1.611	-19.834	-4.368
1.767	-19.918	-4.459
1.768	-19.909	-4.457
1.764	-19.901	-4.453
1.756	-19.898	-4.448
1.748	-19.901	-4.445
1.742	-19.908	-4.444
1.741	-19.917	-4.446
1.745	-19.924	-4.450
1.752	-19.927	-4.455
1.761	-19.925	-4.458
1.846	-19.963	-4.298
1.847	-19.954	-4.296
1.843	-19.947	-4.292
1.836	-19.944	-4.288
1.828	-19.947	-4.284
1.822	-19.954	-4.283
1.820	-19.963	-4.285
1.824	-19.970	-4.289
1.832	-19.973	-4.294
1.840	-19.970	-4.297
1.743	-20.051	-4.463
1.751	-20.048	-4.463
1.760	-20.050	-4.462
1.766	-20.057	-4.461
1.767	-20.066	-4.460
1.762	-20.074	-4.459
1.753	-20.077	-4.459
1.744	-20.075	-4.460
1.739	-20.068	-4.461
1.738	-20.059	-4.462
1.751	-20.074	-4.642
1.759	-20.070	-4.642
1.768	-20.073	-4.642
1.774	-20.080	-4.640
1.775	-20.089	-4.639
1.770	-20.097	-4.638
1.761	-20.100	-4.638
1.752	-20.098	-4.639
1.746	-20.091	-4.640
1.746	-20.082	-4.641
1.757	-20.204	-4.483
1.757	-20.198	-4.475
1.755	-20.198	-4.466
1.753	-20.203	-4.459
1.751	-20.212	-4.456
1.750	-20.221	-4.459
1.750	-20.226	-4.467
1.751	-20.226	-4.476
1.753	-20.221	-4.483
1.755	-20.212	-4.486
1.868	-20.225	-4.468
1.868	-20.220	-4.460
1.867	-20.220	-4.451
1.865	-20.225	-4.444
1.863	-20.234	-4.441
1.862	-20.242	-4.444
1.862	-20.248	-4.452
1.863	-20.248	-4.461
1.865	-20.243	-4.468
1.867	-20.234	-4.471
0.499	-6.131	-1.265
0.502	-6.124	-1.260
0.499	-6.116	-1.256
0.492	-6.110	-1.255
0.484	-6.108	-1.258
0.477	-6.111	-1.263
0.474	-6.118	-1.269
0.476	-6.126	-1.273
0.483	-6.132	-1.273
0.492	-6.134	-1.271
0.183	-6.555	-0.595
0.186	-6.547	-0.590
0.184	-6.539	-0.587
0.178	-6.532	-0.588
0.170	-6.529	-0.592
0.163	-6.532	-0.598
0.160	-6.539	-0.603
0.162	-6.548	-0.605
0.168	-6.555	-0.604
0.176	-6.557	-0.600
-0.344	-6.684	0.068
-0.341	-6.677	0.073
-0.342	-6.668	0.074
-0.347	-6.660	0.071
-0.353	-6.657	0.065
-0.359	-6.660	0.059
-0.362	-6.667	0.054
-0.361	-6.676	0.052
-0.356	-6.684	0.055
-0.350	-6.687	0.061
-0.855	-6.838	0.475
-0.853	-6.831	0.481
-0.855	-6.822	0.482
-0.859	-6.814	0.479
-0.865	-6.811	0.473
-0.870	-6.813	0.466
-0.873	-6.820	0.460
-0.871	-6.829	0.459
-0.867	-6.837	0.462
-0.861	-6.840	0.468
1.758	-20.354	-4.493
1.758	-20.348	-4.486
1.756	-20.348	-4.476
1.754	-20.353	-4.469
1.752	-20.362	-4.466
1.750	-20.370	-4.469
1.750	-20.376	-4.477
1.752	-20.376	-4.486
1.754	-20.371	-4.493
1.756	-20.362	-4.496
1.871	-20.378	-4.476
1.871	-20.373	-4.469
1.869	-20.372	-4.459
1.867	-20.377	-4.452
1.865	-20.386	-4.449
1.863	-20.395	-4.452
1.863	-20.400	-4.460
1.865	-20.400	-4.469
1.867	-20.395	-4.476
1.869	-20.387	-4.479
1.745	-20.500	-4.497
1.754	-20.497	-4.497
1.763	-20.499	-4.497
1.768	-20.506	-4.495
1.769	-20.515	-4.494
1.763	-20.523	-4.492
1.755	-20.526	-4.492
1.746	-20.524	-4.492
1.740	-20.516	-4.494
1.740	-20.507	-4.495
1.745	-20.521	-4.609
1.754	-20.518	-4.609
1.763	-20.521	-4.609
1.769	-20.528	-4.607
1.769	-20.537	-4.605
1.764	-20.544	-4.604
1.755	-20.548	-4.603
1.746	-20.545	-4.604
1.741	-20.538	-4.605
1.740	-20.529	-4.607
1.744	-20.649	-4.510
1.753	-20.646	-4.511
1.762	-20.648	-4.511
1.768	-20.655	-4.510
1.769	-20.664	-4.509
1.764	-20.672	-4.508
1.756	-20.675	-4.507
1.747	-20.673	-4.507
1.740	-20.666	-4.508
1.739	-20.657	-4.509
1.762	-20.672	-4.604
1.767	-20.672	-4.596
1.765	-20.672	-4.587
1.759	-20.672	-4.580
1.749	-20.672	-4.579
1.741	-20.672	-4.583
1.737	-20.672	-4.591
1.738	-20.672	-4.601
1.745	-20.672	-4.607
1.754	-20.672	-4.609
1.748	-20.815	-4.511
1.745	-20.806	-4.512
1.746	-20.799	-4.517
1.751	-20.796	-4.524
1.756	-20.798	-4.531
1.762	-20.805	-4.535
1.764	-20.813	-4.534
1.763	-20.821	-4.529
1.759	-20.824	-4.521
1.753	-20.822	-4.514
1.692	-20.837	-4.552
1.689	-20.828	-4.553
1.690	-20.821	-4.558
1.694	-20.817	-4.566
1.700	-20.819	-4.572
1.705	-20.826	-4.576
1.708	-20.835	-4.575
1.707	-20.843	-4.570
1.703	-20.846	-4.562
1.697	-20.844	-4.555
1.768	-20.954	-4.547
1.766	-20.947	-4.542
1.763	-20.944	-4.534
1.758	-20.947	-4.526
1.755	-20.955	-4.522
1.753	-20.964	-4.523
1.755	-20.971	-4.529
1.759	-20.974	-4.537
1.763	-20.971	-4.544
1.767	-20.964	-4.548
1.795	-20.959	-4.533
[...]
         <CellData>
           <DataArray type="Float32" Name="combinedRootClassID" NumberOfComponents="1" format="ascii">
 -1.300e+01 -1.300e+01 -1.300e+01 -1.300e+01 -1.300e+01 -1.300e+01 -1.300e+01 -1.300e+01 -1.300e+01 -1.300e+01 -1.300e+01 -1.300e+01 -1.300e+01 -1.300e+01 -1.300e+01 -1.300e+01 -1.300e+01 -1.300e+01 -1.300e+01 -1.300e+01 -1.300e+01 -1.300e+01 -1.300e+01 -1.300e+01 -1.300e+01 -1.300e+01 -1.300e+01 -1.300e+01 -1.300e+01 -1.300e+01 -1.300e+01 -1.300e+01 -1.300e+01 -1.300e+01 -1.300e+01 -1.300e+01 -1.300e+01 -1.300e+01 -1.300e+01 -1.300e+01 -1.300e+01 -1.300e+01 -1.300e+01 -1.300e+01 -1.300e+01 -1.300e+01 -1.300e+01 -1.300e+01 -1.300e+01 -1.300e+01 -1.300e+01 -1.300e+01 -1.300e+01 -1.300e+01 -1.300e+01 -1.300e+01 -1.300e+01 -1.300e+01 -1.300e+01 -1.300e+01 -1.300e+01 -1.300e+01 -1.300e+01 -1.300e+01 -1.300e+01 -1.300e+01 -1.300e+01 -1.300e+01 -1.300e+01 -1.300e+01 -1.300e+01 -1.300e+01 -1.300e+01 -1.300e+01 -1.300e+01 -1.300e+01 -1.300e+01 -1.300e+01 -1.300e+01 -1.300e+01 -1.300e+01 -1.300e+01 -1.300e+01 -1.300e+01 -1.300e+01 -1.300e+01 -1.300e+01 -1.300e+01 -1.300e+01 -1.300e+01 -1.300e+01 -1.300e+01 -1.300e+01 -1.300e+01 -1.300e+01 -1.300e+01 -1.300e+01 -1.300e+01 -1.300e+01 -1.300e+01 -1.300e+01 -1.300e+01 -1.300e+01 -1.300e+01 -1.300e+01 -1.300e+01 -1.300e+01 -1.300e+01 -1.300e+01 -1.300e+01 -1.300e+01 -1.300e+01 -1.300e+01 -1.300e+01 -1.300e+01 -1.300e+01 -1.300e+01 -1.300e+01 -1.300e+01 -1.300e+01 -1.300e+01 -1.300e+01 -1.300e+01 -1.300e+01 -1.300e+01 -1.300e+01 -1.300e+01 -1.300e+01 -1.300e+01 -1.300e+01 -1.300e+01 -1.300e+01 -1.300e+01 -1.300e+01 -1.300e+01 -1.300e+01 -1.300e+01 -1.300e+01 -1.300e+01 -1.300e+01 -1.300e+01 -1.300e+01 -1.300e+01 -1.300e+01 -1.300e+01 -1.300e+01 -1.300e+01 -1.300e+01 -1.300e+01 -1.300e+01 -1.300e+01 -1.300e+01 -1.300e+01 -1.300e+01 -1.300e+01 -1.300e+01 -1.300e+01 -1.300e+01 -1.300e+01 -1.300e+01 -1.300e+01 -1.300e+01 -1.300e+01 -1.300e+01 -1.300e+01 -1.300e+01 -1.300e+01 -1.300e+01 -1.300e+01 -1.300e+01 -1.300e+01 -1.300e+01 -1.300e+01 -1.300e+01 -1.300e+01 -1.300e+01 -1.300e+01 -1.300e+01 -1.300e+01 -1.300e+01 -1.300e+01 -1.300e+01 -1.300e+01 -1.300e+01 -1.300e+01 -1.300e+01 -1.300e+01 -1.300e+01 -1.300e+01 -1.300e+01 -1.300e+01 -1.300e+01 -1.300e+01 -1.300e+01 -1.300e+01 -1.300e+01 -1.300e+01 -1.300e+01 -1.300e+01 -1.300e+01 -1.300e+01 -1.300e+01 -1.300e+01 -1.300e+01 -1.300e+01 -1.300e+01 -1.300e+01 -1.300e+01 -1.300e+01 -1.300e+01 -1.300e+01 -1.300e+01 -1.300e+01 -1.300e+01 -1.300e+01 -1.300e+01 -1.300e+01 -1.300e+01 -1.300e+01 -1.300e+01 -1.300e+01 -1.300e+01 -1.300e+01 -1.300e+01 -1.300e+01 -1.300e+01 -1.300e+01 -1.300e+01 -1.300e+01 -1.300e+01 -1.300e+01 -1.300e+01 -1.300e+01 -1.300e+01 -1.300e+01 -1.300e+01 -1.300e+01 -1.300e+01 -1.300e+01 -1.300e+01 -1.300e+01 -5.000e+00 -5.000e+00 -5.000e+00 -5.000e+00 -5.000e+00 -5.000e+00 -5.000e+00 -5.000e+00 -5.000e+00 -5.000e+00 -5.000e+00 -5.000e+00 -5.000e+00 -5.000e+00 -5.000e+00 -5.000e+00 -5.000e+00 -5.000e+00 -5.000e+00 -5.000e+00 -5.000e+00 -5.000e+00 -5.000e+00 -5.000e+00 -5.000e+00 -5.000e+00 -5.000e+00 -5.000e+00 -5.000e+00 -5.000e+00 -5.000e+00 -5.000e+00 -5.000e+00 -1.300e+01 -1.300e+01 -1.300e+01 -1.300e+01 -1.300e+01 -1.300e+01 -1.300e+01 -1.300e+01 -1.300e+01 -1.300e+01 -1.300e+01 -1.300e+01 -1.300e+01 -1.300e+01 -1.300e+01 -1.300e+01 -1.300e+01 -1.300e+01 -1.300e+01 -1.300e+01 -1.300e+01 -1.300e+01 -1.300e+01 -1.300e+01 -1.300e+01 -1.300e+01 -1.300e+01 -1.300e+01 -1.300e+01 -1.300e+01 -1.300e+01 -1.300e+01 -1.300e+01 -1.300e+01 -1.300e+01 -1.300e+01 -1.300e+01 -1.300e+01 -1.300e+01 -1.300e+01 -1.300e+01 -1.300e+01 -1.300e+01 -1.300e+01 -1.300e+01 -1.300e+01 -1.300e+01 -1.300e+01 -1.300e+01 -1.300e+01 -1.300e+01 -1.300e+01 -1.300e+01 -1.300e+01 -1.300e+01 -1.300e+01 -1.300e+01 -1.300e+01 -1.300e+01 -1.300e+01 -1.300e+01 -1.300e+01 -1.300e+01 -1.300e+01 -1.300e+01 -1.300e+01 -1.300e+01 -1.300e+01 -1.300e+01 -1.300e+01 -1.300e+01 -1.300e+01 -1.300e+01 -1.300e+01 -1.300e+01 -1.300e+01 -1.300e+01 -1.300e+01 -1.300e+01 -1.300e+01 -1.300e+01 -1.300e+01 -1.300e+01 -1.300e+01 -1.300e+01 -1.300e+01 -1.300e+01 -1.300e+01 -1.300e+01 -1.300e+01 -1.300e+01 -1.300e+01 -1.300e+01 -1.300e+01 -1.300e+01 -1.300e+01 -1.300e+01 -1.300e+01 -1.300e+01 -1.300e+01 -1.300e+01 -1.300e+01 -1.300e+01 -1.300e+01 -1.300e+01 -1.300e+01 -1.300e+01 -1.300e+01 -1.300e+01 -1.300e+01 -1.300e+01 -1.300e+01 -1.300e+01 -1.300e+01 -1.300e+01 -1.300e+01 -1.300e+01 -1.300e+01 -1.300e+01 -1.300e+01 -1.300e+01 -1.300e+01 -1.300e+01 -1.300e+01 -1.300e+01 -1.300e+01 -1.300e+01 -1.300e+01 -1.300e+01 -1.300e+01 -1.300e+01 -1.300e+01 -1.300e+01 -1.300e+01 -1.300e+01 -1.300e+01 -1.300e+01 -1.300e+01 -1.300e+01 -1.300e+01 -1.300e+01 -1.300e+01 -1.300e+01 -1.300e+01 -1.300e+01 -1.300e+01 -1.300e+01 -1.300e+01 -1.300e+01 -1.300e+01 -1.300e+01 -1.300e+01 -1.300e+01 -1.300e+01 -1.300e+01 -1.300e+01 -1.300e+01 -1.300e+01 -1.300e+01 -1.300e+01 -1.300e+01 -1.300e+01 -1.300e+01 -1.300e+01 -1.300e+01 -1.300e+01 -1.300e+01 -1.300e+01 -1.300e+01 -1.300e+01 -1.300e+01 -1.300e+01 -1.300e+01 -1.300e+01 -1.300e+01 -1.300e+01 -1.300e+01 -1.300e+01 -1.300e+01 -1.300e+01 -1.300e+01 -1.300e+01 -1.300e+01 -1.300e+01 -1.300e+01 -1.300e+01 -1.300e+01 -1.300e+01 -1.300e+01 -1.300e+01 -1.300e+01 -1.300e+01 -1.300e+01 -1.300e+01 -1.300e+01 -1.300e+01 -1.300e+01 -1.300e+01 -1.300e+01 -1.300e+01 -1.300e+01 -1.300e+01 -1.300e+01 -1.300e+01 -1.300e+01 -1.300e+01 -1.300e+01 -1.300e+01 -1.300e+01 -1.300e+01 -1.300e+01 -1.300e+01 -1.300e+01 -1.300e+01 -1.300e+01 -1.300e+01 -1.300e+01 -1.300e+01 -1.300e+01 -1.300e+01 -1.300e+01 -1.300e+01 -1.300e+01 -1.300e+01 -1.300e+01 -1.300e+01 -1.300e+01 -1.300e+01 -1.300e+01 -1.300e+01 -1.300e+01 -1.300e+01 -5.000e+00 -5.000e+00 -5.000e+00 -5.000e+00 -5.000e+00 -5.000e+00 -5.000e+00 -5.000e+00 -5.000e+00 -5.000e+00 -5.000e+00 -5.000e+00 -5.000e+00 -5.000e+00 -5.000e+00 -5.000e+00 -5.000e+00 -5.000e+00 -5.000e+00 -5.000e+00 -5.000e+00 -5.000e+00 -5.000e+00 -5.000e+00 -5.000e+00 -5.000e+00 -5.000e+00 -5.000e+00 -5.000e+00 -5.000e+00 -5.000e+00 -5.000e+00 -5.000e+00 -1.300e+01 -1.300e+01 -1.300e+01 -1.300e+01 -1.300e+01 -1.300e+01 -1.300e+01 -1.300e+01 -1.300e+01 -1.300e+01 -1.300e+01 -1.300e+01 -1.300e+01 -1.300e+01 -1.300e+01 -1.300e+01 -1.300e+01 -1.300e+01 -1.300e+01 -1.300e+01 -1.300e+01 -1.300e+01 -1.300e+01 -1.300e+01 -1.300e+01 -1.300e+01 -1.300e+01 -1.300e+01 -1.300e+01 -1.300e+01 -1.300e+01 -1.300e+01 -1.300e+01 -1.300e+01 -1.300e+01 -1.300e+01 -1.300e+01 -1.300e+01 -1.300e+01 -1.300e+01 -1.300e+01 -1.300e+01 -1.300e+01 -1.300e+01 -1.300e+01 -1.300e+01 -1.300e+01 -1.300e+01 -1.300e+01 -1.300e+01 -1.300e+01 -1.300e+01 -1.300e+01 -1.300e+01 -1.300e+01 -1.300e+01 -1.300e+01 -1.300e+01 -1.300e+01 -1.300e+01 -1.300e+01 -1.300e+01 -1.300e+01 -1.300e+01 -1.300e+01 -1.300e+01 -1.300e+01 -1.300e+01 -1.300e+01 -1.300e+01 -1.300e+01 -1.300e+01 -1.300e+01 -1.300e+01 -1.300e+01 -1.300e+01 -1.300e+01 -1.300e+01 -1.300e+01 -1.300e+01 -1.300e+01 -1.300e+01 -1.300e+01 -1.300e+01 -1.300e+01 -1.300e+01 -1.300e+01 -1.300e+01 -1.300e+01 -1.300e+01 -1.300e+01 -1.300e+01 -1.300e+01 -1.300e+01 -1.300e+01 -1.300e+01 -1.300e+01 -1.300e+01 -1.300e+01 -1.300e+01 -1.300e+01 -1.300e+01 -1.300e+01 -1.300e+01 -1.300e+01 -1.300e+01 -1.300e+01 -1.300e+01 -1.300e+01 -1.300e+01 -1.300e+01 -1.300e+01 -1.300e+01 -1.300e+01 -1.300e+01 -1.300e+01 -1.300e+01 -1.300e+01 -1.300e+01 -1.300e+01 -1.300e+01 -1.300e+01 -1.300e+01 -1.300e+01 -1.300e+01 -1.300e+01 -1.300e+01 -1.300e+01 -1.300e+01 -1.300e+01 -1.300e+01 -1.300e+01 -1.300e+01 -1.300e+01 -1.300e+01 -1.300e+01 -1.300e+01 -1.300e+01 -1.300e+01 -1.300e+01 -1.300e+01 -1.300e+01 -1.300e+01 -1.300e+01 -1.300e+01 -1.300e+01 -1.300e+01 -1.300e+01 -1.300e+01 -1.300e+01 -1.300e+01 -1.300e+01 -1.300e+01 -1.300e+01 -1.300e+01 -1.300e+01 -1.300e+01 -1.300e+01 -1.300e+01 -1.300e+01 -1.300e+01 -1.300e+01 -1.300e+01 -1.300e+01 -1.300e+01 -1.300e+01 -1.300e+01 -1.300e+01 -1.300e+01 -1.300e+01 -1.300e+01 -1.300e+01 -1.300e+01 -1.300e+01 -1.300e+01 -1.300e+01 -1.300e+01 -1.300e+01 -1.300e+01 -1.300e+01 -1.300e+01 -1.300e+01 -1.300e+01 -1.300e+01 -1.300e+01 -1.300e+01 -1.300e+01 -1.300e+01 -1.300e+01 -1.300e+01 -1.300e+01 -1.300e+01 -1.300e+01 -1.300e+01 -1.300e+01 -1.300e+01 -1.300e+01 -1.300e+01 -1.300e+01 -1.300e+01 -1.300e+01 -1.300e+01 -1.300e+01 -1.300e+01 -1.300e+01 -1.300e+01 -1.300e+01 -1.300e+01 -1.300e+01 -1.300e+01 -1.300e+01 -1.300e+01 -1.300e+01 -1.300e+01 -1.300e+01 -1.300e+01 -1.300e+01 -1.300e+01 -1.300e+01 -1.300e+01 -1.300e+01 -1.300e+01 -1.300e+01 -1.300e+01 -1.300e+01 -1.300e+01 -1.300e+01 -1.300e+01 -1.300e+01 -1.300e+01 -1.300e+01 -1.300e+01 -1.300e+01 -1.300e+01 -1.300e+01 -1.300e+01 -1.300e+01 -1.300e+01 -1.300e+01 -1.300e+01 -5.000e+00 -5.000e+00 -5.000e+00 -5.000e+00 -5.000e+00 -5.000e+00 -5.000e+00 -5.000e+00 -5.000e+00 -5.000e+00 -5.000e+00 -5.000e+00 -5.000e+00 -5.000e+00 -5.000e+00 -5.000e+00 -5.000e+00 -5.000e+00 -5.000e+00 -5.000e+00 -5.000e+00 -5.000e+00 -5.000e+00 -5.000e+00 -5.000e+00 -5.000e+00 -5.000e+00 -5.000e+00 -5.000e+00 -5.000e+00 -5.000e+00 -5.000e+00 -5.000e+00 -1.300e+01 -1.300e+01 -1.300e+01 -1.300e+01 -1.300e+01 -1.300e+01 -1.300e+01 -1.300e+01 -1.300e+01 -1.300e+01 -1.300e+01 -1.300e+01 -1.300e+01 -1.300e+01 -1.300e+01 -1.300e+01 -1.300e+01 -1.300e+01 -1.300e+01 -1.300e+01 -1.300e+01 -1.300e+01 -1.300e+01 -1.300e+01 -1.300e+01 -1.300e+01 -1.300e+01 -1.300e+01 -1.300e+01 -1.300e+01 -1.300e+01 -1.300e+01 -1.300e+01 -1.300e+01 -1.300e+01 -1.300e+01 -1.300e+01 -1.300e+01 -1.300e+01 -1.300e+01 -1.300e+01 -1.300e+01 -1.300e+01 -1.300e+01 -1.300e+01 -1.300e+01 -1.300e+01 -1.300e+01 -1.300e+01 -1.300e+01 -1.300e+01 -1.300e+01 -1.300e+01 -1.300e+01 -1.300e+01 -1.300e+01 -1.300e+01 -1.300e+01 -1.300e+01 -1.300e+01 -1.300e+01 -1.300e+01 -1.300e+01 -1.300e+01 -1.300e+01 -1.300e+01 -1.300e+01 -1.300e+01 -1.300e+01 -1.300e+01 -1.300e+01 -1.300e+01 -1.300e+01 -1.300e+01 -1.300e+01 -1.300e+01 -1.300e+01 -1.300e+01 -1.300e+01 -1.300e+01 -1.300e+01 -1.300e+01 -1.300e+01 -1.300e+01 -1.300e+01 -1.300e+01 -1.300e+01 -1.300e+01 -1.300e+01 -1.300e+01 -1.300e+01 -1.300e+01 -1.300e+01 -1.300e+01 -1.300e+01 -1.300e+01 -1.300e+01 -1.300e+01 -1.300e+01 -1.300e+01 -1.300e+01 -1.300e+01 -1.300e+01 -1.300e+01 -1.300e+01 -1.300e+01 -1.300e+01 -1.300e+01 -1.300e+01 -1.300e+01 -1.300e+01 -1.300e+01 -1.300e+01 -1.300e+01 -1.300e+01 -1.300e+01 -1.300e+01 -1.300e+01 -1.300e+01 -1.300e+01 -1.300e+01 -1.300e+01 -1.300e+01 -1.300e+01 -1.300e+01 -1.300e+01 -1.300e+01 -1.300e+01 -1.300e+01 -1.300e+01 -1.300e+01 -1.300e+01 -1.300e+01 -1.300e+01 -1.300e+01 -1.300e+01 -1.300e+01 -1.300e+01 -1.300e+01 -1.300e+01 -1.300e+01 -1.300e+01 -1.300e+01 -1.300e+01 -1.300e+01 -1.300e+01 -1.300e+01 -1.300e+01 -1.300e+01 -1.300e+01 -1.300e+01 -1.300e+01 -1.300e+01 -1.300e+01 -1.300e+01 -1.300e+01 -1.300e+01 -1.300e+01 -1.300e+01 -1.300e+01 -1.300e+01 -1.300e+01 -1.300e+01 -1.300e+01 -1.300e+01 -1.300e+01 -1.300e+01 -1.300e+01 -1.300e+01 -1.300e+01 -1.300e+01 -1.300e+01 -1.300e+01 -1.300e+01 -1.300e+01 -1.300e+01 -1.300e+01 -1.300e+01 -1.300e+01 -1.300e+01 -1.300e+01 -1.300e+01 -1.300e+01 -1.300e+01 -1.300e+01 -1.300e+01 -1.300e+01 -1.300e+01 -1.300e+01 -1.300e+01 -1.300e+01 -1.300e+01 -1.300e+01 -1.300e+01 -1.300e+01 -1.300e+01 -1.300e+01 -1.300e+01 -1.300e+01 -1.300e+01 -1.300e+01 -1.300e+01 -1.300e+01 -1.300e+01 -1.300e+01 -1.300e+01 -1.300e+01 -1.300e+01 -1.300e+01 -1.300e+01 -1.300e+01 -1.300e+01 -1.300e+01 -1.300e+01 -1.300e+01 -1.300e+01 -1.300e+01 -1.300e+01 -1.300e+01 -1.300e+01 -1.300e+01 -1.300e+01 -1.300e+01 -1.300e+01 -1.300e+01 -1.300e+01 -1.300e+01 -1.300e+01 -1.300e+01 -1.300e+01 -1.300e+01 -1.300e+01 -1.300e+01 -1.300e+01 -1.300e+01 -1.300e+01 -1.300e+01 -1.300e+01 -1.300e+01 -1.300e+01 -1.300e+01 -1.300e+01 -1.300e+01 -1.300e+01 -5.000e+00 -5.000e+00 -5.000e+00 -5.000e+00 -5.000e+00 -5.000e+00 -5.000e+00 -5.000e+00 -5.000e+00 -5.000e+00 -5.000e+00 -5.000e+00 -5.000e+00 -5.000e+00 -5.000e+00 -5.000e+00 -5.000e+00 -5.000e+00 -5.000e+00 -5.000e+00 -5.000e+00 -5.000e+00 -5.000e+00 -5.000e+00 -5.000e+00 -5.000e+00 -5.000e+00 -5.000e+00 -5.000e+00 -5.000e+00 -5.000e+00 -5.000e+00 -5.000e+00 -1.900e+01 -1.900e+01 -1.900e+01 -1.900e+01 -1.900e+01 -1.900e+01 -1.900e+01 -1.900e+01 -1.900e+01 -1.900e+01 -1.900e+01 -1.900e+01 -1.900e+01 -1.900e+01 -1.900e+01 -1.900e+01 -1.900e+01 -1.900e+01 -1.900e+01 -1.900e+01 -1.900e+01 -1.900e+01 -1.900e+01 -1.900e+01 -1.900e+01 -1.900e+01 -1.900e+01 -1.900e+01 -1.900e+01 -1.900e+01 -1.900e+01 -1.900e+01 -1.900e+01 -1.900e+01 -1.900e+01 -1.900e+01 -1.900e+01 -1.900e+01 -1.900e+01 -1.900e+01 -1.900e+01 -1.900e+01 -1.900e+01 -1.900e+01 -1.900e+01 -1.900e+01 -1.900e+01 -1.900e+01 -1.900e+01 -1.900e+01 -1.900e+01 -1.900e+01 -1.900e+01 -1.900e+01 -1.900e+01 -1.900e+01 -9.000e+00 -9.000e+00 -9.000e+00 -9.000e+00 -9.000e+00 -9.000e+00 -9.000e+00 -9.000e+00 -9.000e+00 -9.000e+00 -9.000e+00 -9.000e+00 -9.000e+00 -9.000e+00 -9.000e+00 -9.000e+00 -9.000e+00 -9.000e+00 -9.000e+00 -9.000e+00 -9.000e+00 -9.000e+00 -1.900e+01 -1.900e+01 -1.900e+01 -1.900e+01 -1.900e+01 -1.900e+01 -1.900e+01 -1.900e+01 -1.900e+01 -1.900e+01 -1.900e+01 -1.900e+01 -1.900e+01 -1.900e+01 -1.900e+01 -1.900e+01 -1.900e+01 -1.900e+01 -1.900e+01 -1.900e+01 -1.900e+01 -1.900e+01 -1.900e+01 -1.900e+01 -1.900e+01 -1.900e+01 -1.900e+01 -1.900e+01 -1.900e+01 -1.900e+01 -1.900e+01 -1.900e+01 -1.900e+01 -1.900e+01 -1.900e+01 -1.900e+01 -1.900e+01 -1.900e+01 -1.900e+01 -1.900e+01 -1.900e+01 -1.900e+01 -1.900e+01 -1.900e+01 -1.900e+01 -1.900e+01 -1.900e+01 -1.900e+01 -1.900e+01 -1.900e+01 -1.900e+01 -1.900e+01 -1.900e+01 -1.900e+01 -1.900e+01 -9.000e+00 -9.000e+00 -9.000e+00 -9.000e+00 -9.000e+00 -9.000e+00 -9.000e+00 -9.000e+00 -9.000e+00 -9.000e+00 -9.000e+00 -9.000e+00 -9.000e+00 -9.000e+00 -9.000e+00 -9.000e+00 -9.000e+00 -9.000e+00 -9.000e+00 -9.000e+00 -9.000e+00 -9.000e+00 -1.900e+01 -1.900e+01 -1.900e+01 -1.900e+01 -1.900e+01 -1.900e+01 -1.900e+01 -1.900e+01 -1.900e+01 -1.900e+01 -1.900e+01 -1.900e+01 -1.900e+01 -1.900e+01 -1.900e+01 -1.900e+01 -1.900e+01 -1.900e+01 -1.900e+01 -1.900e+01 -1.900e+01 -1.900e+01 -1.900e+01 -1.900e+01 -1.900e+01 -1.900e+01 -1.900e+01 -1.900e+01 -1.900e+01 -1.900e+01 -1.900e+01 -1.900e+01 -1.900e+01 -1.900e+01 -1.900e+01 -1.900e+01 -1.900e+01 -1.900e+01 -1.900e+01 -1.900e+01 -1.900e+01 -1.900e+01 -1.900e+01 -1.900e+01 -1.900e+01 -1.900e+01 -1.900e+01 -1.900e+01 -1.900e+01 -1.900e+01 -1.900e+01 -1.900e+01 -1.900e+01 -1.900e+01 -1.900e+01 -1.900e+01 -9.000e+00 -9.000e+00 -9.000e+00 -9.000e+00 -9.000e+00 -9.000e+00 -9.000e+00 -9.000e+00 -9.000e+00 -9.000e+00 -9.000e+00 -9.000e+00 -9.000e+00 -9.000e+00 -9.000e+00 -9.000e+00 -9.000e+00 -9.000e+00 -9.000e+00 -9.000e+00 -9.000e+00 -9.000e+00 -1.900e+01 -1.900e+01 -1.900e+01 -1.900e+01 -1.900e+01 -1.900e+01 -1.900e+01 -1.900e+01 -1.900e+01 -1.900e+01 -1.900e+01 -1.900e+01 -1.900e+01 -1.900e+01 -1.900e+01 -1.900e+01 -1.900e+01 -1.900e+01 -1.900e+01 -1.900e+01 -1.900e+01 -1.900e+01 -1.900e+01 -1.900e+01 -1.900e+01 -1.900e+01 -1.900e+01 -1.900e+01 -1.900e+01 -1.900e+01 -1.900e+01 -1.900e+01 -1.900e+01 -1.900e+01 -1.900e+01 -1.900e+01 -1.900e+01 -1.900e+01 -1.900e+01 -1.900e+01 -1.900e+01 -1.900e+01 -1.900e+01 -1.900e+01 -1.900e+01 -1.900e+01 -1.900e+01 -1.900e+01 -1.900e+01 -1.900e+01 -1.900e+01 -1.900e+01 -1.900e+01 -1.900e+01 -9.000e+00 -9.000e+00 -9.000e+00 -9.000e+00 -9.000e+00 -9.000e+00 -9.000e+00 -9.000e+00 -9.000e+00 -9.000e+00 -9.000e+00 -9.000e+00 -9.000e+00 -9.000e+00 -9.000e+00 -9.000e+00 -9.000e+00 -9.000e+00 -9.000e+00 -9.000e+00 -9.000e+00 -9.000e+00 -2.000e+01 -2.000e+01 -2.000e+01 -2.000e+01 -2.000e+01 -2.000e+01 -2.000e+01 -2.000e+01 -2.000e+01 -2.000e+01 -2.000e+01 -2.000e+01 -2.000e+01 -2.000e+01 -2.000e+01 -2.000e+01 -2.000e+01 -2.000e+01 -2.000e+01 -2.000e+01 -2.000e+01 -2.000e+01 -2.000e+01 -2.000e+01 -2.000e+01 -2.000e+01 -2.000e+01 -2.000e+01 -2.000e+00 -2.000e+00 -2.000e+00 -2.000e+00 -2.000e+00 -2.000e+00 -2.000e+00 -2.000e+00 -2.000e+00 -2.000e+00 -1.500e+01 -1.500e+01 -1.500e+01 -1.500e+01 -7.000e+00 -7.000e+00 -7.000e+00 -7.000e+00 -7.000e+00 -7.000e+00 -7.000e+00 -7.000e+00 -1.500e+01 -1.500e+01 -1.500e+01 -1.500e+01 -7.000e+00 -7.000e+00 -7.000e+00 -7.000e+00 -7.000e+00 -7.000e+00 -7.000e+00 -7.000e+00 -1.500e+01 -1.500e+01 -7.000e+00 -7.000e+00 -7.000e+00 -7.000e+00 -7.000e+00 -7.000e+00 -7.000e+00 -7.000e+00 -7.000e+00 -7.000e+00 -7.000e+00 -7.000e+00 -7.000e+00 -7.000e+00 -7.000e+00 -7.000e+00 -7.000e+00 -7.000e+00 -7.000e+00 -7.000e+00 -7.000e+00 -7.000e+00 -7.000e+00 -7.000e+00 -7.000e+00 -7.000e+00 -7.000e+00 -7.000e+00 -7.000e+00 -7.000e+00 -7.000e+00 -7.000e+00 -7.000e+00 -7.000e+00 -7.000e+00 -7.000e+00 -7.000e+00 -7.000e+00 -7.000e+00 -1.500e+01 -1.500e+01 -1.500e+01 -7.000e+00 -7.000e+00 -7.000e+00 -7.000e+00 -7.000e+00 -7.000e+00 -7.000e+00 -7.000e+00 -7.000e+00 -7.000e+00 -7.000e+00 -7.000e+00 -7.000e+00 -7.000e+00 -7.000e+00 -7.000e+00 -7.000e+00 -7.000e+00 -7.000e+00 -7.000e+00 -7.000e+00 -7.000e+00 -7.000e+00 -7.000e+00 -7.000e+00 -7.000e+00 -7.000e+00 -7.000e+00 -7.000e+00 -7.000e+00 -7.000e+00 -7.000e+00 -7.000e+00 -7.000e+00 -7.000e+00 -7.000e+00 -7.000e+00 -1.500e+01 -1.500e+01 -1.500e+01 -7.000e+00 -7.000e+00 -7.000e+00 -7.000e+00 -7.000e+00 -7.000e+00 -7.000e+00 -7.000e+00 -7.000e+00 -7.000e+00 -7.000e+00 -7.000e+00 -7.000e+00 -7.000e+00 -7.000e+00 -7.000e+00 -7.000e+00 -7.000e+00 -7.000e+00 -7.000e+00 -7.000e+00 -7.000e+00 -7.000e+00 -7.000e+00 -7.000e+00 -7.000e+00 -7.000e+00 -7.000e+00 -7.000e+00 -7.000e+00 -7.000e+00 -7.000e+00 -7.000e+00 -7.000e+00 -7.000e+00 -1.500e+01 -7.000e+00 -7.000e+00 -7.000e+00 -7.000e+00 -7.000e+00 -7.000e+00 -7.000e+00 -7.000e+00 -7.000e+00 -7.000e+00 -7.000e+00 -7.000e+00 -7.000e+00 -7.000e+00 -7.000e+00 -7.000e+00 -7.000e+00 -7.000e+00 -7.000e+00 -7.000e+00 -7.000e+00 -7.000e+00 -7.000e+00 -7.000e+00 -7.000e+00 -7.000e+00 -7.000e+00 -1.500e+01 -7.000e+00 -7.000e+00 -7.000e+00 -7.000e+00 -7.000e+00 -7.000e+00 -7.000e+00 -7.000e+00 -7.000e+00 -7.000e+00 -7.000e+00 -7.000e+00 -7.000e+00 -7.000e+00 -7.000e+00 -7.000e+00 -7.000e+00 -7.000e+00 -7.000e+00 -7.000e+00 -7.000e+00 -7.000e+00 -7.000e+00 -7.000e+00 -7.000e+00 -7.000e+00 -1.500e+01 -1.500e+01 -1.500e+01 -1.500e+01 -7.000e+00 -7.000e+00 -7.000e+00 -7.000e+00 -7.000e+00 -7.000e+00 -7.000e+00 -7.000e+00 -7.000e+00 -7.000e+00 -7.000e+00 -7.000e+00 -7.000e+00 -7.000e+00 -7.000e+00 -7.000e+00 -7.000e+00 -7.000e+00 -7.000e+00 -7.000e+00 -7.000e+00 -1.500e+01 -1.500e+01 -7.000e+00 -7.000e+00 -7.000e+00 -7.000e+00 -7.000e+00 -7.000e+00 -7.000e+00 -7.000e+00 -7.000e+00 -7.000e+00 -7.000e+00 -7.000e+00 -7.000e+00 -7.000e+00 -7.000e+00 -7.000e+00 -1.500e+01 -1.500e+01 -7.000e+00 -7.000e+00 -7.000e+00 -7.000e+00 -7.000e+00 -7.000e+00 -7.000e+00 -7.000e+00 -7.000e+00 -7.000e+00 -7.000e+00 -7.000e+00 -7.000e+00 -7.000e+00 -7.000e+00 -7.000e+00 -1.500e+01 -1.500e+01 -1.500e+01 -7.000e+00 -7.000e+00 -7.000e+00 -7.000e+00 -7.000e+00 -7.000e+00 -7.000e+00 -7.000e+00 -7.000e+00 -1.500e+01 -1.500e+01 -7.000e+00 -7.000e+00 -7.000e+00 -7.000e+00 -7.000e+00 -7.000e+00 -1.500e+01 -1.500e+01 -7.000e+00 -7.000e+00 -7.000e+00 -7.000e+00 -7.000e+00 -7.000e+00 -1.500e+01 -7.000e+00 -7.000e+00 -7.000e+00 -7.000e+00 -7.000e+00 -7.000e+00 -1.500e+01 -1.500e+01 -7.000e+00 -7.000e+00 -7.000e+00 -7.000e+00 -7.000e+00 -7.000e+00 -7.000e+00 -1.500e+01 -1.500e+01 -7.000e+00 -7.000e+00 -7.000e+00 -7.000e+00 -7.000e+00 -7.000e+00 -1.500e+01 -1.500e+01 -7.000e+00 -7.000e+00 -7.000e+00 -7.000e+00 -7.000e+00 -7.000e+00 -7.000e+00 -7.000e+00 -7.000e+00 -7.000e+00 -7.000e+00 -7.000e+00 -7.000e+00 -7.000e+00 -7.000e+00 -7.000e+00 -1.500e+01 -1.500e+01 -1.500e+01 -7.000e+00 -7.000e+00 -7.000e+00 -7.000e+00 -7.000e+00 -7.000e+00 -7.000e+00 -1.500e+01 -1.500e+01 -7.000e+00 -7.000e+00 -7.000e+00 -7.000e+00 -7.000e+00 -7.000e+00 -7.000e+00 -7.000e+00 -7.000e+00 -7.000e+00 -7.000e+00 -7.000e+00 -1.500e+01 -7.000e+00 -7.000e+00 -7.000e+00 -7.000e+00 -7.000e+00 -7.000e+00 -1.500e+01 -1.500e+01 -1.500e+01 -7.000e+00 -7.000e+00 -7.000e+00 -7.000e+00 -7.000e+00 -7.000e+00 -7.000e+00 -1.500e+01