<?xml version="1.0"?>
<VTKFile type="UnstructuredGrid" version="0.1" byte_order="LittleEndian">
   <UnstructuredGrid>
      <Piece NumberOfPoints="2570" NumberOfCells="182">
         <Points>
            <DataArray type="Float32" Name="Position" NumberOfComponents="3" format="ascii">
-0.008	-4.963	-0.020
0.012	-4.961	-0.013
0.028	-4.970	-0.002
0.032	-4.986	0.010
0.025	-5.005	0.018
0.008	-5.017	0.019
-0.012	-5.019	0.012
-0.027	-5.010	0.001
-0.032	-4.994	-0.011
-0.024	-4.976	-0.019
0.251	-5.347	-0.664
0.271	-5.347	-0.656
0.284	-5.356	-0.643
0.286	-5.372	-0.629
0.275	-5.388	-0.620
0.256	-5.397	-0.619
0.237	-5.398	-0.626
0.224	-5.388	-0.639
0.222	-5.372	-0.653
0.232	-5.357	-0.663
0.466	-6.005	-1.223
0.484	-6.008	-1.213
0.493	-6.017	-1.197
0.490	-6.030	-1.181
0.476	-6.042	-1.171
0.456	-6.048	-1.171
0.438	-6.045	-1.181
0.428	-6.036	-1.197
0.431	-6.023	-1.213
0.445	-6.011	-1.223
0.615	-6.564	-1.599
0.632	-6.567	-1.587
0.639	-6.576	-1.570
0.634	-6.587	-1.553
0.617	-6.597	-1.543
0.597	-6.601	-1.545
0.580	-6.598	-1.557
0.572	-6.589	-1.574
0.578	-6.578	-1.591
0.594	-6.568	-1.601
0.766	-7.267	-1.965
0.782	-7.269	-1.952
0.787	-7.277	-1.933
0.780	-7.287	-1.916
0.762	-7.295	-1.907
0.742	-7.298	-1.910
0.726	-7.295	-1.923
0.720	-7.288	-1.942
0.728	-7.278	-1.959
0.745	-7.270	-1.968
0.893	-7.808	-2.197
0.908	-7.811	-2.182
0.912	-7.817	-2.163
0.903	-7.826	-2.146
0.885	-7.833	-2.137
0.865	-7.836	-2.141
0.850	-7.834	-2.156
0.846	-7.827	-2.175
0.854	-7.818	-2.192
0.872	-7.811	-2.201
1.016	-8.414	-2.409
1.030	-8.416	-2.394
1.033	-8.422	-2.374
1.024	-8.430	-2.357
1.005	-8.436	-2.349
0.985	-8.439	-2.354
0.970	-8.437	-2.369
0.967	-8.431	-2.389
0.977	-8.424	-2.406
0.995	-8.417	-2.414
1.157	-9.075	-2.610
1.171	-9.077	-2.595
1.174	-9.083	-2.575
1.164	-9.090	-2.558
1.146	-9.096	-2.550
1.126	-9.099	-2.555
1.111	-9.097	-2.570
1.108	-9.091	-2.590
1.118	-9.084	-2.607
1.137	-9.078	-2.615
1.226	-9.423	-2.723
1.240	-9.425	-2.708
1.243	-9.431	-2.688
1.233	-9.438	-2.671
1.215	-9.444	-2.663
1.194	-9.447	-2.668
1.180	-9.445	-2.683
1.177	-9.439	-2.703
1.187	-9.431	-2.720
1.205	-9.425	-2.727
0.010	-5.017	0.017
-0.002	-5.005	0.030
-0.012	-4.987	0.031
-0.018	-4.970	0.020
-0.017	-4.961	0.001
-0.009	-4.963	-0.018
0.002	-4.975	-0.031
0.013	-4.993	-0.032
0.019	-5.010	-0.021
0.017	-5.019	-0.002
-0.648	-5.385	-0.200
-0.662	-5.371	-0.193
-0.674	-5.354	-0.198
-0.679	-5.341	-0.213
-0.675	-5.337	-0.234
-0.665	-5.343	-0.251
-0.651	-5.357	-0.258
-0.639	-5.374	-0.253
-0.634	-5.387	-0.237
-0.638	-5.391	-0.217
-1.227	-6.011	-0.395
-1.244	-5.999	-0.390
-1.258	-5.986	-0.398
-1.264	-5.976	-0.416
-1.260	-5.974	-0.436
-1.248	-5.980	-0.452
-1.231	-5.992	-0.456
-1.217	-6.006	-0.448
-1.211	-6.015	-0.431
-1.215	-6.017	-0.410
-1.603	-6.569	-0.519
-1.620	-6.559	-0.511
-1.637	-6.548	-0.516
-1.647	-6.538	-0.532
-1.646	-6.534	-0.552
-1.635	-6.537	-0.570
-1.618	-6.546	-0.578
-1.601	-6.558	-0.573
-1.591	-6.568	-0.557
-1.592	-6.572	-0.537
-2.006	-7.246	-0.668
-2.024	-7.238	-0.659
-2.041	-7.227	-0.662
-2.053	-7.217	-0.677
-2.053	-7.212	-0.698
-2.043	-7.214	-0.716
-2.026	-7.222	-0.725
-2.009	-7.233	-0.722
-1.997	-7.243	-0.707
-1.996	-7.248	-0.686
-2.290	-7.763	-0.772
-2.307	-7.757	-0.762
-2.325	-7.747	-0.764
-2.338	-7.738	-0.777
-2.340	-7.732	-0.798
-2.331	-7.733	-0.817
-2.314	-7.740	-0.827
-2.296	-7.750	-0.825
-2.283	-7.759	-0.811
-2.281	-7.764	-0.791
-2.561	-8.342	-0.893
-2.578	-8.338	-0.881
-2.597	-8.329	-0.881
-2.612	-8.321	-0.894
-2.616	-8.315	-0.913
-2.608	-8.314	-0.933
-2.592	-8.319	-0.945
-2.572	-8.327	-0.945
-2.558	-8.336	-0.932
-2.553	-8.342	-0.912
-2.810	-8.987	-1.021
-2.826	-8.983	-1.009
-2.846	-8.976	-1.008
-2.861	-8.968	-1.021
-2.866	-8.963	-1.040
-2.859	-8.962	-1.060
-2.843	-8.966	-1.072
-2.823	-8.974	-1.072
-2.808	-8.981	-1.060
-2.803	-8.987	-1.041
-2.935	-9.328	-1.105
-2.930	-9.333	-1.085
-2.937	-9.333	-1.065
-2.953	-9.328	-1.053
-2.973	-9.321	-1.054
-2.988	-9.314	-1.066
-2.993	-9.309	-1.086
-2.986	-9.309	-1.106
-2.970	-9.314	-1.118
-2.950	-9.321	-1.118
0.025	-5.013	-0.002
0.033	-4.996	0.008
0.028	-4.977	0.015
0.012	-4.963	0.016
-0.008	-4.959	0.011
-0.025	-4.967	0.001
-0.032	-4.984	-0.009
-0.027	-5.003	-0.016
-0.012	-5.017	-0.017
0.008	-5.021	-0.012
-0.215	-5.326	0.679
-0.208	-5.311	0.692
-0.214	-5.293	0.702
-0.230	-5.280	0.705
-0.250	-5.276	0.700
-0.267	-5.283	0.689
-0.273	-5.299	0.676
-0.267	-5.317	0.667
-0.251	-5.330	0.664
-0.231	-5.333	0.669
-0.445	-5.896	1.303
-0.440	-5.883	1.319
-0.447	-5.868	1.332
-0.463	-5.857	1.338
-0.484	-5.853	1.334
-0.500	-5.860	1.322
-0.506	-5.873	1.306
-0.499	-5.888	1.293
-0.482	-5.899	1.288
-0.462	-5.902	1.292
-0.586	-6.405	1.736
-0.581	-6.394	1.752
-0.588	-6.380	1.767
-0.605	-6.371	1.774
-0.625	-6.368	1.771
-0.642	-6.373	1.759
-0.647	-6.385	1.743
-0.640	-6.398	1.728
-0.623	-6.408	1.721
-0.603	-6.411	1.724
-0.723	-7.046	2.195
-0.717	-7.036	2.212
-0.724	-7.025	2.228
-0.741	-7.016	2.237
-0.762	-7.014	2.234
-0.778	-7.019	2.222
-0.784	-7.029	2.205
-0.777	-7.040	2.189
-0.760	-7.049	2.180
-0.739	-7.051	2.182
-0.799	-7.561	2.488
-0.793	-7.552	2.507
-0.799	-7.543	2.524
-0.816	-7.535	2.534
-0.837	-7.533	2.532
-0.854	-7.538	2.520
-0.860	-7.546	2.502
-0.853	-7.556	2.485
-0.836	-7.564	2.475
-0.815	-7.566	2.476
-0.862	-8.143	2.773
-0.855	-8.135	2.791
-0.862	-8.127	2.809
-0.879	-8.120	2.820
-0.900	-8.118	2.819
-0.917	-8.122	2.807
-0.923	-8.130	2.788
-0.916	-8.139	2.770
-0.899	-8.145	2.760
-0.879	-8.147	2.761
-0.921	-8.788	3.048
-0.914	-8.781	3.067
-0.920	-8.773	3.085
-0.937	-8.767	3.096
-0.958	-8.765	3.096
-0.975	-8.769	3.084
-0.982	-8.776	3.065
-0.975	-8.784	3.047
-0.959	-8.789	3.036
-0.938	-8.791	3.036
-0.977	-9.101	3.172
-0.977	-9.092	3.191
-0.977	-9.095	3.212
-0.977	-9.110	3.227
-0.977	-9.131	3.230
-0.977	-9.149	3.220
-0.977	-9.159	3.202
-0.977	-9.156	3.181
-0.977	-9.141	3.166
-0.977	-9.120	3.163
0.015	-4.978	-0.028
0.016	-4.963	-0.013
0.011	-4.959	0.007
0.002	-4.966	0.024
-0.008	-4.983	0.032
-0.015	-5.003	0.027
-0.016	-5.017	0.012
-0.011	-5.021	-0.008
-0.001	-5.014	-0.025
0.009	-4.997	-0.033
0.706	-5.273	0.218
0.709	-5.259	0.233
0.705	-5.254	0.254
0.695	-5.261	0.271
0.682	-5.277	0.278
0.673	-5.295	0.273
0.669	-5.308	0.258
0.674	-5.313	0.237
0.684	-5.306	0.220
0.696	-5.291	0.213
1.348	-5.843	0.433
1.355	-5.831	0.449
1.352	-5.827	0.469
1.340	-5.832	0.486
1.325	-5.845	0.493
1.311	-5.860	0.487
1.305	-5.872	0.471
1.308	-5.876	0.450
1.320	-5.870	0.434
1.335	-5.858	0.427
1.775	-6.356	0.603
1.783	-6.345	0.619
1.779	-6.341	0.639
1.767	-6.344	0.656
1.750	-6.355	0.662
1.735	-6.368	0.656
1.727	-6.379	0.639
1.731	-6.383	0.619
1.743	-6.379	0.603
1.760	-6.369	0.596
2.200	-7.005	0.814
2.209	-6.996	0.831
2.206	-6.992	0.851
2.192	-6.995	0.867
2.174	-7.004	0.873
2.158	-7.015	0.866
2.150	-7.025	0.849
2.153	-7.029	0.829
2.166	-7.026	0.813
2.184	-7.017	0.807
2.472	-7.526	0.941
2.481	-7.518	0.959
2.478	-7.515	0.979
2.465	-7.518	0.995
2.446	-7.526	1.001
2.429	-7.535	0.993
2.420	-7.543	0.976
2.423	-7.547	0.956
2.436	-7.544	0.939
2.455	-7.536	0.934
2.732	-8.114	1.061
2.741	-8.106	1.078
2.739	-8.103	1.099
2.725	-8.106	1.115
2.706	-8.113	1.120
2.688	-8.121	1.112
2.679	-8.128	1.095
2.682	-8.131	1.074
2.695	-8.129	1.058
2.715	-8.122	1.053
2.966	-8.768	1.182
2.975	-8.762	1.200
2.972	-8.759	1.221
2.958	-8.761	1.236
2.939	-8.767	1.241
2.921	-8.774	1.233
2.911	-8.780	1.215
2.914	-8.783	1.195
2.928	-8.781	1.179
2.948	-8.775	1.174
3.071	-9.120	1.241
3.081	-9.114	1.259
3.078	-9.112	1.280
3.064	-9.113	1.295
3.044	-9.118	1.300
3.026	-9.125	1.292
3.017	-9.131	1.274
3.019	-9.134	1.253
3.033	-9.132	1.238
3.053	-9.127	1.233
-0.008	-4.673	-0.026
0.010	-4.667	-0.018
0.027	-4.675	-0.007
0.035	-4.692	0.002
0.031	-4.712	0.006
0.018	-4.728	0.004
-0.001	-4.733	-0.005
-0.017	-4.726	-0.016
-0.025	-4.709	-0.025
-0.022	-4.688	-0.029
0.193	-4.780	-0.401
0.212	-4.775	-0.393
0.228	-4.783	-0.382
0.236	-4.800	-0.373
0.233	-4.820	-0.369
0.219	-4.836	-0.372
0.201	-4.841	-0.380
0.184	-4.834	-0.391
0.176	-4.816	-0.400
0.180	-4.796	-0.404
-0.011	-4.712	0.016
-0.013	-4.691	0.016
-0.009	-4.674	0.005
0.001	-4.666	-0.012
0.012	-4.672	-0.029
0.021	-4.689	-0.039
0.023	-4.709	-0.039
0.018	-4.727	-0.028
0.008	-4.734	-0.011
-0.003	-4.728	0.006
-0.383	-4.754	-0.216
-0.386	-4.733	-0.216
-0.381	-4.716	-0.227
-0.371	-4.709	-0.244
-0.360	-4.714	-0.261
-0.352	-4.731	-0.271
-0.349	-4.752	-0.271
-0.354	-4.769	-0.260
-0.364	-4.776	-0.243
-0.375	-4.771	-0.226
0.024	-4.727	-0.004
0.033	-4.710	0.005
0.030	-4.690	0.008
0.018	-4.673	0.004
0.001	-4.667	-0.006
-0.015	-4.674	-0.018
-0.023	-4.690	-0.028
-0.021	-4.711	-0.031
-0.009	-4.728	-0.026
0.009	-4.734	-0.016
-0.214	-4.809	0.356
-0.206	-4.792	0.366
-0.208	-4.771	0.369
-0.220	-4.755	0.364
-0.238	-4.748	0.354
-0.254	-4.755	0.342
-0.262	-4.772	0.333
-0.260	-4.793	0.330
-0.247	-4.809	0.334
-0.230	-4.815	0.344
0.025	-4.694	-0.038
0.022	-4.676	-0.028
0.012	-4.667	-0.012
-0.001	-4.671	0.005
-0.011	-4.686	0.015
-0.016	-4.706	0.015
-0.012	-4.725	0.005
-0.002	-4.734	-0.011
0.010	-4.730	-0.027
0.021	-4.715	-0.038
0.377	-4.765	0.216
0.374	-4.746	0.226
0.364	-4.737	0.243
0.351	-4.741	0.259
0.341	-4.756	0.269
0.336	-4.777	0.269
0.340	-4.795	0.260
0.350	-4.804	0.243
0.362	-4.800	0.227
0.373	-4.785	0.217
-0.154	-4.996	0.150
-0.037	-4.995	0.212
0.095	-4.996	0.193
0.190	-4.999	0.100
0.213	-5.002	-0.031
0.154	-5.004	-0.150
0.037	-5.005	-0.212
-0.095	-5.004	-0.193
-0.190	-5.001	-0.100
-0.213	-4.998	0.031
-0.146	-4.248	0.133
-0.030	-4.248	0.193
0.100	-4.248	0.174
0.193	-4.249	0.082
0.215	-4.251	-0.048
0.156	-4.252	-0.165
0.039	-4.253	-0.226
-0.090	-4.253	-0.206
-0.184	-4.251	-0.114
-0.205	-4.250	0.016
-0.148	-3.560	0.130
-0.032	-3.559	0.189
0.097	-3.559	0.169
0.189	-3.559	0.077
0.210	-3.560	-0.052
0.151	-3.561	-0.168
0.035	-3.561	-0.228
-0.094	-3.562	-0.207
-0.186	-3.561	-0.115
-0.207	-3.561	0.013
-0.148	-2.400	0.121
-0.033	-2.399	0.180
0.094	-2.399	0.160
0.186	-2.399	0.068
0.206	-2.400	-0.059
0.148	-2.401	-0.175
0.033	-2.402	-0.234
-0.095	-2.402	-0.213
-0.187	-2.402	-0.122
-0.207	-2.401	0.006
-0.152	-1.801	0.116
-0.037	-1.800	0.174
0.090	-1.799	0.154
0.181	-1.799	0.063
0.201	-1.799	-0.064
[...]
         <CellData>
           <DataArray type="Float32" Name="combinedRootClassID" NumberOfComponents="1" format="ascii">
 -5.000e+00 -5.000e+00 -5.000e+00 -5.000e+00 -5.000e+00 -5.000e+00 -5.000e+00 -5.000e+00 -5.000e+00 -5.000e+00 -5.000e+00 -5.000e+00 -5.000e+00 -5.000e+00 -5.000e+00 -5.000e+00 -5.000e+00 -5.000e+00 -5.000e+00 -5.000e+00 -5.000e+00 -5.000e+00 -5.000e+00 -5.000e+00 -5.000e+00 -5.000e+00 -5.000e+00 -5.000e+00 -5.000e+00 -5.000e+00 -5.000e+00 -5.000e+00 -9.000e+00 -9.000e+00 -9.000e+00 -9.000e+00 -2.000e+00 -2.000e+00 -2.000e+00 -2.000e+00 -2.000e+00 -2.000e+00 -2.000e+00 -2.000e+00 -2.000e+00 -2.000e+00 -7.000e+00 -7.000e+00 -7.000e+00 -7.000e+00 -7.000e+00 -7.000e+00 -7.000e+00 -7.000e+00 -7.000e+00 -7.000e+00 -7.000e+00 -7.000e+00 -7.000e+00 -7.000e+00 -7.000e+00 -7.000e+00 -7.000e+00 -7.000e+00 -7.000e+00 -7.000e+00 -7.000e+00 -7.000e+00 -7.000e+00 -7.000e+00 -7.000e+00 -7.000e+00 -7.000e+00 -7.000e+00 -7.000e+00 -7.000e+00 -7.000e+00 -7.000e+00 -7.000e+00 -7.000e+00 -7.000e+00 -7.000e+00 -7.000e+00 -7.000e+00 -7.000e+00 -7.000e+00 -7.000e+00 -7.000e+00 -7.000e+00 -7.000e+00 -7.000e+00 -7.000e+00 -7.000e+00 -7.000e+00 -7.000e+00 -7.000e+00 -7.000e+00 -7.000e+00 -7.000e+00 -7.000e+00 -7.000e+00 -7.000e+00 -7.000e+00 -7.000e+00 -7.000e+00 -7.000e+00 -7.000e+00 -7.000e+00 -7.000e+00 -7.000e+00 -7.000e+00 -7.000e+00 -7.000e+00 -7.000e+00 -7.000e+00 -7.000e+00 -7.000e+00 -7.000e+00 -7.000e+00 -7.000e+00 -7.000e+00 -7.000e+00 -7.000e+00 -7.000e+00 -7.000e+00 -7.000e+00 -7.000e+00 -7.000e+00 -7.000e+00 -7.000e+00 -7.000e+00 -7.000e+00 -7.000e+00 -7.000e+00 -7.000e+00 -7.000e+00 -7.000e+00 -7.000e+00 -7.000e+00 -7.000e+00 -7.000e+00 -7.000e+00 -7.000e+00 -7.000e+00 -7.000e+00 -7.000e+00 -7.000e+00 -7.000e+00 -7.000e+00 -7.000e+00 -7.000e+00 -7.000e+00 -7.000e+00 -7.000e+00 -7.000e+00 -7.000e+00 -1.100e+01 -1.100e+01 -4.000e+00 -4.000e+00 -4.000e+00 -4.000e+00 -4.000e+00 -4.000e+00 -4.000e+00 -4.000e+00 -4.000e+00 -4.000e+00 -4.000e+00 -4.000e+00 -4.000e+00 -4.000e+00 -4.000e+00 -4.000e+00 -4.000e+00 -4.000e+00 -4.000e+00 -4.000e+00 -4.000e+00 -4.000e+00 -4.000e+00 -4.000e+00
           </DataArray>
           <DataArray type="Float32" Name="nitrate/Cmin" NumberOfComponents="1" format="ascii">
 1.000e-03 1.000e-03 1.000e-03 1.000e-03 1.000e-03 1.000e-03 1.000e-03 1.000e-03 1.000e-03 1.000e-03 1.000e-03 1.000e-03 1.000e-03 1.000e-03 1.000e-03 1.000e-03 1.000e-03 1.000e-03 1.000e-03 1.000e-03 1.000e-03 1.000e-03 1.000e-03 1.000e-03 1.000e-03 1.000e-03 1.000e-03 1.000e-03 1.000e-03 1.000e-03 1.000e-03 1.000e-03 1.000e-03 1.000e-03 1.000e-03 1.000e-03 1.000e-03 1.000e-03 1.000e-03 1.000e-03 1.000e-03 1.000e-03 1.000e-03 1.000e-03 1.000e-03 1.000e-03 1.000e-03 1.000e-03 1.000e-03 1.000e-03 1.000e-03 1.000e-03 1.000e-03 1.000e-03 1.000e-03 1.000e-03 1.000e-03 1.000e-03 1.000e-03 1.000e-03 1.000e-03 1.000e-03 1.000e-03 1.000e-03 1.000e-03 1.000e-03 1.000e-03 1.000e-03 1.000e-03 1.000e-03 1.000e-03 1.000e-03 1.000e-03 1.000e-03 1.000e-03 1.000e-03 1.000e-03 1.000e-03 1.000e-03 1.000e-03 1.000e-03 1.000e-03 1.000e-03 1.000e-03 1.000e-03 1.000e-03 1.000e-03 1.000e-03 1.000e-03 1.000e-03 1.000e-03 1.000e-03 1.000e-03 1.000e-03 1.000e-03 1.000e-03 1.000e-03 1.000e-03 1.000e-03 1.000e-03 1.000e-03 1.000e-03 1.000e-03 1.000e-03 1.000e-03 1.000e-03 1.000e-03 1.000e-03 1.000e-03 1.000e-03 1.000e-03 1.000e-03 1.000e-03 1.000e-03 1.000e-03 1.000e-03 1.000e-03 1.000e-03 1.000e-03 1.000e-03 1.000e-03 1.000e-03 1.000e-03 1.000e-03 1.000e-03 1.000e-03 1.000e-03 1.000e-03 1.000e-03 1.000e-03 1.000e-03 1.000e-03 1.000e-03 1.000e-03 1.000e-03 1.000e-03 1.000e-03 1.000e-03 1.000e-03 1.000e-03 1.000e-03 1.000e-03 1.000e-03 1.000e-03 1.000e-03 1.000e-03 1.000e-03 1.000e-03 1.000e-03 1.000e-03 1.000e-03 1.000e-03 1.000e-03 1.000e-03 1.000e-03 1.000e-03 1.000e-03 1.000e-03 1.000e-03 1.000e-03 1.000e-03 1.000e-03 1.000e-03 1.000e-03 1.000e-03 1.000e-03 1.000e-03 1.000e-03 1.000e-03 1.000e-03 1.000e-03 1.000e-03 1.000e-03 1.000e-03 1.000e-03 1.000e-03 1.000e-03 1.000e-03 1.000e-03 1.000e-03 1.000e-03 1.000e-03
           </DataArray>
           <DataArray type="Float32" Name="nitrate/Imax" NumberOfComponents="1" format="ascii">
 1.900e+00 1.900e+00 1.900e+00 1.900e+00 1.900e+00 1.900e+00 1.900e+00 1.900e+00 1.900e+00 1.900e+00 1.900e+00 1.900e+00 1.900e+00 1.900e+00 1.900e+00 1.900e+00 1.900e+00 1.900e+00 1.900e+00 1.900e+00 1.900e+00 1.900e+00 1.900e+00 1.900e+00 1.900e+00 1.900e+00 1.900e+00 1.900e+00 1.900e+00 1.900e+00 1.900e+00 1.900e+00 1.900e+00 1.900e+00 1.900e+00 1.900e+00 1.900e+00 1.900e+00 1.900e+00 1.900e+00 1.900e+00 1.900e+00 1.900e+00 1.900e+00 1.900e+00 1.900e+00 1.900e+00 1.900e+00 1.900e+00 1.900e+00 1.900e+00 1.900e+00 1.900e+00 1.900e+00 1.900e+00 1.900e+00 1.900e+00 1.900e+00 1.900e+00 1.900e+00 1.900e+00 1.900e+00 1.900e+00 1.900e+00 1.900e+00 1.900e+00 1.900e+00 1.900e+00 1.900e+00 1.900e+00 1.900e+00 1.900e+00 1.900e+00 1.900e+00 1.900e+00 1.900e+00 1.900e+00 1.900e+00 1.900e+00 1.900e+00 1.900e+00 1.900e+00 1.900e+00 1.900e+00 1.900e+00 1.900e+00 1.900e+00 1.900e+00 1.900e+00 1.900e+00 1.900e+00 1.900e+00 1.900e+00 1.900e+00 1.900e+00 1.900e+00 1.900e+00 1.900e+00 1.900e+00 1.900e+00 1.900e+00 1.900e+00 1.900e+00 1.900e+00 1.900e+00 1.900e+00 1.900e+00 1.900e+00 1.900e+00 1.900e+00 1.900e+00 1.900e+00 1.900e+00 1.900e+00 1.900e+00 1.900e+00 1.900e+00 1.900e+00 1.900e+00 1.900e+00 1.900e+00 1.900e+00 1.900e+00 1.900e+00 1.900e+00 1.900e+00 1.900e+00 1.900e+00 1.900e+00 1.900e+00 1.900e+00 1.900e+00 1.900e+00 1.900e+00 1.900e+00 1.900e+00 1.900e+00 1.900e+00 1.900e+00 1.900e+00 1.900e+00 1.900e+00 1.900e+00 1.900e+00 1.900e+00 1.900e+00 1.900e+00 1.900e+00 1.900e+00 1.900e+00 1.900e+00 1.900e+00 1.900e+00 1.900e+00 1.900e+00 1.900e+00 1.900e+00 1.900e+00 1.900e+00 1.900e+00 1.900e+00 1.900e+00 1.900e+00 1.900e+00 1.900e+00 1.900e+00 1.900e+00 1.900e+00 1.900e+00 1.900e+00 1.900e+00 1.900e+00 1.900e+00 1.900e+00 1.900e+00 1.900e+00 1.900e+00 1.900e+00 1.900e+00 1.900e+00 1.900e+00 1.900e+00
           </DataArray>
           <DataArray type="Float32" Name="nitrate/Km" NumberOfComponents="1" format="ascii">
 1.610e-02 1.610e-02 1.610e-02 1.610e-02 1.610e-02 1.610e-02 1.610e-02 1.610e-02 1.610e-02 1.610e-02 1.610e-02 1.610e-02 1.610e-02 1.610e-02 1.610e-02 1.610e-02 1.610e-02 1.610e-02 1.610e-02 1.610e-02 1.610e-02 1.610e-02 1.610e-02 1.610e-02 1.610e-02 1.610e-02 1.610e-02 1.610e-02 1.610e-02 1.610e-02 1.610e-02 1.610e-02 1.610e-02 1.610e-02 1.610e-02 1.610e-02 1.610e-02 1.610e-02 1.610e-02 1.610e-02 1.610e-02 1.610e-02 1.610e-02 1.610e-02 1.610e-02 1.610e-02 1.610e-02 1.610e-02 1.610e-02 1.610e-02 1.610e-02 1.610e-02 1.610e-02 1.610e-02 1.610e-02 1.610e-02 1.610e-02 1.610e-02 1.610e-02 1.610e-02 1.610e-02 1.610e-02 1.610e-02 1.610e-02 1.610e-02 1.610e-02 1.610e-02 1.610e-02 1.610e-02 1.610e-02 1.610e-02 1.610e-02 1.610e-02 1.610e-02 1.610e-02 1.610e-02 1.610e-02 1.610e-02 1.610e-02 1.610e-02 1.610e-02 1.610e-02 1.610e-02 1.610e-02 1.610e-02 1.610e-02 1.610e-02 1.610e-02 1.610e-02 1.610e-02 1.610e-02 1.610e-02 1.610e-02 1.610e-02 1.610e-02 1.610e-02 1.610e-02 1.610e-02 1.610e-02 1.610e-02 1.610e-02 1.610e-02 1.610e-02 1.610e-02 1.610e-02 1.610e-02 1.610e-02 1.610e-02 1.610e-02 1.610e-02 1.610e-02 1.610e-02 1.610e-02 1.610e-02 1.610e-02 1.610e-02 1.610e-02 1.610e-02 1.610e-02 1.610e-02 1.610e-02 1.610e-02 1.610e-02 1.610e-02 1.610e-02 1.610e-02 1.610e-02 1.610e-02 1.610e-02 1.610e-02 1.610e-02 1.610e-02 1.610e-02 1.610e-02 1.610e-02 1.610e-02 1.610e-02 1.610e-02 1.610e-02 1.610e-02 1.610e-02 1.610e-02 1.610e-02 1.610e-02 1.610e-02 1.610e-02 1.610e-02 1.610e-02 1.610e-02 1.610e-02 1.610e-02 1.610e-02 1.610e-02 1.610e-02 1.610e-02 1.610e-02 1.610e-02 1.610e-02 1.610e-02 1.610e-02 1.610e-02 1.610e-02 1.610e-02 1.610e-02 1.610e-02 1.610e-02 1.610e-02 1.610e-02 1.610e-02 1.610e-02 1.610e-02 1.610e-02 1.610e-02 1.610e-02 1.610e-02 1.610e-02 1.610e-02 1.610e-02 1.610e-02 1.610e-02 1.610e-02 1.610e-02
           </DataArray>
           <DataArray type="Float32" Name="nitrate/minimalNutrientConcentration" NumberOfComponents="1" format="ascii">
 6.000e+02 6.000e+02 6.000e+02 6.000e+02 6.000e+02 6.000e+02 6.000e+02 6.000e+02 6.000e+02 6.000e+02 6.000e+02 6.000e+02 6.000e+02 6.000e+02 6.000e+02 6.000e+02 6.000e+02 6.000e+02 6.000e+02 6.000e+02 6.000e+02 6.000e+02 6.000e+02 6.000e+02 6.000e+02 6.000e+02 6.000e+02 6.000e+02 6.000e+02 6.000e+02 6.000e+02 6.000e+02 6.000e+02 6.000e+02 6.000e+02 6.000e+02 6.000e+02 6.000e+02 6.000e+02 6.000e+02 6.000e+02 6.000e+02 6.000e+02 6.000e+02 6.000e+02 6.000e+02 6.000e+02 6.000e+02 6.000e+02 6.000e+02 6.000e+02 6.000e+02 6.000e+02 6.000e+02 6.000e+02 6.000e+02 6.000e+02 6.000e+02 6.000e+02 6.000e+02 6.000e+02 6.000e+02 6.000e+02 6.000e+02 6.000e+02 6.000e+02 6.000e+02 6.000e+02 6.000e+02 6.000e+02 6.000e+02 6.000e+02 6.000e+02 6.000e+02 6.000e+02 6.000e+02 6.000e+02 6.000e+02 6.000e+02 6.000e+02 6.000e+02 6.000e+02 6.000e+02 6.000e+02 6.000e+02 6.000e+02 6.000e+02 6.000e+02 6.000e+02 6.000e+02 6.000e+02 6.000e+02 6.000e+02 6.000e+02 6.000e+02 6.000e+02 6.000e+02 6.000e+02 6.000e+02 6.000e+02 6.000e+02 6.000e+02 6.000e+02 6.000e+02 6.000e+02 6.000e+02 6.000e+02 6.000e+02 6.000e+02 6.000e+02 6.000e+02 6.000e+02 6.000e+02 6.000e+02 6.000e+02 6.000e+02 6.000e+02 6.000e+02 6.000e+02 6.000e+02 6.000e+02 6.000e+02 6.000e+02 6.000e+02 6.000e+02 6.000e+02 6.000e+02 6.000e+02 6.000e+02 6.000e+02 6.000e+02 6.000e+02 6.000e+02 6.000e+02 6.000e+02 6.000e+02 6.000e+02 6.000e+02 6.000e+02 6.000e+02 6.000e+02 6.000e+02 6.000e+02 6.000e+02 6.000e+02 6.000e+02 6.000e+02 6.000e+02 6.000e+02 6.000e+02 6.000e+02 6.000e+02 6.000e+02 6.000e+02 6.000e+02 6.000e+02 6.000e+02 6.000e+02 6.000e+02 6.000e+02 6.000e+02 6.000e+02 6.000e+02 6.000e+02 6.000e+02 6.000e+02 6.000e+02 6.000e+02 6.000e+02 6.000e+02 6.000e+02 6.000e+02 6.000e+02 6.000e+02 6.000e+02 6.000e+02 6.000e+02 6.000e+02 6.000e+02 6.000e+02 6.000e+02 6.000e+02
           </DataArray>
           <DataArray type="Float32" Name="nitrate/nutrientConcentrationAtTheRootSurface" NumberOfComponents="1" format="ascii">
 3.017e-01 2.906e-01 3.691e-01 4.661e-01 5.623e-01 6.325e-01 6.930e-01 7.671e-01 3.017e-01 3.124e-01 3.532e-01 4.664e-01 5.203e-01 6.395e-01 7.225e-01 8.188e-01 3.017e-01 3.398e-01 4.144e-01 4.617e-01 5.490e-01 6.060e-01 6.399e-01 7.952e-01 3.017e-01 3.315e-01 3.545e-01 4.686e-01 5.359e-01 6.359e-01 7.217e-01 8.093e-01 3.082e-01 3.082e-01 3.082e-01 3.082e-01 3.017e-01 3.123e-01 2.945e-01 2.202e-01 1.802e-01 1.314e-01 7.972e-02 0.000e+00 0.000e+00 0.000e+00 3.008e-01 3.370e-01 4.215e-01 2.987e-01 3.150e-01 3.914e-01 2.741e-01 3.267e-01 2.750e-01 3.233e-01 4.104e-01 2.858e-01 3.207e-01 4.208e-01 2.920e-01 3.111e-01 2.989e-01 3.170e-01 3.052e-01 3.670e-01 5.164e-01 3.103e-01 3.558e-01 3.153e-01 3.674e-01 3.195e-01 4.048e-01 3.236e-01 3.872e-01 2.971e-01 3.203e-01 4.220e-01 3.274e-01 3.986e-01 3.335e-01 3.959e-01 3.474e-01 4.571e-01 3.628e-01 4.794e-01 3.822e-01 4.195e-01 4.102e-01 5.085e-01 4.237e-01 3.720e-01 4.310e-01 4.937e-01 4.362e-01 5.349e-01 4.378e-01 5.452e-01 2.936e-01 3.201e-01 4.094e-01 4.405e-01 5.641e-01 4.453e-01 5.190e-01 4.616e-01 6.053e-01 4.799e-01 5.091e-01 5.321e-01 6.068e-01 5.506e-01 6.234e-01 5.577e-01 5.589e-01 5.588e-01 2.890e-01 3.173e-01 4.124e-01 5.595e-01 5.650e-01 5.774e-01 5.952e-01 6.191e-01 6.358e-01 6.466e-01 6.524e-01 6.548e-01 6.539e-01 2.840e-01 2.922e-01 4.403e-01 6.573e-01 6.633e-01 6.750e-01 6.909e-01 7.064e-01 7.170e-01 7.258e-01 7.334e-01 7.368e-01 7.393e-01 2.793e-01 2.930e-01 3.879e-01 7.423e-01 7.467e-01 7.534e-01 7.576e-01 2.723e-01 2.739e-01 3.675e-01 2.731e-01 3.116e-01 2.730e-01 3.040e-01 6.012e-01 6.933e-01 3.017e-01 2.790e-01 2.930e-01 3.281e-01 4.351e-01 5.178e-01 5.686e-01 6.536e-01 7.232e-01 7.561e-01 7.681e-01 7.754e-01 7.799e-01 7.686e-01 7.909e-01 8.332e-01 8.456e-01 8.722e-01 8.756e-01 8.750e-01 8.762e-01 9.164e-01 9.401e-01 1.002e+00
           </DataArray>
           <DataArray type="Float32" Name="nitrate/optimalNutrientConcentration" NumberOfComponents="1" format="ascii">
 1.200e+03 1.200e+03 1.200e+03 1.200e+03 1.200e+03 1.200e+03 1.200e+03 1.200e+03 1.200e+03 1.200e+03 1.200e+03 1.200e+03 1.200e+03 1.200e+03 1.200e+03 1.200e+03 1.200e+03 1.200e+03 1.200e+03 1.200e+03 1.200e+03 1.200e+03 1.200e+03 1.200e+03 1.200e+03 1.200e+03 1.200e+03 1.200e+03 1.200e+03 1.200e+03 1.200e+03 1.200e+03 1.200e+03 1.200e+03 1.200e+03 1.200e+03 1.200e+03 1.200e+03 1.200e+03 1.200e+03 1.200e+03 1.200e+03 1.200e+03 1.200e+03 1.200e+03 1.200e+03 1.200e+03 1.200e+03 1.200e+03 1.200e+03 1.200e+03 1.200e+03 1.200e+03 1.200e+03 1.200e+03 1.200e+03 1.200e+03 1.200e+03 1.200e+03 1.200e+03 1.200e+03 1.200e+03 1.200e+03 1.200e+03 1.200e+03 1.200e+03 1.200e+03 1.200e+03 1.200e+03 1.200e+03 1.200e+03 1.200e+03 1.200e+03 1.200e+03 1.200e+03 1.200e+03 1.200e+03 1.200e+03 1.200e+03 1.200e+03 1.200e+03 1.200e+03 1.200e+03 1.200e+03 1.200e+03 1.200e+03 1.200e+03 1.200e+03 1.200e+03 1.200e+03 1.200e+03 1.200e+03 1.200e+03 1.200e+03 1.200e+03 1.200e+03 1.200e+03 1.200e+03 1.200e+03 1.200e+03 1.200e+03 1.200e+03 1.200e+03 1.200e+03 1.200e+03 1.200e+03 1.200e+03 1.200e+03 1.200e+03 1.200e+03 1.200e+03 1.200e+03 1.200e+03 1.200e+03 1.200e+03 1.200e+03 1.200e+03 1.200e+03 1.200e+03 1.200e+03 1.200e+03 1.200e+03 1.200e+03 1.200e+03 1.200e+03 1.200e+03 1.200e+03 1.200e+03 1.200e+03 1.200e+03 1.200e+03 1.200e+03 1.200e+03 1.200e+03 1.200e+03 1.200e+03 1.200e+03 1.200e+03 1.200e+03 1.200e+03 1.200e+03 1.200e+03 1.200e+03 1.200e+03 1.200e+03 1.200e+03 1.200e+03 1.200e+03 1.200e+03 1.200e+03 1.200e+03 1.200e+03 1.200e+03 1.200e+03 1.200e+03 1.200e+03 1.200e+03 1.200e+03 1.200e+03 1.200e+03 1.200e+03 1.200e+03 1.200e+03 1.200e+03 1.200e+03 1.200e+03 1.200e+03 1.200e+03 1.200e+03 1.200e+03 1.200e+03 1.200e+03 1.200e+03 1.200e+03 1.200e+03 1.200e+03 1.200e+03 1.200e+03 1.200e+03 1.200e+03 1.200e+03 1.200e+03
           </DataArray>
           <DataArray type="Float32" Name="nitrate/rootSegmentMinimalNutrientContent" NumberOfComponents="1" format="ascii">
 1.635e-01 1.811e-01 1.406e-01 1.646e-01 1.230e-01 1.337e-01 1.443e-01 7.615e-02 1.635e-01 1.811e-01 1.406e-01 1.646e-01 1.230e-01 1.337e-01 1.443e-01 7.615e-02 1.635e-01 1.811e-01 1.406e-01 1.646e-01 1.230e-01 1.337e-01 1.443e-01 7.615e-02 1.635e-01 1.811e-01 1.406e-01 1.646e-01 1.230e-01 1.337e-01 1.443e-01 7.615e-02 9.025e-02 9.025e-02 9.025e-02 9.025e-02 6.064e+00 5.477e+00 9.071e+00 4.653e+00 4.616e+00 6.835e+00 6.464e+00 6.546e+00 6.432e+00 1.821e+00 3.692e-02 3.305e-02 1.981e-02 3.650e-02 3.397e-02 2.036e-02 3.342e-02 3.672e-02 3.454e-02 3.290e-02 6.576e-03 3.336e-02 3.312e-02 6.621e-03 3.720e-02 2.404e-02 3.539e-02 2.363e-02 3.458e-02 3.529e-02 3.528e-03 3.477e-02 2.488e-02 3.330e-02 2.471e-02 3.647e-02 2.811e-02 3.561e-02 2.060e-02 3.571e-02 3.477e-02 5.790e-03 3.695e-02 1.749e-02 3.586e-02 2.231e-02 3.628e-02 1.840e-02 3.690e-02 1.941e-02 3.355e-02 1.034e-02 3.652e-02 5.017e-03 3.644e-02 2.159e-02 3.577e-02 1.671e-02 3.572e-02 5.378e-03 3.661e-02 5.695e-03 3.492e-02 3.525e-02 1.281e-02 3.621e-02 5.826e-03 3.723e-02 6.202e-03 3.450e-02 9.783e-03 3.626e-02 3.717e-02 3.299e-02 6.402e-03 3.489e-02 7.062e-03 3.681e-02 3.230e-02 3.019e-02 3.591e-02 3.430e-02 1.713e-02 3.098e-02 3.222e-02 2.764e-02 2.864e-02 2.468e-02 2.718e-02 2.189e-02 2.273e-02 2.001e-02 2.165e-02 3.421e-02 3.716e-02 6.188e-03 1.767e-02 1.484e-02 1.584e-02 1.300e-02 1.350e-02 1.120e-02 9.149e-03 9.722e-03 7.598e-03 5.853e-03 3.491e-02 3.287e-02 1.314e-02 6.198e-03 4.126e-03 2.957e-03 1.234e-03 3.533e-02 3.470e-02 6.306e-03 3.536e-02 3.044e-02 3.494e-02 3.111e-02 3.741e-02 1.102e-02 3.586e-01 3.469e-01 3.360e-01 3.259e-01 3.165e-01 3.078e-01 2.997e-01 2.923e-01 2.860e-01 2.808e-01 2.768e-01 2.734e-01 2.703e-01 2.674e-01 2.649e-01 2.626e-01 2.606e-01 2.588e-01 2.573e-01 2.561e-01 2.551e-01 2.544e-01 2.539e-01 8.457e-02
           </DataArray>
           <DataArray type="Float32" Name="nitrate/rootSegmentNutrientUptake" NumberOfComponents="1" format="ascii">
 0.000e+00 2.623e-01 2.262e-01 1.968e-01 1.496e-01 1.135e-01 6.759e-02 1.476e-02 0.000e+00 2.761e-01 2.197e-01 1.972e-01 1.429e-01 1.137e-01 6.901e-02 1.477e-02 0.000e+00 2.829e-01 2.358e-01 1.922e-01 1.482e-01 1.109e-01 6.348e-02 1.474e-02 0.000e+00 2.850e-01 2.178e-01 1.967e-01 1.461e-01 1.135e-01 6.899e-02 1.477e-02 0.000e+00 0.000e+00 0.000e+00 0.000e+00 0.000e+00 1.074e+00 9.399e-01 7.029e-01 5.790e-01 4.492e-01 2.730e-01 0.000e+00 0.000e+00 0.000e+00 0.000e+00 1.659e-01 3.006e-02 0.000e+00 1.660e-01 3.084e-02 0.000e+00 9.929e-02 0.000e+00 1.048e-01 4.261e-03 0.000e+00 1.051e-01 4.292e-03 0.000e+00 4.903e-02 0.000e+00 4.825e-02 0.000e+00 9.845e-02 1.523e-03 0.000e+00 5.099e-02 0.000e+00 5.070e-02 0.000e+00 5.782e-02 0.000e+00 3.571e-02 0.000e+00 1.236e-01 3.751e-03 0.000e+00 2.654e-02 0.000e+00 3.871e-02 0.000e+00 2.803e-02 0.000e+00 2.961e-02 0.000e+00 1.121e-02 0.000e+00 3.274e-03 0.000e+00 3.270e-02 0.000e+00 2.185e-02 0.000e+00 3.515e-03 0.000e+00 3.724e-03 0.000e+00 1.465e-01 1.386e-02 0.000e+00 3.812e-03 0.000e+00 4.051e-03 0.000e+00 8.560e-03 0.000e+00 0.000e+00 0.000e+00 4.201e-03 0.000e+00 4.637e-03 0.000e+00 0.000e+00 0.000e+00 0.000e+00 1.516e-01 2.226e-02 0.000e+00 0.000e+00 0.000e+00 0.000e+00 0.000e+00 0.000e+00 0.000e+00 0.000e+00 0.000e+00 0.000e+00 0.000e+00 1.241e-01 4.008e-03 0.000e+00 0.000e+00 0.000e+00 0.000e+00 0.000e+00 0.000e+00 0.000e+00 0.000e+00 0.000e+00 0.000e+00 0.000e+00 1.300e-01 1.420e-02 0.000e+00 0.000e+00 0.000e+00 0.000e+00 0.000e+00 1.102e-01 4.066e-03 0.000e+00 7.804e-02 0.000e+00 7.909e-02 0.000e+00 7.253e-03 0.000e+00 1.237e+00 1.225e+00 1.176e+00 1.169e+00 1.186e+00 1.107e+00 1.110e+00 1.149e+00 1.104e+00 1.015e+00 9.354e-01 8.554e-01 7.583e-01 7.247e-01 6.970e-01 6.295e-01 5.691e-01 4.871e-01 3.961e-01 3.040e-01 2.118e-01 1.083e-01 1.246e-02
           </DataArray>
           <DataArray type="Float32" Name="nitrate/rootSegmentOptimalNutrientContent" NumberOfComponents="1" format="ascii">
 3.270e-01 3.621e-01 2.812e-01 3.291e-01 2.460e-01 2.673e-01 2.886e-01 1.523e-01 3.270e-01 3.621e-01 2.812e-01 3.291e-01 2.460e-01 2.673e-01 2.886e-01 1.523e-01 3.270e-01 3.621e-01 2.812e-01 3.291e-01 2.460e-01 2.673e-01 2.886e-01 1.523e-01 3.270e-01 3.621e-01 2.812e-01 3.291e-01 2.460e-01 2.673e-01 2.886e-01 1.523e-01 1.805e-01 1.805e-01 1.805e-01 1.805e-01 1.213e+01 1.095e+01 1.814e+01 9.306e+00 9.233e+00 1.367e+01 1.293e+01 1.309e+01 1.286e+01 3.643e+00 7.385e-02 6.611e-02 3.963e-02 7.300e-02 6.794e-02 4.073e-02 6.684e-02 7.343e-02 6.908e-02 6.580e-02 1.315e-02 6.672e-02 6.625e-02 1.324e-02 7.440e-02 4.808e-02 7.078e-02 4.727e-02 6.916e-02 7.059e-02 7.055e-03 6.953e-02 4.976e-02 6.659e-02 4.943e-02 7.294e-02 5.623e-02 7.123e-02 4.119e-02 7.142e-02 6.953e-02 1.158e-02 7.391e-02 3.497e-02 7.172e-02 4.462e-02 7.256e-02 3.681e-02 7.380e-02 3.883e-02 6.710e-02 2.068e-02 7.304e-02 1.003e-02 7.288e-02 4.318e-02 7.155e-02 3.342e-02 7.144e-02 1.076e-02 7.322e-02 1.139e-02 6.984e-02 7.051e-02 2.562e-02 7.242e-02 1.165e-02 7.446e-02 1.240e-02 6.900e-02 1.957e-02 7.251e-02 7.434e-02 6.598e-02 1.280e-02 6.978e-02 1.412e-02 7.361e-02 6.460e-02 6.038e-02 7.182e-02 6.860e-02 3.427e-02 6.196e-02 6.444e-02 5.529e-02 5.729e-02 4.935e-02 5.435e-02 4.379e-02 4.545e-02 4.002e-02 4.330e-02 6.841e-02 7.431e-02 1.238e-02 3.533e-02 2.969e-02 3.169e-02 2.600e-02 2.701e-02 2.239e-02 1.830e-02 1.944e-02 1.520e-02 1.171e-02 6.983e-02 6.574e-02 2.628e-02 1.240e-02 8.251e-03 5.914e-03 2.468e-03 7.066e-02 6.941e-02 1.261e-02 7.072e-02 6.087e-02 6.988e-02 6.223e-02 7.482e-02 2.205e-02 7.172e-01 6.939e-01 6.721e-01 6.518e-01 6.330e-01 6.155e-01 5.994e-01 5.847e-01 5.720e-01 5.617e-01 5.535e-01 5.467e-01 5.405e-01 5.349e-01 5.298e-01 5.252e-01 5.212e-01 5.176e-01 5.147e-01 5.122e-01 5.102e-01 5.088e-01 5.079e-01 1.691e-01
           </DataArray>
           <DataArray type="Float32" Name="parentRootClassID" NumberOfComponents="1" format="ascii">