<?xml version="1.0"?>
<VTKFile type="UnstructuredGrid" version="0.1" byte_order="LittleEndian">
   <UnstructuredGrid>
      <Piece NumberOfPoints="59490" NumberOfCells="4336">
         <Points>
            <DataArray type="Float32" Name="Position" NumberOfComponents="3" format="ascii">
0.068	-5.032	-0.142
0.072	-5.030	-0.134
0.070	-5.028	-0.125
0.063	-5.027	-0.119
0.053	-5.027	-0.119
0.045	-5.028	-0.124
0.042	-5.030	-0.132
0.044	-5.032	-0.141
0.051	-5.034	-0.146
0.061	-5.034	-0.147
0.079	-5.886	0.066
0.082	-5.884	0.074
0.080	-5.881	0.083
0.073	-5.880	0.088
0.063	-5.879	0.089
0.056	-5.880	0.084
0.052	-5.883	0.075
0.055	-5.885	0.067
0.062	-5.887	0.061
0.071	-5.887	0.061
0.023	-6.708	0.325
0.026	-6.705	0.333
0.023	-6.702	0.342
0.016	-6.699	0.347
0.007	-6.699	0.347
-0.001	-6.701	0.342
-0.004	-6.704	0.334
-0.001	-6.707	0.326
0.006	-6.709	0.320
0.015	-6.709	0.320
0.056	-7.496	0.663
0.059	-7.492	0.671
0.056	-7.488	0.680
0.049	-7.487	0.685
0.040	-7.487	0.685
0.032	-7.489	0.681
0.029	-7.493	0.673
0.031	-7.497	0.665
0.039	-7.498	0.659
0.048	-7.498	0.659
0.077	-7.744	0.774
0.080	-7.740	0.782
0.077	-7.737	0.790
0.070	-7.735	0.796
0.061	-7.736	0.796
0.053	-7.738	0.792
0.050	-7.742	0.784
0.052	-7.746	0.776
0.060	-7.747	0.770
0.069	-7.747	0.770
0.108	-5.081	-0.272
0.108	-5.076	-0.264
0.108	-5.076	-0.255
0.106	-5.082	-0.248
0.106	-5.091	-0.246
0.105	-5.100	-0.250
0.105	-5.105	-0.257
0.106	-5.104	-0.267
0.107	-5.098	-0.274
0.108	-5.089	-0.276
0.946	-5.157	-0.210
0.946	-5.152	-0.202
0.945	-5.152	-0.193
0.944	-5.158	-0.186
0.943	-5.167	-0.184
0.942	-5.176	-0.187
0.942	-5.181	-0.195
0.943	-5.180	-0.204
0.944	-5.174	-0.211
0.946	-5.165	-0.214
1.781	-5.274	-0.135
1.782	-5.270	-0.127
1.781	-5.270	-0.118
1.780	-5.276	-0.111
1.779	-5.285	-0.109
1.778	-5.294	-0.112
1.778	-5.298	-0.120
1.778	-5.298	-0.129
1.779	-5.292	-0.136
1.780	-5.283	-0.138
2.624	-5.365	-0.146
2.623	-5.360	-0.138
2.622	-5.360	-0.129
2.620	-5.366	-0.122
2.619	-5.374	-0.119
2.618	-5.383	-0.122
2.618	-5.388	-0.130
2.620	-5.388	-0.139
2.621	-5.383	-0.146
2.623	-5.374	-0.149
3.432	-5.503	0.098
3.432	-5.496	0.103
3.428	-5.493	0.112
3.424	-5.495	0.119
3.419	-5.502	0.123
3.417	-5.511	0.122
3.417	-5.519	0.116
3.421	-5.521	0.108
3.426	-5.519	0.101
3.430	-5.512	0.097
3.693	-5.651	0.318
3.693	-5.643	0.322
3.689	-5.639	0.330
3.683	-5.639	0.337
3.677	-5.645	0.340
3.673	-5.653	0.340
3.672	-5.661	0.335
3.676	-5.666	0.328
3.682	-5.665	0.321
3.689	-5.659	0.317
0.446	-5.990	-1.184
0.454	-5.988	-1.179
0.461	-5.991	-1.174
0.465	-5.998	-1.171
0.465	-6.007	-1.171
0.460	-6.015	-1.174
0.453	-6.018	-1.179
0.446	-6.015	-1.184
0.441	-6.007	-1.187
0.442	-5.998	-1.187
0.926	-6.009	-1.879
0.934	-6.007	-1.874
0.941	-6.010	-1.869
0.945	-6.017	-1.866
0.945	-6.026	-1.866
0.940	-6.034	-1.869
0.933	-6.037	-1.874
0.926	-6.034	-1.879
0.921	-6.026	-1.882
0.922	-6.017	-1.882
1.445	-6.064	-2.587
1.452	-6.061	-2.582
1.460	-6.064	-2.577
1.463	-6.072	-2.573
1.462	-6.081	-2.572
1.457	-6.088	-2.574
1.449	-6.091	-2.579
1.442	-6.088	-2.584
1.438	-6.080	-2.588
1.439	-6.071	-2.589
1.866	-6.288	-3.325
1.874	-6.286	-3.320
1.881	-6.289	-3.315
1.884	-6.297	-3.311
1.883	-6.306	-3.309
1.877	-6.313	-3.311
1.869	-6.315	-3.315
1.862	-6.312	-3.320
1.858	-6.304	-3.324
1.860	-6.295	-3.326
2.292	-6.494	-4.025
2.301	-6.492	-4.020
2.307	-6.495	-4.015
2.309	-6.503	-4.009
2.306	-6.511	-4.007
2.300	-6.518	-4.008
2.292	-6.519	-4.012
2.285	-6.516	-4.018
2.283	-6.509	-4.023
2.286	-6.500	-4.026
2.483	-6.713	-4.299
2.487	-6.713	-4.291
2.485	-6.713	-4.281
2.479	-6.713	-4.275
2.470	-6.713	-4.273
2.461	-6.713	-4.278
2.457	-6.713	-4.286
2.459	-6.713	-4.295
2.465	-6.713	-4.302
2.474	-6.713	-4.303
1.781	-18.875	-4.367
1.784	-18.867	-4.365
1.781	-18.858	-4.362
1.774	-18.853	-4.360
1.764	-18.853	-4.359
1.757	-18.859	-4.359
1.754	-18.867	-4.361
1.757	-18.876	-4.364
1.764	-18.881	-4.366
1.773	-18.881	-4.367
1.882	-19.087	-3.542
1.885	-19.078	-3.540
1.882	-19.070	-3.538
1.875	-19.064	-3.536
1.866	-19.064	-3.535
1.858	-19.070	-3.536
1.855	-19.078	-3.537
1.858	-19.087	-3.540
1.865	-19.092	-3.541
1.874	-19.092	-3.542
1.914	-19.218	-2.922
1.918	-19.209	-2.921
1.915	-19.201	-2.919
1.908	-19.195	-2.917
1.899	-19.195	-2.917
1.891	-19.200	-2.917
1.888	-19.208	-2.919
1.890	-19.217	-2.921
1.897	-19.223	-2.922
1.907	-19.223	-2.923
1.758	-19.005	-4.376
1.766	-19.002	-4.379
1.775	-19.004	-4.380
1.781	-19.011	-4.380
1.783	-19.020	-4.378
1.778	-19.027	-4.375
1.770	-19.031	-4.372
1.761	-19.029	-4.371
1.755	-19.022	-4.371
1.754	-19.013	-4.373
1.589	-19.221	-5.175
1.598	-19.218	-5.177
1.606	-19.221	-5.177
1.612	-19.228	-5.176
1.613	-19.237	-5.173
1.608	-19.244	-5.170
1.599	-19.247	-5.168
1.590	-19.244	-5.168
1.584	-19.237	-5.169
1.584	-19.228	-5.172
1.555	-19.449	-5.889
1.564	-19.447	-5.890
1.573	-19.450	-5.890
1.578	-19.457	-5.888
1.578	-19.466	-5.885
1.572	-19.473	-5.882
1.563	-19.475	-5.881
1.554	-19.472	-5.882
1.549	-19.465	-5.884
1.549	-19.456	-5.887
1.780	-19.174	-4.392
1.783	-19.166	-4.388
1.780	-19.158	-4.384
1.772	-19.153	-4.381
1.763	-19.153	-4.381
1.756	-19.158	-4.384
1.753	-19.166	-4.388
1.756	-19.173	-4.392
1.763	-19.178	-4.395
1.772	-19.178	-4.395
1.771	-19.594	-3.618
1.774	-19.586	-3.613
1.771	-19.579	-3.608
1.763	-19.575	-3.605
1.754	-19.576	-3.604
1.746	-19.581	-3.607
1.744	-19.588	-3.612
1.747	-19.595	-3.617
1.754	-19.599	-3.620
1.764	-19.599	-3.621
1.868	-19.968	-3.183
1.870	-19.961	-3.178
1.867	-19.955	-3.172
1.860	-19.952	-3.167
1.850	-19.953	-3.166
1.843	-19.958	-3.169
1.841	-19.965	-3.175
1.844	-19.972	-3.181
1.851	-19.975	-3.185
1.860	-19.974	-3.186
1.768	-19.306	-4.415
1.773	-19.302	-4.407
1.775	-19.304	-4.398
1.774	-19.310	-4.391
1.770	-19.318	-4.389
1.764	-19.325	-4.392
1.760	-19.328	-4.399
1.758	-19.326	-4.408
1.759	-19.321	-4.415
1.763	-19.313	-4.418
2.464	-19.733	-4.649
2.468	-19.729	-4.642
2.470	-19.731	-4.633
2.469	-19.737	-4.626
2.465	-19.745	-4.623
2.461	-19.752	-4.627
2.456	-19.756	-4.634
2.454	-19.754	-4.643
2.456	-19.748	-4.650
2.459	-19.740	-4.652
2.822	-19.898	-4.747
2.826	-19.895	-4.739
2.827	-19.896	-4.730
2.826	-19.902	-4.723
2.823	-19.910	-4.721
2.819	-19.918	-4.724
2.815	-19.922	-4.732
2.813	-19.920	-4.741
2.814	-19.914	-4.748
2.817	-19.906	-4.750
1.766	-19.454	-4.430
1.770	-19.451	-4.423
1.772	-19.452	-4.414
1.771	-19.458	-4.407
1.768	-19.467	-4.404
1.763	-19.474	-4.408
1.759	-19.478	-4.415
1.757	-19.476	-4.424
1.758	-19.470	-4.431
1.762	-19.462	-4.433
2.502	-19.813	-4.655
2.507	-19.809	-4.648
2.509	-19.811	-4.639
2.508	-19.817	-4.632
2.505	-19.825	-4.630
2.500	-19.833	-4.633
2.496	-19.836	-4.641
2.494	-19.835	-4.649
2.494	-19.828	-4.656
2.498	-19.820	-4.658
3.210	-20.163	-4.923
3.214	-20.160	-4.915
3.217	-20.162	-4.906
3.216	-20.168	-4.900
3.213	-20.176	-4.897
3.208	-20.184	-4.900
3.203	-20.187	-4.908
3.201	-20.185	-4.917
3.202	-20.179	-4.923
3.205	-20.171	-4.926
1.769	-19.626	-4.428
1.770	-19.619	-4.422
1.769	-19.610	-4.420
1.765	-19.602	-4.424
1.760	-19.599	-4.432
1.757	-19.601	-4.440
1.756	-19.608	-4.446
1.757	-19.617	-4.447
1.761	-19.625	-4.443
1.766	-19.628	-4.436
1.028	-19.822	-4.052
1.029	-19.815	-4.047
1.028	-19.805	-4.046
1.024	-19.798	-4.050
1.020	-19.795	-4.057
1.017	-19.797	-4.066
1.015	-19.804	-4.071
1.017	-19.814	-4.072
1.020	-19.821	-4.068
1.025	-19.824	-4.061
0.246	-19.942	-3.726
0.247	-19.935	-3.720
0.246	-19.926	-3.719
0.243	-19.918	-3.724
0.239	-19.915	-3.732
0.236	-19.918	-3.740
0.235	-19.925	-3.746
0.236	-19.935	-3.746
0.239	-19.942	-3.742
0.243	-19.945	-3.734
1.766	-19.775	-4.438
1.766	-19.769	-4.431
1.763	-19.761	-4.428
1.759	-19.753	-4.432
1.754	-19.749	-4.439
1.752	-19.751	-4.448
1.752	-19.757	-4.454
1.754	-19.766	-4.457
1.759	-19.773	-4.454
1.763	-19.777	-4.446
1.001	-20.100	-4.142
1.001	-20.093	-4.136
1.000	-20.084	-4.135
0.996	-20.077	-4.139
0.992	-20.073	-4.147
0.990	-20.076	-4.156
0.989	-20.083	-4.162
0.991	-20.092	-4.163
0.995	-20.099	-4.159
0.998	-20.102	-4.151
0.718	-20.125	-4.040
0.720	-20.118	-4.034
0.719	-20.109	-4.034
0.716	-20.101	-4.039
0.713	-20.098	-4.047
0.710	-20.101	-4.056
0.709	-20.109	-4.061
0.710	-20.118	-4.061
0.712	-20.126	-4.056
0.716	-20.128	-4.048
1.767	-19.919	-4.458
1.768	-19.909	-4.457
1.764	-19.902	-4.453
1.757	-19.898	-4.449
1.748	-19.900	-4.446
1.742	-19.907	-4.445
1.741	-19.916	-4.446
1.744	-19.924	-4.450
1.752	-19.928	-4.454
1.760	-19.925	-4.457
2.107	-20.099	-3.671
2.108	-20.091	-3.669
2.104	-20.083	-3.664
2.097	-20.081	-3.659
2.089	-20.083	-3.656
2.083	-20.090	-3.656
2.081	-20.099	-3.658
2.085	-20.106	-3.663
2.093	-20.109	-3.667
2.101	-20.107	-3.671
2.317	-20.275	-3.304
2.318	-20.266	-3.301
2.314	-20.260	-3.296
2.307	-20.257	-3.291
2.299	-20.261	-3.287
2.293	-20.268	-3.288
2.292	-20.276	-3.291
2.296	-20.283	-3.296
2.303	-20.285	-3.302
2.311	-20.282	-3.305
1.743	-20.051	-4.463
1.751	-20.048	-4.462
1.760	-20.050	-4.461
1.766	-20.057	-4.460
1.767	-20.066	-4.459
1.762	-20.074	-4.459
1.753	-20.077	-4.460
1.745	-20.075	-4.461
1.739	-20.068	-4.462
1.738	-20.059	-4.463
1.849	-20.101	-5.338
1.858	-20.098	-5.339
1.867	-20.100	-5.338
1.873	-20.107	-5.337
1.874	-20.116	-5.336
1.869	-20.124	-5.335
1.860	-20.127	-5.335
1.851	-20.125	-5.336
1.845	-20.118	-5.337
1.845	-20.109	-5.338
1.848	-20.197	-5.917
1.852	-20.197	-5.908
1.850	-20.197	-5.899
1.844	-20.197	-5.893
1.835	-20.197	-5.891
1.826	-20.197	-5.895
1.822	-20.197	-5.904
1.824	-20.197	-5.913
1.830	-20.197	-5.919
1.839	-20.197	-5.921
1.757	-20.204	-4.483
1.757	-20.198	-4.475
1.756	-20.198	-4.466
1.753	-20.203	-4.459
1.751	-20.212	-4.456
1.750	-20.221	-4.459
1.750	-20.226	-4.467
1.751	-20.226	-4.476
1.753	-20.221	-4.483
1.755	-20.213	-4.486
2.587	-20.389	-4.362
2.587	-20.384	-4.354
2.587	-20.384	-4.345
2.585	-20.390	-4.337
2.583	-20.398	-4.335
2.581	-20.407	-4.338
2.580	-20.412	-4.346
2.581	-20.412	-4.355
2.583	-20.406	-4.362
2.585	-20.398	-4.365
2.767	-20.435	-4.363
2.768	-20.430	-4.355
2.768	-20.431	-4.346
2.767	-20.437	-4.339
2.765	-20.445	-4.336
2.762	-20.454	-4.340
2.761	-20.458	-4.347
2.761	-20.458	-4.357
2.763	-20.452	-4.364
2.765	-20.443	-4.366
0.499	-6.131	-1.265
0.502	-6.124	-1.260
0.499	-6.116	-1.256
[...]
         <CellData>
           <DataArray type="Float32" Name="combinedRootClassID" NumberOfComponents="1" format="ascii">
 -1.300e+01 -1.300e+01 -1.300e+01 -1.300e+01 -1.300e+01 -1.300e+01 -1.300e+01 -1.300e+01 -1.300e+01 -1.300e+01 -1.300e+01 -1.300e+01 -1.300e+01 -1.300e+01 -1.300e+01 -1.300e+01 -1.300e+01 -1.300e+01 -1.300e+01 -1.300e+01 -1.300e+01 -1.300e+01 -1.300e+01 -1.300e+01 -1.300e+01 -1.300e+01 -1.300e+01 -1.300e+01 -1.300e+01 -1.300e+01 -1.300e+01 -1.300e+01 -1.300e+01 -1.300e+01 -1.300e+01 -1.300e+01 -1.300e+01 -1.300e+01 -1.300e+01 -1.300e+01 -1.300e+01 -1.300e+01 -1.300e+01 -1.300e+01 -1.300e+01 -1.300e+01 -1.300e+01 -1.300e+01 -1.300e+01 -1.300e+01 -1.300e+01 -1.300e+01 -1.300e+01 -1.300e+01 -1.300e+01 -1.300e+01 -1.300e+01 -1.300e+01 -1.300e+01 -1.300e+01 -1.300e+01 -1.300e+01 -1.300e+01 -1.300e+01 -1.300e+01 -1.300e+01 -1.300e+01 -1.300e+01 -1.300e+01 -1.300e+01 -1.300e+01 -1.300e+01 -1.300e+01 -1.300e+01 -1.300e+01 -1.300e+01 -1.300e+01 -1.300e+01 -1.300e+01 -1.300e+01 -1.300e+01 -1.300e+01 -1.300e+01 -1.300e+01 -1.300e+01 -1.300e+01 -1.300e+01 -1.300e+01 -1.300e+01 -1.300e+01 -1.300e+01 -1.300e+01 -1.300e+01 -1.300e+01 -1.300e+01 -1.300e+01 -1.300e+01 -1.300e+01 -1.300e+01 -1.300e+01 -1.300e+01 -1.300e+01 -1.300e+01 -1.300e+01 -1.300e+01 -1.300e+01 -1.300e+01 -1.300e+01 -1.300e+01 -1.300e+01 -1.300e+01 -1.300e+01 -1.300e+01 -1.300e+01 -1.300e+01 -1.300e+01 -1.300e+01 -1.300e+01 -1.300e+01 -1.300e+01 -1.300e+01 -1.300e+01 -1.300e+01 -1.300e+01 -1.300e+01 -1.300e+01 -1.300e+01 -1.300e+01 -1.300e+01 -1.300e+01 -1.300e+01 -1.300e+01 -1.300e+01 -1.300e+01 -1.300e+01 -1.300e+01 -1.300e+01 -1.300e+01 -1.300e+01 -1.300e+01 -1.300e+01 -1.300e+01 -1.300e+01 -1.300e+01 -1.300e+01 -1.300e+01 -1.300e+01 -1.300e+01 -1.300e+01 -1.300e+01 -1.300e+01 -1.300e+01 -1.300e+01 -1.300e+01 -1.300e+01 -1.300e+01 -1.300e+01 -1.300e+01 -1.300e+01 -1.300e+01 -1.300e+01 -1.300e+01 -1.300e+01 -1.300e+01 -1.300e+01 -1.300e+01 -1.300e+01 -1.300e+01 -1.300e+01 -1.300e+01 -1.300e+01 -1.300e+01 -1.300e+01 -1.300e+01 -1.300e+01 -1.300e+01 -1.300e+01 -1.300e+01 -1.300e+01 -1.300e+01 -1.300e+01 -1.300e+01 -1.300e+01 -1.300e+01 -1.300e+01 -1.300e+01 -1.300e+01 -1.300e+01 -1.300e+01 -1.300e+01 -1.300e+01 -1.300e+01 -1.300e+01 -1.300e+01 -1.300e+01 -1.300e+01 -1.300e+01 -1.300e+01 -1.300e+01 -1.300e+01 -1.300e+01 -1.300e+01 -1.300e+01 -1.300e+01 -1.300e+01 -1.300e+01 -1.300e+01 -1.300e+01 -1.300e+01 -1.300e+01 -1.300e+01 -1.300e+01 -1.300e+01 -1.300e+01 -1.300e+01 -1.300e+01 -1.300e+01 -1.300e+01 -1.300e+01 -1.300e+01 -1.300e+01 -1.300e+01 -1.300e+01 -1.300e+01 -1.300e+01 -1.300e+01 -1.300e+01 -1.300e+01 -1.300e+01 -1.300e+01 -1.300e+01 -1.300e+01 -1.300e+01 -1.300e+01 -1.300e+01 -1.300e+01 -1.300e+01 -1.300e+01 -1.300e+01 -1.300e+01 -1.300e+01 -1.300e+01 -1.300e+01 -1.300e+01 -1.300e+01 -1.300e+01 -1.300e+01 -1.300e+01 -1.300e+01 -1.300e+01 -1.300e+01 -1.300e+01 -1.300e+01 -1.300e+01 -1.300e+01 -1.300e+01 -1.300e+01 -1.300e+01 -1.300e+01 -1.300e+01 -1.300e+01 -1.300e+01 -1.300e+01 -1.300e+01 -1.300e+01 -1.300e+01 -1.300e+01 -1.300e+01 -1.300e+01 -1.300e+01 -1.300e+01 -1.300e+01 -1.300e+01 -1.300e+01 -1.300e+01 -1.300e+01 -1.300e+01 -1.300e+01 -1.300e+01 -1.300e+01 -1.300e+01 -1.300e+01 -1.300e+01 -1.300e+01 -1.300e+01 -1.300e+01 -1.300e+01 -1.300e+01 -1.300e+01 -1.300e+01 -1.300e+01 -1.300e+01 -1.300e+01 -1.300e+01 -1.300e+01 -1.300e+01 -1.300e+01 -1.300e+01 -1.300e+01 -1.300e+01 -1.300e+01 -1.300e+01 -1.300e+01 -1.300e+01 -1.300e+01 -1.300e+01 -1.300e+01 -1.300e+01 -1.300e+01 -1.300e+01 -1.300e+01 -1.300e+01 -1.300e+01 -1.300e+01 -1.300e+01 -1.300e+01 -1.300e+01 -1.300e+01 -1.300e+01 -1.300e+01 -1.300e+01 -1.300e+01 -1.300e+01 -1.300e+01 -1.300e+01 -1.300e+01 -1.300e+01 -1.300e+01 -1.300e+01 -1.300e+01 -1.300e+01 -1.300e+01 -1.300e+01 -1.300e+01 -1.300e+01 -1.300e+01 -1.300e+01 -1.300e+01 -1.300e+01 -1.300e+01 -1.300e+01 -1.300e+01 -1.300e+01 -1.300e+01 -1.300e+01 -1.300e+01 -1.300e+01 -1.300e+01 -1.300e+01 -1.300e+01 -1.300e+01 -1.300e+01 -1.300e+01 -1.300e+01 -1.300e+01 -1.300e+01 -1.300e+01 -1.300e+01 -1.300e+01 -1.300e+01 -1.300e+01 -1.300e+01 -1.300e+01 -1.300e+01 -1.300e+01 -1.300e+01 -1.300e+01 -1.300e+01 -1.300e+01 -1.300e+01 -1.300e+01 -1.300e+01 -1.300e+01 -1.300e+01 -1.300e+01 -1.300e+01 -1.300e+01 -1.300e+01 -1.300e+01 -1.300e+01 -1.300e+01 -1.300e+01 -1.300e+01 -1.300e+01 -1.300e+01 -1.300e+01 -1.300e+01 -1.300e+01 -1.300e+01 -1.300e+01 -1.300e+01 -1.300e+01 -1.300e+01 -1.300e+01 -1.300e+01 -1.300e+01 -1.300e+01 -1.300e+01 -1.300e+01 -1.300e+01 -1.300e+01 -1.300e+01 -1.300e+01 -1.300e+01 -1.300e+01 -1.300e+01 -1.300e+01 -1.300e+01 -1.300e+01 -1.300e+01 -1.300e+01 -1.300e+01 -1.300e+01 -1.300e+01 -1.300e+01 -1.300e+01 -1.300e+01 -1.300e+01 -1.300e+01 -1.300e+01 -1.300e+01 -1.300e+01 -1.300e+01 -1.300e+01 -1.300e+01 -1.300e+01 -1.300e+01 -1.300e+01 -1.300e+01 -1.300e+01 -1.300e+01 -1.300e+01 -1.300e+01 -1.300e+01 -1.300e+01 -1.300e+01 -1.300e+01 -1.300e+01 -1.300e+01 -1.300e+01 -1.300e+01 -1.300e+01 -1.300e+01 -1.300e+01 -1.300e+01 -1.300e+01 -1.300e+01 -1.300e+01 -1.300e+01 -1.300e+01 -1.300e+01 -1.300e+01 -5.000e+00 -5.000e+00 -5.000e+00 -5.000e+00 -5.000e+00 -5.000e+00 -5.000e+00 -5.000e+00 -5.000e+00 -5.000e+00 -5.000e+00 -5.000e+00 -5.000e+00 -5.000e+00 -5.000e+00 -5.000e+00 -5.000e+00 -5.000e+00 -5.000e+00 -5.000e+00 -5.000e+00 -5.000e+00 -5.000e+00 -5.000e+00 -5.000e+00 -5.000e+00 -5.000e+00 -5.000e+00 -5.000e+00 -5.000e+00 -5.000e+00 -5.000e+00 -5.000e+00 -5.000e+00 -5.000e+00 -5.000e+00 -5.000e+00 -5.000e+00 -5.000e+00 -5.000e+00 -5.000e+00 -5.000e+00 -5.000e+00 -1.300e+01 -1.300e+01 -1.300e+01 -1.300e+01 -1.300e+01 -1.300e+01 -1.300e+01 -1.300e+01 -1.300e+01 -1.300e+01 -1.300e+01 -1.300e+01 -1.300e+01 -1.300e+01 -1.300e+01 -1.300e+01 -1.300e+01 -1.300e+01 -1.300e+01 -1.300e+01 -1.300e+01 -1.300e+01 -1.300e+01 -1.300e+01 -1.300e+01 -1.300e+01 -1.300e+01 -1.300e+01 -1.300e+01 -1.300e+01 -1.300e+01 -1.300e+01 -1.300e+01 -1.300e+01 -1.300e+01 -1.300e+01 -1.300e+01 -1.300e+01 -1.300e+01 -1.300e+01 -1.300e+01 -1.300e+01 -1.300e+01 -1.300e+01 -1.300e+01 -1.300e+01 -1.300e+01 -1.300e+01 -1.300e+01 -1.300e+01 -1.300e+01 -1.300e+01 -1.300e+01 -1.300e+01 -1.300e+01 -1.300e+01 -1.300e+01 -1.300e+01 -1.300e+01 -1.300e+01 -1.300e+01 -1.300e+01 -1.300e+01 -1.300e+01 -1.300e+01 -1.300e+01 -1.300e+01 -1.300e+01 -1.300e+01 -1.300e+01 -1.300e+01 -1.300e+01 -1.300e+01 -1.300e+01 -1.300e+01 -1.300e+01 -1.300e+01 -1.300e+01 -1.300e+01 -1.300e+01 -1.300e+01 -1.300e+01 -1.300e+01 -1.300e+01 -1.300e+01 -1.300e+01 -1.300e+01 -1.300e+01 -1.300e+01 -1.300e+01 -1.300e+01 -1.300e+01 -1.300e+01 -1.300e+01 -1.300e+01 -1.300e+01 -1.300e+01 -1.300e+01 -1.300e+01 -1.300e+01 -1.300e+01 -1.300e+01 -1.300e+01 -1.300e+01 -1.300e+01 -1.300e+01 -1.300e+01 -1.300e+01 -1.300e+01 -1.300e+01 -1.300e+01 -1.300e+01 -1.300e+01 -1.300e+01 -1.300e+01 -1.300e+01 -1.300e+01 -1.300e+01 -1.300e+01 -1.300e+01 -1.300e+01 -1.300e+01 -1.300e+01 -1.300e+01 -1.300e+01 -1.300e+01 -1.300e+01 -1.300e+01 -1.300e+01 -1.300e+01 -1.300e+01 -1.300e+01 -1.300e+01 -1.300e+01 -1.300e+01 -1.300e+01 -1.300e+01 -1.300e+01 -1.300e+01 -1.300e+01 -1.300e+01 -1.300e+01 -1.300e+01 -1.300e+01 -1.300e+01 -1.300e+01 -1.300e+01 -1.300e+01 -1.300e+01 -1.300e+01 -1.300e+01 -1.300e+01 -1.300e+01 -1.300e+01 -1.300e+01 -1.300e+01 -1.300e+01 -1.300e+01 -1.300e+01 -1.300e+01 -1.300e+01 -1.300e+01 -1.300e+01 -1.300e+01 -1.300e+01 -1.300e+01 -1.300e+01 -1.300e+01 -1.300e+01 -1.300e+01 -1.300e+01 -1.300e+01 -1.300e+01 -1.300e+01 -1.300e+01 -1.300e+01 -1.300e+01 -1.300e+01 -1.300e+01 -1.300e+01 -1.300e+01 -1.300e+01 -1.300e+01 -1.300e+01 -1.300e+01 -1.300e+01 -1.300e+01 -1.300e+01 -1.300e+01 -1.300e+01 -1.300e+01 -1.300e+01 -1.300e+01 -1.300e+01 -1.300e+01 -1.300e+01 -1.300e+01 -1.300e+01 -1.300e+01 -1.300e+01 -1.300e+01 -1.300e+01 -1.300e+01 -1.300e+01 -1.300e+01 -1.300e+01 -1.300e+01 -1.300e+01 -1.300e+01 -1.300e+01 -1.300e+01 -1.300e+01 -1.300e+01 -1.300e+01 -1.300e+01 -1.300e+01 -1.300e+01 -1.300e+01 -1.300e+01 -1.300e+01 -1.300e+01 -1.300e+01 -1.300e+01 -1.300e+01 -1.300e+01 -1.300e+01 -1.300e+01 -1.300e+01 -1.300e+01 -1.300e+01 -1.300e+01 -1.300e+01 -1.300e+01 -1.300e+01 -1.300e+01 -1.300e+01 -1.300e+01 -1.300e+01 -1.300e+01 -1.300e+01 -1.300e+01 -1.300e+01 -1.300e+01 -1.300e+01 -1.300e+01 -1.300e+01 -1.300e+01 -1.300e+01 -1.300e+01 -1.300e+01 -1.300e+01 -1.300e+01 -1.300e+01 -1.300e+01 -1.300e+01 -1.300e+01 -1.300e+01 -1.300e+01 -1.300e+01 -1.300e+01 -1.300e+01 -1.300e+01 -1.300e+01 -1.300e+01 -1.300e+01 -1.300e+01 -1.300e+01 -1.300e+01 -1.300e+01 -1.300e+01 -1.300e+01 -1.300e+01 -1.300e+01 -1.300e+01 -1.300e+01 -1.300e+01 -1.300e+01 -1.300e+01 -1.300e+01 -1.300e+01 -1.300e+01 -1.300e+01 -1.300e+01 -1.300e+01 -1.300e+01 -1.300e+01 -1.300e+01 -1.300e+01 -1.300e+01 -1.300e+01 -1.300e+01 -1.300e+01 -1.300e+01 -1.300e+01 -1.300e+01 -1.300e+01 -1.300e+01 -1.300e+01 -1.300e+01 -1.300e+01 -1.300e+01 -1.300e+01 -1.300e+01 -1.300e+01 -1.300e+01 -1.300e+01 -1.300e+01 -1.300e+01 -1.300e+01 -1.300e+01 -1.300e+01 -1.300e+01 -1.300e+01 -1.300e+01 -1.300e+01 -1.300e+01 -1.300e+01 -1.300e+01 -1.300e+01 -1.300e+01 -1.300e+01 -1.300e+01 -1.300e+01 -1.300e+01 -1.300e+01 -1.300e+01 -1.300e+01 -1.300e+01 -1.300e+01 -1.300e+01 -1.300e+01 -1.300e+01 -1.300e+01 -1.300e+01 -1.300e+01 -1.300e+01 -1.300e+01 -1.300e+01 -1.300e+01 -1.300e+01 -1.300e+01 -1.300e+01 -1.300e+01 -1.300e+01 -1.300e+01 -1.300e+01 -1.300e+01 -1.300e+01 -1.300e+01 -1.300e+01 -1.300e+01 -1.300e+01 -1.300e+01 -1.300e+01 -1.300e+01 -1.300e+01 -1.300e+01 -1.300e+01 -1.300e+01 -1.300e+01 -1.300e+01 -1.300e+01 -1.300e+01 -1.300e+01 -1.300e+01 -1.300e+01 -1.300e+01 -1.300e+01 -1.300e+01 -1.300e+01 -1.300e+01 -1.300e+01 -1.300e+01 -1.300e+01 -1.300e+01 -1.300e+01 -1.300e+01 -1.300e+01 -1.300e+01 -1.300e+01 -1.300e+01 -1.300e+01 -1.300e+01 -1.300e+01 -1.300e+01 -1.300e+01 -1.300e+01 -1.300e+01 -1.300e+01 -1.300e+01 -1.300e+01 -1.300e+01 -1.300e+01 -1.300e+01 -1.300e+01 -1.300e+01 -1.300e+01 -1.300e+01 -1.300e+01 -1.300e+01 -1.300e+01 -1.300e+01 -1.300e+01 -1.300e+01 -1.300e+01 -1.300e+01 -1.300e+01 -1.300e+01 -1.300e+01 -1.300e+01 -1.300e+01 -1.300e+01 -1.300e+01 -1.300e+01 -1.300e+01 -1.300e+01 -1.300e+01 -1.300e+01 -1.300e+01 -1.300e+01 -1.300e+01 -1.300e+01 -1.300e+01 -1.300e+01 -1.300e+01 -1.300e+01 -1.300e+01 -1.300e+01 -1.300e+01 -1.300e+01 -1.300e+01 -1.300e+01 -1.300e+01 -1.300e+01 -1.300e+01 -1.300e+01 -1.300e+01 -1.300e+01 -1.300e+01 -1.300e+01 -1.300e+01 -1.300e+01 -1.300e+01 -1.300e+01 -1.300e+01 -1.300e+01 -1.300e+01 -1.300e+01 -1.300e+01 -1.300e+01 -5.000e+00 -5.000e+00 -5.000e+00 -5.000e+00 -5.000e+00 -5.000e+00 -5.000e+00 -5.000e+00 -5.000e+00 -5.000e+00 -5.000e+00 -5.000e+00 -5.000e+00 -5.000e+00 -5.000e+00 -5.000e+00 -5.000e+00 -5.000e+00 -5.000e+00 -5.000e+00 -5.000e+00 -5.000e+00 -5.000e+00 -5.000e+00 -5.000e+00 -5.000e+00 -5.000e+00 -5.000e+00 -5.000e+00 -5.000e+00 -5.000e+00 -5.000e+00 -5.000e+00 -5.000e+00 -5.000e+00 -5.000e+00 -5.000e+00 -5.000e+00 -5.000e+00 -5.000e+00 -5.000e+00 -5.000e+00 -5.000e+00 -1.300e+01 -1.300e+01 -1.300e+01 -1.300e+01 -1.300e+01 -1.300e+01 -1.300e+01 -1.300e+01 -1.300e+01 -1.300e+01 -1.300e+01 -1.300e+01 -1.300e+01 -1.300e+01 -1.300e+01 -1.300e+01 -1.300e+01 -1.300e+01 -1.300e+01 -1.300e+01 -1.300e+01 -1.300e+01 -1.300e+01 -1.300e+01 -1.300e+01 -1.300e+01 -1.300e+01 -1.300e+01 -1.300e+01 -1.300e+01 -1.300e+01 -1.300e+01 -1.300e+01 -1.300e+01 -1.300e+01 -1.300e+01 -1.300e+01 -1.300e+01 -1.300e+01 -1.300e+01 -1.300e+01 -1.300e+01 -1.300e+01 -1.300e+01 -1.300e+01 -1.300e+01 -1.300e+01 -1.300e+01 -1.300e+01 -1.300e+01 -1.300e+01 -1.300e+01 -1.300e+01 -1.300e+01 -1.300e+01 -1.300e+01 -1.300e+01 -1.300e+01 -1.300e+01 -1.300e+01 -1.300e+01 -1.300e+01 -1.300e+01 -1.300e+01 -1.300e+01 -1.300e+01 -1.300e+01 -1.300e+01 -1.300e+01 -1.300e+01 -1.300e+01 -1.300e+01 -1.300e+01 -1.300e+01 -1.300e+01 -1.300e+01 -1.300e+01 -1.300e+01 -1.300e+01 -1.300e+01 -1.300e+01 -1.300e+01 -1.300e+01 -1.300e+01 -1.300e+01 -1.300e+01 -1.300e+01 -1.300e+01 -1.300e+01 -1.300e+01 -1.300e+01 -1.300e+01 -1.300e+01 -1.300e+01 -1.300e+01 -1.300e+01 -1.300e+01 -1.300e+01 -1.300e+01 -1.300e+01 -1.300e+01 -1.300e+01 -1.300e+01 -1.300e+01 -1.300e+01 -1.300e+01 -1.300e+01 -1.300e+01 -1.300e+01 -1.300e+01 -1.300e+01 -1.300e+01 -1.300e+01 -1.300e+01 -1.300e+01 -1.300e+01 -1.300e+01 -1.300e+01 -1.300e+01 -1.300e+01 -1.300e+01 -1.300e+01 -1.300e+01 -1.300e+01 -1.300e+01 -1.300e+01 -1.300e+01 -1.300e+01 -1.300e+01 -1.300e+01 -1.300e+01 -1.300e+01 -1.300e+01 -1.300e+01 -1.300e+01 -1.300e+01 -1.300e+01 -1.300e+01 -1.300e+01 -1.300e+01 -1.300e+01 -1.300e+01 -1.300e+01 -1.300e+01 -1.300e+01 -1.300e+01 -1.300e+01 -1.300e+01 -1.300e+01 -1.300e+01 -1.300e+01 -1.300e+01 -1.300e+01 -1.300e+01 -1.300e+01 -1.300e+01 -1.300e+01 -1.300e+01 -1.300e+01 -1.300e+01 -1.300e+01 -1.300e+01 -1.300e+01 -1.300e+01 -1.300e+01 -1.300e+01 -1.300e+01 -1.300e+01 -1.300e+01 -1.300e+01 -1.300e+01 -1.300e+01 -1.300e+01 -1.300e+01 -1.300e+01 -1.300e+01 -1.300e+01 -1.300e+01 -1.300e+01 -1.300e+01 -1.300e+01 -1.300e+01 -1.300e+01 -1.300e+01 -1.300e+01 -1.300e+01 -1.300e+01 -1.300e+01 -1.300e+01 -1.300e+01 -1.300e+01 -1.300e+01 -1.300e+01 -1.300e+01 -1.300e+01 -1.300e+01 -1.300e+01 -1.300e+01 -1.300e+01 -1.300e+01 -1.300e+01 -1.300e+01 -1.300e+01 -1.300e+01 -1.300e+01 -1.300e+01 -1.300e+01 -1.300e+01 -1.300e+01 -1.300e+01 -1.300e+01 -1.300e+01 -1.300e+01 -1.300e+01 -1.300e+01 -1.300e+01 -1.300e+01 -1.300e+01 -1.300e+01 -1.300e+01 -1.300e+01 -1.300e+01 -1.300e+01 -1.300e+01 -1.300e+01 -1.300e+01 -1.300e+01 -1.300e+01 -1.300e+01 -1.300e+01 -1.300e+01 -1.300e+01 -1.300e+01 -1.300e+01 -1.300e+01 -1.300e+01 -1.300e+01 -1.300e+01 -1.300e+01 -1.300e+01 -1.300e+01 -1.300e+01 -1.300e+01 -1.300e+01 -1.300e+01 -1.300e+01 -1.300e+01 -1.300e+01 -1.300e+01 -1.300e+01 -1.300e+01 -1.300e+01 -1.300e+01 -1.300e+01 -1.300e+01 -1.300e+01 -1.300e+01 -1.300e+01 -1.300e+01 -1.300e+01 -1.300e+01 -1.300e+01 -1.300e+01 -1.300e+01 -1.300e+01 -1.300e+01 -1.300e+01 -1.300e+01 -1.300e+01 -1.300e+01 -1.300e+01 -1.300e+01 -1.300e+01 -1.300e+01 -1.300e+01 -1.300e+01 -1.300e+01 -1.300e+01 -1.300e+01 -1.300e+01 -1.300e+01 -1.300e+01 -1.300e+01 -1.300e+01 -1.300e+01 -1.300e+01 -1.300e+01 -1.300e+01 -1.300e+01 -1.300e+01 -1.300e+01 -1.300e+01 -1.300e+01 -1.300e+01 -1.300e+01 -1.300e+01 -1.300e+01 -1.300e+01 -1.300e+01 -1.300e+01 -1.300e+01 -1.300e+01 -1.300e+01 -1.300e+01 -1.300e+01 -1.300e+01 -1.300e+01 -1.300e+01 -1.300e+01 -1.300e+01 -1.300e+01 -1.300e+01 -1.300e+01 -1.300e+01 -1.300e+01 -1.300e+01 -1.300e+01 -1.300e+01 -1.300e+01 -1.300e+01 -1.300e+01 -1.300e+01 -1.300e+01 -1.300e+01 -1.300e+01 -1.300e+01 -1.300e+01 -1.300e+01 -1.300e+01 -1.300e+01 -1.300e+01 -1.300e+01 -1.300e+01 -1.300e+01 -1.300e+01 -1.300e+01 -1.300e+01 -1.300e+01 -1.300e+01 -1.300e+01 -1.300e+01 -1.300e+01 -1.300e+01 -1.300e+01 -1.300e+01 -1.300e+01 -1.300e+01 -1.300e+01 -1.300e+01 -1.300e+01 -1.300e+01 -1.300e+01 -1.300e+01 -1.300e+01 -1.300e+01 -1.300e+01 -1.300e+01 -1.300e+01 -1.300e+01 -1.300e+01 -1.300e+01 -1.300e+01 -1.300e+01 -1.300e+01 -1.300e+01 -1.300e+01 -1.300e+01 -1.300e+01 -1.300e+01 -1.300e+01 -1.300e+01 -1.300e+01 -1.300e+01 -1.300e+01 -1.300e+01 -1.300e+01 -1.300e+01 -1.300e+01 -1.300e+01 -1.300e+01 -1.300e+01 -1.300e+01 -1.300e+01 -1.300e+01 -1.300e+01 -1.300e+01 -1.300e+01 -1.300e+01 -1.300e+01 -1.300e+01 -1.300e+01 -1.300e+01 -1.300e+01 -1.300e+01 -1.300e+01 -1.300e+01 -1.300e+01 -1.300e+01 -1.300e+01 -1.300e+01 -1.300e+01 -1.300e+01 -1.300e+01 -1.300e+01 -1.300e+01 -1.300e+01 -1.300e+01 -1.300e+01 -1.300e+01 -1.300e+01 -1.300e+01 -1.300e+01 -1.300e+01 -1.300e+01 -1.300e+01 -1.300e+01 -1.300e+01 -1.300e+01 -1.300e+01 -1.300e+01 -1.300e+01 -1.300e+01 -1.300e+01 -1.300e+01 -1.300e+01 -1.300e+01 -1.300e+01 -1.300e+01 -1.300e+01 -1.300e+01 -1.300e+01 -1.300e+01 -1.300e+01 -1.300e+01 -1.300e+01 -1.300e+01 -1.300e+01 -1.300e+01 -1.300e+01 -1.300e+01 -1.300e+01 -1.300e+01 -1.300e+01 -1.300e+01 -1.300e+01 -1.300e+01 -1.300e+01 -1.300e+01 -1.300e+01 -1.300e+01 -1.300e+01 -1.300e+01 -1.300e+01 -1.300e+01 -5.000e+00 -5.000e+00 -5.000e+00 -5.000e+00 -5.000e+00 -5.000e+00 -5.000e+00 -5.000e+00 -5.000e+00 -5.000e+00 -5.000e+00 -5.000e+00 -5.000e+00 -5.000e+00 -5.000e+00 -5.000e+00 -5.000e+00 -5.000e+00 -5.000e+00 -5.000e+00 -5.000e+00 -5.000e+00 -5.000e+00 -5.000e+00 -5.000e+00 -5.000e+00 -5.000e+00 -5.000e+00 -5.000e+00 -5.000e+00 -5.000e+00 -5.000e+00 -5.000e+00 -5.000e+00 -5.000e+00 -5.000e+00 -5.000e+00 -5.000e+00 -5.000e+00 -5.000e+00 -5.000e+00 -5.000e+00 -5.000e+00 -1.300e+01 -1.300e+01 -1.300e+01 -1.300e+01 -1.300e+01 -1.300e+01 -1.300e+01 -1.300e+01 -1.300e+01 -1.300e+01 -1.300e+01 -1.300e+01 -1.300e+01 -1.300e+01 -1.300e+01 -1.300e+01 -1.300e+01 -1.300e+01 -1.300e+01 -1.300e+01 -1.300e+01 -1.300e+01 -1.300e+01 -1.300e+01 -1.300e+01 -1.300e+01 -1.300e+01 -1.300e+01 -1.300e+01 -1.300e+01 -1.300e+01 -1.300e+01 -1.300e+01 -1.300e+01 -1.300e+01 -1.300e+01 -1.300e+01 -1.300e+01 -1.300e+01 -1.300e+01 -1.300e+01 -1.300e+01 -1.300e+01 -1.300e+01 -1.300e+01 -1.300e+01 -1.300e+01 -1.300e+01 -1.300e+01 -1.300e+01 -1.300e+01 -1.300e+01 -1.300e+01 -1.300e+01 -1.300e+01 -1.300e+01 -1.300e+01 -1.300e+01 -1.300e+01 -1.300e+01 -1.300e+01 -1.300e+01 -1.300e+01 -1.300e+01 -1.300e+01 -1.300e+01 -1.300e+01 -1.300e+01 -1.300e+01 -1.300e+01 -1.300e+01 -1.300e+01 -1.300e+01 -1.300e+01 -1.300e+01 -1.300e+01 -1.300e+01 -1.300e+01 -1.300e+01 -1.300e+01 -1.300e+01 -1.300e+01 -1.300e+01 -1.300e+01 -1.300e+01 -1.300e+01 -1.300e+01 -1.300e+01 -1.300e+01 -1.300e+01 -1.300e+01 -1.300e+01 -1.300e+01 -1.300e+01 -1.300e+01 -1.300e+01 -1.300e+01 -1.300e+01 -1.300e+01 -1.300e+01 -1.300e+01 -1.300e+01 -1.300e+01 -1.300e+01 -1.300e+01 -1.300e+01 -1.300e+01 -1.300e+01 -1.300e+01 -1.300e+01 -1.300e+01 -1.300e+01 -1.300e+01 -1.300e+01 -1.300e+01 -1.300e+01 -1.300e+01 -1.300e+01 -1.300e+01 -1.300e+01 -1.300e+01 -1.300e+01 -1.300e+01 -1.300e+01 -1.300e+01 -1.300e+01 -1.300e+01 -1.300e+01 -1.300e+01 -1.300e+01 -1.300e+01 -1.300e+01 -1.300e+01 -1.300e+01 -1.300e+01 -1.300e+01 -1.300e+01 -1.300e+01 -1.300e+01 -1.300e+01 -1.300e+01 -1.300e+01 -1.300e+01 -1.300e+01 -1.300e+01 -1.300e+01 -1.300e+01 -1.300e+01 -1.300e+01 -1.300e+01 -1.300e+01 -1.300e+01 -1.300e+01 -1.300e+01 -1.300e+01 -1.300e+01 -1.300e+01 -1.300e+01 -1.300e+01 -1.300e+01 -1.300e+01 -1.300e+01 -1.300e+01 -1.300e+01 -1.300e+01 -1.300e+01 -1.300e+01 -1.300e+01 -1.300e+01 -1.300e+01 -1.300e+01 -1.300e+01 -1.300e+01 -1.300e+01 -1.300e+01 -1.300e+01 -1.300e+01 -1.300e+01 -1.300e+01 -1.300e+01 -1.300e+01 -1.300e+01 -1.300e+01 -1.300e+01 -1.300e+01 -1.300e+01 -1.300e+01 -1.300e+01 -1.300e+01 -1.300e+01 -1.300e+01 -1.300e+01 -1.300e+01 -1.300e+01 -1.300e+01 -1.300e+01 -1.300e+01 -1.300e+01 -1.300e+01 -1.300e+01 -1.300e+01 -1.300e+01 -1.300e+01 -1.300e+01 -1.300e+01 -1.300e+01 -1.300e+01 -1.300e+01 -1.300e+01 -1.300e+01 -1.300e+01 -1.300e+01 -1.300e+01 -1.300e+01 -1.300e+01 -1.300e+01 -1.300e+01 -1.300e+01 -1.300e+01 -1.300e+01 -1.300e+01 -1.300e+01 -1.300e+01 -1.300e+01 -1.300e+01 -1.300e+01 -1.300e+01 -1.300e+01 -1.300e+01 -1.300e+01 -1.300e+01 -1.300e+01 -1.300e+01 -1.300e+01 -1.300e+01 -1.300e+01 -1.300e+01 -1.300e+01 -1.300e+01 -1.300e+01 -1.300e+01 -1.300e+01 -1.300e+01 -1.300e+01 -1.300e+01 -1.300e+01 -1.300e+01 -1.300e+01 -1.300e+01 -1.300e+01 -1.300e+01 -1.300e+01 -1.300e+01 -1.300e+01 -1.300e+01 -1.300e+01 -1.300e+01 -1.300e+01 -1.300e+01 -1.300e+01 -1.300e+01 -1.300e+01 -1.300e+01 -1.300e+01 -1.300e+01 -1.300e+01 -1.300e+01 -1.300e+01 -1.300e+01 -1.300e+01 -1.300e+01 -1.300e+01 -1.300e+01 -1.300e+01 -1.300e+01 -1.300e+01 -1.300e+01 -1.300e+01 -1.300e+01 -1.300e+01 -1.300e+01 -1.300e+01 -1.300e+01 -1.300e+01 -1.300e+01 -1.300e+01 -1.300e+01 -1.300e+01 -1.300e+01 -1.300e+01 -1.300e+01 -1.300e+01 -1.300e+01 -1.300e+01 -1.300e+01 -1.300e+01 -1.300e+01 -1.300e+01 -1.300e+01 -1.300e+01 -1.300e+01 -1.300e+01 -1.300e+01 -1.300e+01 -1.300e+01 -1.300e+01 -1.300e+01 -1.300e+01 -1.300e+01 -1.300e+01 -1.300e+01 -1.300e+01 -1.300e+01 -1.300e+01 -1.300e+01 -1.300e+01 -1.300e+01 -1.300e+01 -1.300e+01 -1.300e+01 -1.300e+01 -1.300e+01