<?xml version="1.0"?>
<VTKFile type="UnstructuredGrid" version="0.1" byte_order="LittleEndian">
   <UnstructuredGrid>
      <Piece NumberOfPoints="13600" NumberOfCells="954">
         <Points>
            <DataArray type="Float32" Name="Position" NumberOfComponents="3" format="ascii">
0.068	-5.032	-0.142
0.072	-5.030	-0.134
0.070	-5.028	-0.125
0.063	-5.027	-0.119
0.053	-5.027	-0.119
0.045	-5.028	-0.124
0.042	-5.030	-0.132
0.044	-5.032	-0.141
0.051	-5.034	-0.146
0.061	-5.034	-0.147
0.079	-5.886	0.066
0.082	-5.884	0.074
0.080	-5.881	0.083
0.073	-5.879	0.088
0.063	-5.879	0.089
0.056	-5.881	0.084
0.052	-5.883	0.076
0.055	-5.886	0.067
0.062	-5.887	0.061
0.071	-5.887	0.061
0.074	-6.246	0.186
0.077	-6.243	0.194
0.075	-6.240	0.202
0.067	-6.238	0.208
0.058	-6.238	0.208
0.050	-6.239	0.203
0.047	-6.242	0.195
0.050	-6.245	0.186
0.057	-6.247	0.181
0.066	-6.247	0.181
0.108	-5.081	-0.272
0.108	-5.076	-0.264
0.108	-5.076	-0.255
0.106	-5.082	-0.248
0.106	-5.091	-0.246
0.105	-5.100	-0.250
0.105	-5.105	-0.257
0.106	-5.104	-0.267
0.107	-5.098	-0.274
0.108	-5.089	-0.276
0.946	-5.157	-0.210
0.946	-5.152	-0.202
0.945	-5.152	-0.193
0.944	-5.158	-0.186
0.943	-5.167	-0.184
0.942	-5.176	-0.187
0.942	-5.181	-0.195
0.943	-5.180	-0.204
0.944	-5.174	-0.211
0.946	-5.165	-0.214
1.720	-5.276	-0.133
1.724	-5.276	-0.125
1.723	-5.276	-0.116
1.716	-5.276	-0.109
1.707	-5.276	-0.108
1.699	-5.276	-0.112
1.694	-5.276	-0.120
1.696	-5.276	-0.130
1.702	-5.276	-0.136
1.712	-5.276	-0.138
0.446	-5.990	-1.184
0.454	-5.988	-1.179
0.461	-5.991	-1.174
0.465	-5.998	-1.171
0.465	-6.007	-1.171
0.460	-6.015	-1.174
0.453	-6.018	-1.179
0.446	-6.015	-1.184
0.441	-6.007	-1.187
0.442	-5.998	-1.187
0.926	-6.009	-1.879
0.934	-6.007	-1.874
0.941	-6.010	-1.869
0.945	-6.017	-1.866
0.945	-6.026	-1.866
0.940	-6.034	-1.869
0.933	-6.037	-1.874
0.926	-6.034	-1.879
0.921	-6.026	-1.882
0.922	-6.017	-1.882
1.274	-6.047	-2.331
1.283	-6.047	-2.326
1.292	-6.047	-2.328
1.298	-6.047	-2.334
1.300	-6.047	-2.344
1.296	-6.047	-2.352
1.287	-6.047	-2.356
1.278	-6.047	-2.355
1.272	-6.047	-2.348
1.270	-6.047	-2.339
0.499	-6.131	-1.265
0.502	-6.124	-1.260
0.499	-6.116	-1.256
0.492	-6.110	-1.255
0.484	-6.108	-1.258
0.477	-6.111	-1.263
0.474	-6.118	-1.269
0.476	-6.126	-1.273
0.483	-6.132	-1.273
0.492	-6.134	-1.271
0.183	-6.554	-0.595
0.186	-6.547	-0.590
0.184	-6.539	-0.587
0.178	-6.532	-0.588
0.170	-6.529	-0.592
0.163	-6.532	-0.597
0.160	-6.539	-0.602
0.162	-6.548	-0.605
0.168	-6.555	-0.605
0.176	-6.557	-0.601
0.000	-6.629	-0.359
0.003	-6.622	-0.355
0.002	-6.613	-0.353
-0.003	-6.605	-0.355
-0.011	-6.603	-0.359
-0.017	-6.605	-0.365
-0.020	-6.613	-0.370
-0.019	-6.622	-0.372
-0.014	-6.629	-0.370
-0.006	-6.632	-0.365
0.514	-6.228	-1.353
0.522	-6.226	-1.349
0.529	-6.228	-1.344
0.534	-6.236	-1.341
0.534	-6.245	-1.341
0.529	-6.253	-1.343
0.521	-6.256	-1.348
0.514	-6.253	-1.352
0.509	-6.245	-1.355
0.509	-6.236	-1.355
0.930	-6.259	-2.084
0.937	-6.256	-2.080
0.944	-6.259	-2.075
0.949	-6.266	-2.071
0.948	-6.276	-2.071
0.943	-6.283	-2.074
0.936	-6.286	-2.078
0.929	-6.283	-2.083
0.924	-6.275	-2.087
0.925	-6.266	-2.087
1.111	-6.284	-2.329
1.118	-6.281	-2.324
1.125	-6.284	-2.319
1.129	-6.292	-2.315
1.128	-6.301	-2.314
1.123	-6.308	-2.317
1.116	-6.311	-2.322
1.109	-6.308	-2.328
1.105	-6.300	-2.331
1.106	-6.291	-2.332
0.559	-6.353	-1.443
0.559	-6.348	-1.436
0.557	-6.347	-1.427
0.554	-6.352	-1.419
0.552	-6.360	-1.416
0.551	-6.369	-1.419
0.551	-6.375	-1.426
0.553	-6.375	-1.435
0.556	-6.371	-1.442
0.558	-6.362	-1.445
1.389	-6.520	-1.257
1.388	-6.513	-1.250
1.386	-6.512	-1.241
1.382	-6.516	-1.234
1.379	-6.524	-1.230
1.377	-6.533	-1.232
1.378	-6.539	-1.239
1.381	-6.541	-1.247
1.385	-6.537	-1.255
1.388	-6.529	-1.258
1.750	-6.617	-1.074
1.749	-6.610	-1.068
1.745	-6.607	-1.060
1.740	-6.610	-1.052
1.736	-6.617	-1.048
1.735	-6.626	-1.049
1.736	-6.634	-1.055
1.739	-6.636	-1.063
1.744	-6.633	-1.071
1.748	-6.626	-1.075
0.588	-6.477	-1.522
0.589	-6.472	-1.515
0.588	-6.472	-1.506
0.586	-6.476	-1.498
0.583	-6.485	-1.495
0.580	-6.493	-1.498
0.579	-6.498	-1.506
0.579	-6.499	-1.515
0.582	-6.494	-1.522
0.585	-6.485	-1.525
1.394	-6.768	-1.450
1.396	-6.763	-1.442
1.395	-6.762	-1.433
1.392	-6.767	-1.426
1.388	-6.774	-1.423
1.384	-6.782	-1.425
1.382	-6.788	-1.433
1.382	-6.788	-1.442
1.386	-6.784	-1.450
1.390	-6.776	-1.453
1.661	-6.964	-1.424
1.664	-6.959	-1.416
1.663	-6.959	-1.407
1.659	-6.963	-1.399
1.654	-6.969	-1.396
1.649	-6.977	-1.399
1.646	-6.982	-1.406
1.647	-6.982	-1.416
1.650	-6.978	-1.423
1.656	-6.971	-1.426
0.617	-6.604	-1.599
0.618	-6.598	-1.592
0.616	-6.597	-1.583
0.613	-6.601	-1.576
0.609	-6.609	-1.572
0.606	-6.618	-1.575
0.606	-6.623	-1.582
0.607	-6.624	-1.591
0.610	-6.620	-1.599
0.614	-6.612	-1.602
1.419	-6.928	-1.429
1.420	-6.923	-1.421
1.419	-6.922	-1.412
1.416	-6.927	-1.405
1.412	-6.935	-1.402
1.409	-6.943	-1.404
1.408	-6.948	-1.412
1.409	-6.949	-1.421
1.412	-6.945	-1.428
1.416	-6.937	-1.431
1.522	-6.969	-1.418
1.524	-6.964	-1.410
1.523	-6.963	-1.401
1.520	-6.968	-1.394
1.517	-6.976	-1.391
1.514	-6.984	-1.394
1.513	-6.990	-1.401
1.513	-6.990	-1.410
1.516	-6.985	-1.418
1.519	-6.977	-1.421
0.631	-6.744	-1.644
0.630	-6.735	-1.646
0.633	-6.728	-1.651
0.638	-6.726	-1.659
0.644	-6.730	-1.665
0.648	-6.738	-1.668
0.648	-6.747	-1.667
0.645	-6.754	-1.661
0.640	-6.756	-1.654
0.634	-6.752	-1.647
-0.053	-6.865	-2.172
-0.053	-6.855	-2.174
-0.049	-6.849	-2.180
-0.043	-6.848	-2.187
-0.037	-6.853	-2.193
-0.034	-6.862	-2.195
-0.034	-6.871	-2.193
-0.038	-6.877	-2.187
-0.044	-6.878	-2.180
-0.050	-6.873	-2.174
-0.135	-6.870	-2.254
-0.133	-6.861	-2.257
-0.128	-6.856	-2.262
-0.121	-6.856	-2.269
-0.116	-6.862	-2.274
-0.113	-6.870	-2.275
-0.115	-6.879	-2.273
-0.120	-6.885	-2.267
-0.127	-6.885	-2.261
-0.132	-6.879	-2.256
0.670	-6.864	-1.737
0.669	-6.858	-1.729
0.667	-6.858	-1.720
0.664	-6.862	-1.713
0.662	-6.871	-1.710
0.662	-6.880	-1.712
0.663	-6.886	-1.720
0.665	-6.886	-1.729
0.667	-6.881	-1.736
0.669	-6.873	-1.739
1.495	-6.990	-1.540
1.494	-6.985	-1.532
1.493	-6.985	-1.523
1.490	-6.990	-1.516
1.489	-6.999	-1.513
1.489	-7.007	-1.516
1.489	-7.013	-1.523
1.491	-7.013	-1.532
1.493	-7.008	-1.540
1.495	-6.999	-1.543
1.676	-7.001	-1.507
1.675	-6.995	-1.499
1.674	-6.996	-1.490
1.672	-7.001	-1.483
1.671	-7.010	-1.480
1.671	-7.019	-1.483
1.672	-7.024	-1.491
1.674	-7.024	-1.500
1.675	-7.018	-1.507
1.676	-7.009	-1.510
0.694	-6.994	-1.803
0.693	-6.989	-1.796
0.693	-6.989	-1.786
0.692	-6.995	-1.779
0.691	-7.004	-1.777
0.690	-7.013	-1.781
0.690	-7.018	-1.789
0.691	-7.017	-1.798
0.692	-7.011	-1.805
0.693	-7.002	-1.807
1.519	-7.071	-1.746
1.519	-7.067	-1.738
1.518	-7.067	-1.728
1.517	-7.073	-1.721
1.516	-7.082	-1.719
1.515	-7.091	-1.723
1.515	-7.096	-1.731
1.516	-7.095	-1.740
1.517	-7.089	-1.747
1.518	-7.080	-1.749
0.713	-7.139	-1.848
0.711	-7.130	-1.849
0.713	-7.122	-1.854
0.717	-7.119	-1.861
0.723	-7.122	-1.868
0.728	-7.129	-1.872
0.729	-7.138	-1.871
0.728	-7.146	-1.866
0.723	-7.149	-1.859
0.718	-7.146	-1.852
0.025	-7.319	-2.329
0.025	-7.310	-2.331
0.028	-7.303	-2.336
0.033	-7.301	-2.344
0.039	-7.305	-2.350
0.043	-7.313	-2.353
0.043	-7.322	-2.352
0.040	-7.329	-2.346
0.035	-7.331	-2.339
0.029	-7.327	-2.333
-0.126	-7.326	-2.457
-0.126	-7.317	-2.459
-0.121	-7.310	-2.464
-0.115	-7.309	-2.471
-0.110	-7.314	-2.477
-0.107	-7.322	-2.480
-0.108	-7.331	-2.478
-0.112	-7.337	-2.473
-0.118	-7.339	-2.466
-0.124	-7.334	-2.460
0.143	-5.171	-0.370
0.140	-5.162	-0.372
0.141	-5.155	-0.378
0.146	-5.152	-0.386
0.152	-5.155	-0.392
0.158	-5.162	-0.395
0.160	-5.170	-0.393
0.159	-5.177	-0.387
0.155	-5.180	-0.379
0.148	-5.178	-0.373
-0.486	-5.483	-0.876
-0.491	-5.475	-0.877
-0.491	-5.467	-0.883
-0.488	-5.463	-0.890
-0.482	-5.464	-0.897
-0.475	-5.469	-0.901
-0.471	-5.477	-0.900
-0.470	-5.485	-0.895
-0.474	-5.489	-0.887
-0.480	-5.488	-0.880
-0.688	-5.656	-1.045
-0.695	-5.650	-1.042
-0.699	-5.642	-1.045
-0.700	-5.636	-1.051
-0.696	-5.632	-1.059
-0.689	-5.634	-1.065
-0.683	-5.640	-1.068
-0.678	-5.648	-1.065
-0.678	-5.655	-1.059
-0.682	-5.658	-1.051
0.743	-7.252	-1.934
0.751	-7.250	-1.930
0.758	-7.253	-1.925
0.762	-7.260	-1.921
0.762	-7.269	-1.920
0.756	-7.277	-1.922
0.748	-7.279	-1.926
0.741	-7.276	-1.931
0.737	-7.269	-1.934
0.738	-7.259	-1.935
1.169	-7.374	-2.690
1.177	-7.372	-2.687
1.184	-7.375	-2.681
1.187	-7.383	-2.677
1.186	-7.392	-2.675
1.179	-7.398	-2.676
1.171	-7.401	-2.680
1.164	-7.397	-2.685
1.161	-7.390	-2.690
1.163	-7.381	-2.692
1.198	-7.400	-2.738
1.206	-7.398	-2.735
1.213	-7.402	-2.729
1.215	-7.409	-2.724
1.212	-7.417	-2.721
1.205	-7.423	-2.722
1.197	-7.425	-2.725
1.190	-7.421	-2.731
1.188	-7.414	-2.736
1.191	-7.406	-2.739
0.791	-7.396	-2.001
0.790	-7.388	-1.996
0.786	-7.383	-1.989
0.780	-7.385	-1.982
0.775	-7.391	-1.977
0.772	-7.400	-1.978
0.773	-7.408	-1.982
0.777	-7.412	-1.989
0.783	-7.411	-1.996
0.788	-7.404	-2.001
1.447	-7.628	-1.500
1.448	-7.620	-1.496
1.444	-7.614	-1.489
1.437	-7.614	-1.483
1.430	-7.619	-1.479
1.425	-7.627	-1.480
1.425	-7.635	-1.484
1.429	-7.640	-1.490
1.435	-7.641	-1.497
1.442	-7.636	-1.500
1.474	-7.660	-1.454
1.476	-7.652	-1.449
1.472	-7.646	-1.443
1.465	-7.644	-1.438
1.457	-7.648	-1.435
1.451	-7.654	-1.436
1.449	-7.662	-1.440
1.453	-7.668	-1.447
1.460	-7.670	-1.452
1.468	-7.667	-1.455
0.803	-7.530	-2.039
0.804	-7.522	-2.043
0.809	-7.517	-2.050
0.816	-7.518	-2.056
0.822	-7.524	-2.060
0.825	-7.532	-2.059
0.824	-7.541	-2.055
0.819	-7.545	-2.048
0.813	-7.544	-2.042
0.806	-7.539	-2.039
0.246	-7.777	-2.636
0.248	-7.769	-2.640
0.254	-7.766	-2.646
0.262	-7.768	-2.652
0.267	-7.774	-2.654
0.269	-7.783	-2.653
0.267	-7.791	-2.648
0.261	-7.795	-2.642
0.254	-7.793	-2.637
0.248	-7.786	-2.635
0.211	-7.787	-2.686
0.215	-7.779	-2.690
0.221	-7.777	-2.695
0.229	-7.780	-2.700
0.234	-7.787	-2.702
0.235	-7.796	-2.701
0.231	-7.803	-2.696
0.225	-7.806	-2.691
0.217	-7.803	-2.686
0.212	-7.796	-2.684
0.833	-7.665	-2.096
0.836	-7.656	-2.099
0.842	-7.652	-2.105
0.849	-7.654	-2.111
0.854	-7.660	-2.114
0.856	-7.669	-2.115
0.853	-7.677	-2.111
0.847	-7.682	-2.106
0.840	-7.680	-2.100
0.834	-7.674	-2.096
0.305	-7.740	-2.734
0.308	-7.732	-2.737
0.314	-7.728	-2.743
[...]
         <CellData>
           <DataArray type="Float32" Name="combinedRootClassID" NumberOfComponents="1" format="ascii">
 -1.300e+01 -1.300e+01 -1.300e+01 -1.300e+01 -1.300e+01 -1.300e+01 -1.300e+01 -1.300e+01 -1.300e+01 -1.300e+01 -1.300e+01 -1.300e+01 -1.300e+01 -1.300e+01 -1.300e+01 -1.300e+01 -1.300e+01 -1.300e+01 -1.300e+01 -1.300e+01 -1.300e+01 -1.300e+01 -1.300e+01 -1.300e+01 -1.300e+01 -1.300e+01 -1.300e+01 -1.300e+01 -1.300e+01 -1.300e+01 -1.300e+01 -1.300e+01 -1.300e+01 -1.300e+01 -1.300e+01 -1.300e+01 -1.300e+01 -1.300e+01 -1.300e+01 -1.300e+01 -1.300e+01 -1.300e+01 -1.300e+01 -1.300e+01 -1.300e+01 -1.300e+01 -1.300e+01 -1.300e+01 -1.300e+01 -1.300e+01 -1.300e+01 -1.300e+01 -1.300e+01 -1.300e+01 -1.300e+01 -1.300e+01 -1.300e+01 -1.300e+01 -1.300e+01 -1.300e+01 -1.300e+01 -1.300e+01 -1.300e+01 -1.300e+01 -1.300e+01 -1.300e+01 -1.300e+01 -1.300e+01 -1.300e+01 -1.300e+01 -1.300e+01 -1.300e+01 -1.300e+01 -1.300e+01 -1.300e+01 -1.300e+01 -1.300e+01 -1.300e+01 -1.300e+01 -1.300e+01 -1.300e+01 -1.300e+01 -1.300e+01 -1.300e+01 -1.300e+01 -5.000e+00 -5.000e+00 -5.000e+00 -5.000e+00 -5.000e+00 -5.000e+00 -5.000e+00 -5.000e+00 -5.000e+00 -5.000e+00 -5.000e+00 -5.000e+00 -5.000e+00 -5.000e+00 -5.000e+00 -5.000e+00 -5.000e+00 -5.000e+00 -5.000e+00 -5.000e+00 -5.000e+00 -5.000e+00 -5.000e+00 -1.300e+01 -1.300e+01 -1.300e+01 -1.300e+01 -1.300e+01 -1.300e+01 -1.300e+01 -1.300e+01 -1.300e+01 -1.300e+01 -1.300e+01 -1.300e+01 -1.300e+01 -1.300e+01 -1.300e+01 -1.300e+01 -1.300e+01 -1.300e+01 -1.300e+01 -1.300e+01 -1.300e+01 -1.300e+01 -1.300e+01 -1.300e+01 -1.300e+01 -1.300e+01 -1.300e+01 -1.300e+01 -1.300e+01 -1.300e+01 -1.300e+01 -1.300e+01 -1.300e+01 -1.300e+01 -1.300e+01 -1.300e+01 -1.300e+01 -1.300e+01 -1.300e+01 -1.300e+01 -1.300e+01 -1.300e+01 -1.300e+01 -1.300e+01 -1.300e+01 -1.300e+01 -1.300e+01 -1.300e+01 -1.300e+01 -1.300e+01 -1.300e+01 -1.300e+01 -1.300e+01 -1.300e+01 -1.300e+01 -1.300e+01 -1.300e+01 -1.300e+01 -1.300e+01 -1.300e+01 -1.300e+01 -1.300e+01 -1.300e+01 -1.300e+01 -1.300e+01 -1.300e+01 -1.300e+01 -1.300e+01 -1.300e+01 -1.300e+01 -1.300e+01 -1.300e+01 -1.300e+01 -1.300e+01 -1.300e+01 -1.300e+01 -1.300e+01 -1.300e+01 -1.300e+01 -1.300e+01 -1.300e+01 -1.300e+01 -1.300e+01 -1.300e+01 -1.300e+01 -1.300e+01 -1.300e+01 -1.300e+01 -5.000e+00 -5.000e+00 -5.000e+00 -5.000e+00 -5.000e+00 -5.000e+00 -5.000e+00 -5.000e+00 -5.000e+00 -5.000e+00 -5.000e+00 -5.000e+00 -5.000e+00 -5.000e+00 -5.000e+00 -5.000e+00 -5.000e+00 -5.000e+00 -5.000e+00 -5.000e+00 -5.000e+00 -5.000e+00 -5.000e+00 -1.300e+01 -1.300e+01 -1.300e+01 -1.300e+01 -1.300e+01 -1.300e+01 -1.300e+01 -1.300e+01 -1.300e+01 -1.300e+01 -1.300e+01 -1.300e+01 -1.300e+01 -1.300e+01 -1.300e+01 -1.300e+01 -1.300e+01 -1.300e+01 -1.300e+01 -1.300e+01 -1.300e+01 -1.300e+01 -1.300e+01 -1.300e+01 -1.300e+01 -1.300e+01 -1.300e+01 -1.300e+01 -1.300e+01 -1.300e+01 -1.300e+01 -1.300e+01 -1.300e+01 -1.300e+01 -1.300e+01 -1.300e+01 -1.300e+01 -1.300e+01 -1.300e+01 -1.300e+01 -1.300e+01 -1.300e+01 -1.300e+01 -1.300e+01 -1.300e+01 -1.300e+01 -1.300e+01 -1.300e+01 -1.300e+01 -1.300e+01 -1.300e+01 -1.300e+01 -1.300e+01 -1.300e+01 -1.300e+01 -1.300e+01 -1.300e+01 -1.300e+01 -1.300e+01 -1.300e+01 -1.300e+01 -1.300e+01 -1.300e+01 -1.300e+01 -1.300e+01 -1.300e+01 -1.300e+01 -1.300e+01 -1.300e+01 -1.300e+01 -1.300e+01 -1.300e+01 -1.300e+01 -1.300e+01 -1.300e+01 -1.300e+01 -1.300e+01 -1.300e+01 -1.300e+01 -1.300e+01 -1.300e+01 -1.300e+01 -1.300e+01 -1.300e+01 -1.300e+01 -1.300e+01 -1.300e+01 -1.300e+01 -1.300e+01 -5.000e+00 -5.000e+00 -5.000e+00 -5.000e+00 -5.000e+00 -5.000e+00 -5.000e+00 -5.000e+00 -5.000e+00 -5.000e+00 -5.000e+00 -5.000e+00 -5.000e+00 -5.000e+00 -5.000e+00 -5.000e+00 -5.000e+00 -5.000e+00 -5.000e+00 -5.000e+00 -5.000e+00 -5.000e+00 -5.000e+00 -1.300e+01 -1.300e+01 -1.300e+01 -1.300e+01 -1.300e+01 -1.300e+01 -1.300e+01 -1.300e+01 -1.300e+01 -1.300e+01 -1.300e+01 -1.300e+01 -1.300e+01 -1.300e+01 -1.300e+01 -1.300e+01 -1.300e+01 -1.300e+01 -1.300e+01 -1.300e+01 -1.300e+01 -1.300e+01 -1.300e+01 -1.300e+01 -1.300e+01 -1.300e+01 -1.300e+01 -1.300e+01 -1.300e+01 -1.300e+01 -1.300e+01 -1.300e+01 -1.300e+01 -1.300e+01 -1.300e+01 -1.300e+01 -1.300e+01 -1.300e+01 -1.300e+01 -1.300e+01 -1.300e+01 -1.300e+01 -1.300e+01 -1.300e+01 -1.300e+01 -1.300e+01 -1.300e+01 -1.300e+01 -1.300e+01 -1.300e+01 -1.300e+01 -1.300e+01 -1.300e+01 -1.300e+01 -1.300e+01 -1.300e+01 -1.300e+01 -1.300e+01 -1.300e+01 -1.300e+01 -1.300e+01 -1.300e+01 -1.300e+01 -1.300e+01 -1.300e+01 -1.300e+01 -1.300e+01 -1.300e+01 -1.300e+01 -1.300e+01 -1.300e+01 -1.300e+01 -1.300e+01 -1.300e+01 -1.300e+01 -1.300e+01 -1.300e+01 -1.300e+01 -1.300e+01 -1.300e+01 -1.300e+01 -1.300e+01 -1.300e+01 -5.000e+00 -5.000e+00 -5.000e+00 -5.000e+00 -5.000e+00 -5.000e+00 -5.000e+00 -5.000e+00 -5.000e+00 -5.000e+00 -5.000e+00 -5.000e+00 -5.000e+00 -5.000e+00 -5.000e+00 -5.000e+00 -5.000e+00 -5.000e+00 -5.000e+00 -5.000e+00 -5.000e+00 -5.000e+00 -5.000e+00 -9.000e+00 -9.000e+00 -9.000e+00 -9.000e+00 -9.000e+00 -9.000e+00 -9.000e+00 -9.000e+00 -9.000e+00 -9.000e+00 -9.000e+00 -9.000e+00 -9.000e+00 -9.000e+00 -9.000e+00 -9.000e+00 -9.000e+00 -9.000e+00 -9.000e+00 -9.000e+00 -9.000e+00 -9.000e+00 -9.000e+00 -9.000e+00 -9.000e+00 -9.000e+00 -9.000e+00 -9.000e+00 -9.000e+00 -9.000e+00 -9.000e+00 -9.000e+00 -9.000e+00 -9.000e+00 -9.000e+00 -9.000e+00 -9.000e+00 -9.000e+00 -9.000e+00 -9.000e+00 -9.000e+00 -9.000e+00 -9.000e+00 -9.000e+00 -9.000e+00 -9.000e+00 -9.000e+00 -9.000e+00 -2.000e+00 -2.000e+00 -2.000e+00 -2.000e+00 -2.000e+00 -2.000e+00 -2.000e+00 -2.000e+00 -2.000e+00 -2.000e+00 -1.500e+01 -7.000e+00 -7.000e+00 -7.000e+00 -7.000e+00 -7.000e+00 -7.000e+00 -1.500e+01 -7.000e+00 -7.000e+00 -7.000e+00 -7.000e+00 -7.000e+00 -7.000e+00 -7.000e+00 -7.000e+00 -7.000e+00 -7.000e+00 -7.000e+00 -7.000e+00 -7.000e+00 -7.000e+00 -7.000e+00 -7.000e+00 -7.000e+00 -7.000e+00 -7.000e+00 -7.000e+00 -7.000e+00 -7.000e+00 -7.000e+00 -7.000e+00 -7.000e+00 -7.000e+00 -7.000e+00 -7.000e+00 -7.000e+00 -7.000e+00 -7.000e+00 -7.000e+00 -7.000e+00 -7.000e+00 -7.000e+00 -7.000e+00 -7.000e+00 -7.000e+00 -7.000e+00 -7.000e+00 -7.000e+00 -7.000e+00 -7.000e+00 -7.000e+00 -7.000e+00 -7.000e+00 -7.000e+00 -7.000e+00 -7.000e+00 -7.000e+00 -7.000e+00 -7.000e+00 -7.000e+00 -7.000e+00 -7.000e+00 -7.000e+00 -7.000e+00 -7.000e+00 -7.000e+00 -7.000e+00 -7.000e+00 -7.000e+00 -7.000e+00 -7.000e+00 -7.000e+00 -7.000e+00 -7.000e+00 -7.000e+00 -7.000e+00 -7.000e+00 -7.000e+00 -7.000e+00 -7.000e+00 -7.000e+00 -7.000e+00 -7.000e+00 -7.000e+00 -7.000e+00 -7.000e+00 -7.000e+00 -7.000e+00 -7.000e+00 -7.000e+00 -7.000e+00 -7.000e+00 -7.000e+00 -7.000e+00 -7.000e+00 -7.000e+00 -7.000e+00 -7.000e+00 -7.000e+00 -7.000e+00 -7.000e+00 -7.000e+00 -7.000e+00 -7.000e+00 -7.000e+00 -7.000e+00 -7.000e+00 -7.000e+00 -7.000e+00 -7.000e+00 -7.000e+00 -7.000e+00 -7.000e+00 -7.000e+00 -7.000e+00 -7.000e+00 -7.000e+00 -7.000e+00 -7.000e+00 -7.000e+00 -7.000e+00 -7.000e+00 -7.000e+00 -7.000e+00 -7.000e+00 -7.000e+00 -7.000e+00 -7.000e+00 -7.000e+00 -7.000e+00 -7.000e+00 -7.000e+00 -7.000e+00 -7.000e+00 -7.000e+00 -7.000e+00 -7.000e+00 -7.000e+00 -7.000e+00 -7.000e+00 -7.000e+00 -7.000e+00 -7.000e+00 -7.000e+00 -7.000e+00 -7.000e+00 -7.000e+00 -7.000e+00 -7.000e+00 -7.000e+00 -7.000e+00 -7.000e+00 -7.000e+00 -7.000e+00 -7.000e+00 -7.000e+00 -7.000e+00 -7.000e+00 -7.000e+00 -7.000e+00 -7.000e+00 -7.000e+00 -7.000e+00 -7.000e+00 -7.000e+00 -7.000e+00 -7.000e+00 -7.000e+00 -7.000e+00 -7.000e+00 -7.000e+00 -7.000e+00 -7.000e+00 -7.000e+00 -7.000e+00 -7.000e+00 -7.000e+00 -7.000e+00 -7.000e+00 -7.000e+00 -7.000e+00 -7.000e+00 -7.000e+00 -7.000e+00 -7.000e+00 -7.000e+00 -7.000e+00 -7.000e+00 -7.000e+00 -7.000e+00 -7.000e+00 -7.000e+00 -7.000e+00 -7.000e+00 -7.000e+00 -7.000e+00 -7.000e+00 -7.000e+00 -7.000e+00 -7.000e+00 -7.000e+00 -7.000e+00 -1.500e+01 -7.000e+00 -7.000e+00 -7.000e+00 -7.000e+00 -7.000e+00 -7.000e+00 -7.000e+00 -7.000e+00 -7.000e+00 -7.000e+00 -7.000e+00 -7.000e+00 -7.000e+00 -7.000e+00 -7.000e+00 -7.000e+00 -7.000e+00 -7.000e+00 -7.000e+00 -7.000e+00 -7.000e+00 -7.000e+00 -7.000e+00 -7.000e+00 -7.000e+00 -7.000e+00 -7.000e+00 -7.000e+00 -7.000e+00 -7.000e+00 -7.000e+00 -7.000e+00 -7.000e+00 -7.000e+00 -7.000e+00 -7.000e+00 -7.000e+00 -7.000e+00 -7.000e+00 -7.000e+00 -7.000e+00 -7.000e+00 -7.000e+00 -7.000e+00 -7.000e+00 -7.000e+00 -7.000e+00 -7.000e+00 -7.000e+00 -7.000e+00 -7.000e+00 -7.000e+00 -7.000e+00 -7.000e+00 -7.000e+00 -7.000e+00 -7.000e+00 -7.000e+00 -7.000e+00 -7.000e+00 -7.000e+00 -7.000e+00 -7.000e+00 -7.000e+00 -7.000e+00 -7.000e+00 -7.000e+00 -7.000e+00 -7.000e+00 -7.000e+00 -7.000e+00 -7.000e+00 -7.000e+00 -7.000e+00 -7.000e+00 -7.000e+00 -7.000e+00 -7.000e+00 -7.000e+00 -7.000e+00 -7.000e+00 -7.000e+00 -7.000e+00 -7.000e+00 -7.000e+00 -7.000e+00 -7.000e+00 -7.000e+00 -7.000e+00 -7.000e+00 -7.000e+00 -7.000e+00 -7.000e+00 -7.000e+00 -7.000e+00 -7.000e+00 -7.000e+00 -7.000e+00 -7.000e+00 -7.000e+00 -7.000e+00 -7.000e+00 -7.000e+00 -7.000e+00 -7.000e+00 -7.000e+00 -7.000e+00 -7.000e+00 -7.000e+00 -7.000e+00 -7.000e+00 -7.000e+00 -7.000e+00 -7.000e+00 -7.000e+00 -7.000e+00 -7.000e+00 -7.000e+00 -7.000e+00 -7.000e+00 -7.000e+00 -7.000e+00 -7.000e+00 -7.000e+00 -7.000e+00 -7.000e+00 -7.000e+00 -7.000e+00 -7.000e+00 -7.000e+00 -7.000e+00 -7.000e+00 -7.000e+00 -7.000e+00 -7.000e+00 -7.000e+00 -7.000e+00 -7.000e+00 -7.000e+00 -7.000e+00 -7.000e+00 -7.000e+00 -7.000e+00 -7.000e+00 -7.000e+00 -7.000e+00 -7.000e+00 -7.000e+00 -7.000e+00 -7.000e+00 -7.000e+00 -7.000e+00 -7.000e+00 -7.000e+00 -7.000e+00 -7.000e+00 -7.000e+00 -7.000e+00 -7.000e+00 -7.000e+00 -7.000e+00 -7.000e+00 -7.000e+00 -7.000e+00 -7.000e+00 -7.000e+00 -7.000e+00 -7.000e+00 -7.000e+00 -7.000e+00 -7.000e+00 -7.000e+00 -7.000e+00 -7.000e+00 -7.000e+00 -7.000e+00 -7.000e+00 -7.000e+00 -7.000e+00 -7.000e+00 -7.000e+00 -7.000e+00 -7.000e+00 -7.000e+00 -7.000e+00 -7.000e+00 -7.000e+00 -7.000e+00 -7.000e+00 -7.000e+00 -7.000e+00 -7.000e+00 -7.000e+00 -7.000e+00 -7.000e+00 -7.000e+00 -7.000e+00 -7.000e+00 -7.000e+00 -7.000e+00 -7.000e+00 -7.000e+00 -7.000e+00 -7.000e+00 -1.700e+01 -1.700e+01 -1.100e+01 -1.100e+01 -1.100e+01 -1.100e+01 -1.100e+01 -1.100e+01 -1.100e+01 -1.100e+01 -1.100e+01 -1.100e+01 -1.100e+01 -1.100e+01 -1.100e+01 -1.100e+01 -1.100e+01 -1.100e+01 -4.000e+00 -4.000e+00 -4.000e+00 -4.000e+00 -4.000e+00 -4.000e+00 -4.000e+00 -4.000e+00 -4.000e+00 -4.000e+00 -4.000e+00 -4.000e+00 -4.000e+00 -4.000e+00 -4.000e+00 -4.000e+00 -4.000e+00 -4.000e+00 -4.000e+00 -4.000e+00 -4.000e+00 -4.000e+00 -4.000e+00 -4.000e+00 -4.000e+00 -4.000e+00 -4.000e+00 -4.000e+00 -4.000e+00 -4.000e+00 -4.000e+00 -4.000e+00 -4.000e+00
           </DataArray>
           <DataArray type="Float32" Name="nitrate/Cmin" NumberOfComponents="1" format="ascii">