<?xml version="1.0"?>
<VTKFile type="UnstructuredGrid" version="0.1" byte_order="LittleEndian">
   <UnstructuredGrid>
      <Piece NumberOfPoints="4650" NumberOfCells="328">
         <Points>
            <DataArray type="Float32" Name="Position" NumberOfComponents="3" format="ascii">
0.069	-5.034	-0.142
0.072	-5.032	-0.133
0.069	-5.031	-0.124
0.062	-5.028	-0.119
0.053	-5.027	-0.119
0.045	-5.027	-0.124
0.042	-5.028	-0.133
0.045	-5.030	-0.142
0.052	-5.032	-0.147
0.061	-5.033	-0.147
0.030	-5.216	-0.091
0.030	-5.208	-0.087
0.030	-5.199	-0.088
0.030	-5.192	-0.095
0.030	-5.191	-0.104
0.030	-5.195	-0.112
0.030	-5.203	-0.116
0.030	-5.212	-0.115
0.030	-5.219	-0.108
0.030	-5.220	-0.099
0.110	-5.082	-0.273
0.110	-5.076	-0.265
0.108	-5.076	-0.256
0.106	-5.081	-0.249
0.104	-5.090	-0.246
0.103	-5.099	-0.249
0.104	-5.104	-0.257
0.105	-5.104	-0.266
0.107	-5.099	-0.273
0.109	-5.090	-0.276
0.314	-5.114	-0.240
0.313	-5.109	-0.232
0.312	-5.109	-0.223
0.310	-5.114	-0.216
0.308	-5.123	-0.213
0.307	-5.132	-0.216
0.308	-5.137	-0.224
0.309	-5.137	-0.233
0.311	-5.132	-0.240
0.313	-5.123	-0.243
0.141	-5.169	-0.371
0.141	-5.160	-0.373
0.144	-5.153	-0.379
0.150	-5.152	-0.386
0.156	-5.156	-0.392
0.159	-5.164	-0.394
0.160	-5.173	-0.392
0.156	-5.180	-0.386
0.150	-5.181	-0.379
0.145	-5.177	-0.373
0.048	-5.199	-0.459
0.048	-5.190	-0.454
0.048	-5.181	-0.456
0.048	-5.175	-0.462
0.048	-5.173	-0.472
0.048	-5.177	-0.480
0.048	-5.186	-0.484
0.048	-5.195	-0.483
0.048	-5.201	-0.476
0.048	-5.203	-0.467
0.189	-5.237	-0.502
0.197	-5.234	-0.499
0.205	-5.237	-0.495
0.210	-5.244	-0.492
0.210	-5.254	-0.492
0.205	-5.261	-0.494
0.197	-5.264	-0.498
0.189	-5.261	-0.502
0.184	-5.254	-0.504
0.184	-5.245	-0.504
0.242	-5.240	-0.618
0.250	-5.237	-0.615
0.258	-5.240	-0.611
0.263	-5.247	-0.608
0.263	-5.257	-0.608
0.258	-5.264	-0.610
0.250	-5.267	-0.614
0.242	-5.264	-0.618
0.237	-5.257	-0.620
0.237	-5.248	-0.620
0.245	-5.335	-0.620
0.244	-5.329	-0.613
0.242	-5.328	-0.604
0.239	-5.333	-0.596
0.237	-5.341	-0.593
0.236	-5.350	-0.595
0.236	-5.356	-0.602
0.239	-5.357	-0.611
0.241	-5.352	-0.619
0.244	-5.344	-0.622
0.378	-5.361	-0.585
0.377	-5.355	-0.578
0.375	-5.354	-0.569
0.372	-5.359	-0.561
0.369	-5.367	-0.558
0.368	-5.376	-0.560
0.369	-5.382	-0.567
0.371	-5.383	-0.576
0.374	-5.379	-0.584
0.377	-5.370	-0.587
0.273	-5.432	-0.713
0.281	-5.429	-0.710
0.289	-5.432	-0.707
0.294	-5.439	-0.704
0.295	-5.448	-0.704
0.290	-5.456	-0.706
0.282	-5.459	-0.709
0.273	-5.456	-0.713
0.268	-5.449	-0.715
0.268	-5.440	-0.715
0.307	-5.433	-0.797
0.315	-5.430	-0.794
0.323	-5.433	-0.791
0.328	-5.440	-0.789
0.329	-5.449	-0.788
0.324	-5.457	-0.790
0.316	-5.460	-0.794
0.307	-5.458	-0.797
0.302	-5.450	-0.799
0.302	-5.441	-0.799
0.314	-5.559	-0.796
0.311	-5.551	-0.794
0.311	-5.542	-0.798
0.314	-5.537	-0.805
0.318	-5.538	-0.814
0.322	-5.544	-0.820
0.324	-5.552	-0.821
0.324	-5.561	-0.817
0.322	-5.566	-0.810
0.318	-5.565	-0.802
0.263	-5.570	-0.820
0.260	-5.561	-0.819
0.260	-5.553	-0.823
0.263	-5.548	-0.830
0.267	-5.548	-0.838
0.271	-5.554	-0.844
0.273	-5.563	-0.846
0.273	-5.572	-0.842
0.271	-5.576	-0.834
0.267	-5.576	-0.826
0.352	-5.652	-0.917
0.352	-5.647	-0.909
0.351	-5.647	-0.900
0.350	-5.653	-0.892
0.349	-5.662	-0.890
0.348	-5.670	-0.894
0.348	-5.675	-0.901
0.349	-5.675	-0.911
0.350	-5.669	-0.918
0.352	-5.660	-0.920
0.395	-5.657	-0.913
0.395	-5.652	-0.905
0.394	-5.652	-0.896
0.393	-5.658	-0.889
0.391	-5.667	-0.886
0.391	-5.675	-0.890
0.391	-5.680	-0.897
0.392	-5.680	-0.907
0.393	-5.674	-0.914
0.394	-5.665	-0.916
0.394	-5.780	-1.005
0.397	-5.775	-0.997
0.394	-5.769	-0.991
0.386	-5.765	-0.988
0.377	-5.763	-0.989
0.370	-5.765	-0.995
0.368	-5.770	-1.003
0.371	-5.776	-1.009
0.378	-5.780	-1.012
0.387	-5.782	-1.011
0.387	-5.802	-0.987
0.392	-5.793	-0.987
0.390	-5.784	-0.987
0.384	-5.778	-0.987
0.374	-5.776	-0.987
0.366	-5.780	-0.987
0.362	-5.789	-0.987
0.363	-5.798	-0.987
0.370	-5.804	-0.987
0.379	-5.806	-0.987
-0.008	-4.963	-0.020
0.012	-4.961	-0.013
0.028	-4.970	-0.002
0.032	-4.986	0.010
0.025	-5.005	0.018
0.008	-5.017	0.019
-0.012	-5.019	0.012
-0.027	-5.010	0.001
-0.032	-4.994	-0.011
-0.025	-4.975	-0.019
0.251	-5.347	-0.664
0.271	-5.347	-0.656
0.284	-5.356	-0.643
0.286	-5.372	-0.629
0.275	-5.388	-0.620
0.256	-5.397	-0.619
0.237	-5.398	-0.626
0.224	-5.388	-0.639
0.222	-5.372	-0.653
0.232	-5.357	-0.663
0.466	-6.005	-1.223
0.484	-6.008	-1.213
0.493	-6.017	-1.197
0.490	-6.030	-1.181
0.476	-6.042	-1.171
0.456	-6.048	-1.171
0.438	-6.045	-1.181
0.428	-6.036	-1.197
0.431	-6.023	-1.213
0.445	-6.011	-1.223
0.615	-6.564	-1.599
0.632	-6.567	-1.587
0.639	-6.576	-1.570
0.634	-6.587	-1.553
0.617	-6.597	-1.543
0.597	-6.601	-1.545
0.580	-6.598	-1.557
0.572	-6.589	-1.574
0.578	-6.578	-1.591
0.594	-6.568	-1.601
0.766	-7.267	-1.965
0.782	-7.269	-1.952
0.787	-7.277	-1.933
0.780	-7.287	-1.916
0.762	-7.295	-1.907
0.742	-7.298	-1.910
0.726	-7.295	-1.923
0.720	-7.288	-1.942
0.728	-7.278	-1.959
0.745	-7.270	-1.968
0.893	-7.808	-2.197
0.908	-7.811	-2.182
0.912	-7.817	-2.163
0.903	-7.826	-2.146
0.885	-7.833	-2.137
0.865	-7.836	-2.141
0.850	-7.834	-2.156
0.846	-7.827	-2.175
0.854	-7.818	-2.192
0.872	-7.811	-2.201
1.016	-8.414	-2.409
1.030	-8.416	-2.394
1.033	-8.422	-2.374
1.024	-8.430	-2.357
1.005	-8.436	-2.349
0.985	-8.439	-2.354
0.970	-8.437	-2.369
0.967	-8.431	-2.389
0.977	-8.424	-2.406
0.995	-8.417	-2.414
1.157	-9.075	-2.610
1.171	-9.077	-2.595
1.174	-9.083	-2.575
1.164	-9.090	-2.558
1.146	-9.096	-2.550
1.125	-9.099	-2.555
1.111	-9.097	-2.570
1.108	-9.091	-2.590
1.118	-9.084	-2.608
1.137	-9.078	-2.615
1.278	-9.786	-2.840
1.292	-9.789	-2.825
1.295	-9.795	-2.805
1.285	-9.802	-2.788
1.266	-9.807	-2.780
1.245	-9.809	-2.785
1.231	-9.806	-2.800
1.229	-9.800	-2.820
1.239	-9.793	-2.837
1.257	-9.788	-2.844
1.383	-10.538	-3.081
1.397	-10.541	-3.065
1.399	-10.547	-3.045
1.388	-10.553	-3.028
1.369	-10.558	-3.021
1.349	-10.559	-3.026
1.335	-10.556	-3.041
1.333	-10.551	-3.062
1.344	-10.544	-3.079
1.363	-10.540	-3.086
1.486	-11.307	-3.280
1.499	-11.310	-3.264
1.501	-11.315	-3.244
1.490	-11.321	-3.227
1.470	-11.325	-3.220
1.450	-11.326	-3.225
1.437	-11.323	-3.241
1.435	-11.318	-3.261
1.446	-11.312	-3.278
1.466	-11.308	-3.285
1.567	-12.074	-3.495
1.580	-12.077	-3.479
1.581	-12.082	-3.458
1.569	-12.087	-3.442
1.549	-12.091	-3.435
1.529	-12.091	-3.441
1.516	-12.088	-3.457
1.515	-12.083	-3.477
1.527	-12.078	-3.494
1.547	-12.075	-3.501
1.631	-12.855	-3.661
1.643	-12.857	-3.644
1.643	-12.860	-3.624
1.631	-12.865	-3.607
1.611	-12.868	-3.601
1.591	-12.869	-3.608
1.579	-12.867	-3.625
1.579	-12.864	-3.646
1.591	-12.859	-3.662
1.611	-12.856	-3.668
1.684	-13.249	-3.714
1.696	-13.249	-3.696
1.695	-13.252	-3.675
1.683	-13.256	-3.659
1.663	-13.260	-3.653
1.643	-13.261	-3.660
1.631	-13.261	-3.678
1.632	-13.258	-3.699
1.644	-13.254	-3.715
1.664	-13.250	-3.721
-0.142	-5.034	-0.034
-0.143	-5.025	-0.032
-0.142	-5.016	-0.035
-0.140	-5.012	-0.043
-0.136	-5.012	-0.051
-0.133	-5.018	-0.058
-0.132	-5.027	-0.060
-0.133	-5.036	-0.056
-0.135	-5.041	-0.049
-0.139	-5.040	-0.040
-0.379	-5.050	-0.127
-0.380	-5.041	-0.125
-0.379	-5.033	-0.129
-0.377	-5.028	-0.136
-0.373	-5.029	-0.145
-0.370	-5.035	-0.151
-0.369	-5.044	-0.153
-0.370	-5.052	-0.149
-0.372	-5.057	-0.142
-0.376	-5.056	-0.133
-0.277	-5.077	-0.090
-0.268	-5.073	-0.090
-0.259	-5.075	-0.089
-0.253	-5.082	-0.088
-0.253	-5.092	-0.087
-0.258	-5.099	-0.086
-0.266	-5.103	-0.086
-0.275	-5.101	-0.086
-0.281	-5.093	-0.088
-0.282	-5.084	-0.089
-0.273	-5.110	-0.236
-0.264	-5.110	-0.232
-0.255	-5.110	-0.233
-0.249	-5.110	-0.240
-0.247	-5.110	-0.249
-0.252	-5.110	-0.257
-0.260	-5.110	-0.262
-0.269	-5.110	-0.260
-0.275	-5.110	-0.254
-0.277	-5.110	-0.244
-0.396	-5.153	-0.136
-0.387	-5.151	-0.134
-0.379	-5.154	-0.132
-0.374	-5.161	-0.128
-0.375	-5.170	-0.126
-0.382	-5.177	-0.125
-0.390	-5.179	-0.127
-0.399	-5.176	-0.130
-0.403	-5.169	-0.133
-0.402	-5.160	-0.135
-0.368	-5.188	-0.257
-0.359	-5.185	-0.256
-0.351	-5.189	-0.253
-0.347	-5.196	-0.250
-0.348	-5.205	-0.248
-0.354	-5.212	-0.247
-0.363	-5.214	-0.248
-0.371	-5.211	-0.251
-0.375	-5.203	-0.254
-0.374	-5.194	-0.257
-0.497	-5.261	-0.168
-0.493	-5.254	-0.165
-0.493	-5.245	-0.164
-0.499	-5.237	-0.166
-0.507	-5.235	-0.170
-0.514	-5.238	-0.174
-0.518	-5.245	-0.178
-0.518	-5.255	-0.178
-0.512	-5.262	-0.177
-0.504	-5.265	-0.173
-0.569	-5.279	-0.034
-0.565	-5.271	-0.031
-0.566	-5.262	-0.030
-0.571	-5.255	-0.032
-0.579	-5.252	-0.036
-0.587	-5.255	-0.040
-0.591	-5.263	-0.043
-0.590	-5.272	-0.044
-0.585	-5.279	-0.042
-0.577	-5.282	-0.038
-0.629	-5.324	-0.216
-0.621	-5.322	-0.215
-0.612	-5.324	-0.214
-0.607	-5.332	-0.212
-0.607	-5.341	-0.210
-0.612	-5.348	-0.209
-0.621	-5.351	-0.209
-0.630	-5.348	-0.211
-0.635	-5.341	-0.213
-0.635	-5.332	-0.215
-0.618	-5.344	-0.317
-0.610	-5.341	-0.317
-0.601	-5.344	-0.316
-0.596	-5.352	-0.313
-0.596	-5.361	-0.312
-0.601	-5.368	-0.311
-0.610	-5.371	-0.311
-0.619	-5.368	-0.313
-0.624	-5.361	-0.315
-0.624	-5.352	-0.317
-0.723	-5.426	-0.264
-0.719	-5.424	-0.256
-0.720	-5.423	-0.247
-0.725	-5.424	-0.240
-0.734	-5.427	-0.238
-0.742	-5.430	-0.241
-0.747	-5.432	-0.249
-0.746	-5.433	-0.258
-0.740	-5.431	-0.265
-0.731	-5.429	-0.268
-0.694	-5.512	-0.256
-0.690	-5.510	-0.248
-0.691	-5.509	-0.239
-0.697	-5.510	-0.232
-0.705	-5.513	-0.230
-0.713	-5.516	-0.233
-0.718	-5.518	-0.241
-0.717	-5.519	-0.250
-0.711	-5.518	-0.257
-0.703	-5.515	-0.260
-0.844	-5.534	-0.277
-0.845	-5.525	-0.274
-0.845	-5.516	-0.276
-0.843	-5.510	-0.284
-0.841	-5.510	-0.293
-0.839	-5.516	-0.300
-0.838	-5.525	-0.303
-0.838	-5.533	-0.300
-0.840	-5.539	-0.293
-0.842	-5.539	-0.284
-0.920	-5.535	-0.295
-0.920	-5.526	-0.293
-0.920	-5.518	-0.295
-0.918	-5.512	-0.303
-0.916	-5.512	-0.312
-0.914	-5.517	-0.319
-0.913	-5.526	-0.322
-0.914	-5.535	-0.319
-0.915	-5.540	-0.312
-0.918	-5.541	-0.303
-0.932	-5.642	-0.321
-0.928	-5.635	-0.316
-0.930	-5.626	-0.314
-0.936	-5.619	-0.315
-0.944	-5.616	-0.319
-0.951	-5.619	-0.324
-0.955	-5.627	-0.328
-0.953	-5.636	-0.330
-0.947	-5.643	-0.329
-0.939	-5.645	-0.325
-0.950	-5.653	-0.285
-0.947	-5.646	-0.281
-0.948	-5.637	-0.279
-0.954	-5.630	-0.279
-0.963	-5.628	-0.283
[...]
         <CellData>
           <DataArray type="Float32" Name="combinedRootClassID" NumberOfComponents="1" format="ascii">
 -1.300e+01 -1.300e+01 -1.300e+01 -1.300e+01 -1.300e+01 -1.300e+01 -1.300e+01 -1.300e+01 -1.300e+01 -5.000e+00 -5.000e+00 -5.000e+00 -5.000e+00 -5.000e+00 -5.000e+00 -5.000e+00 -5.000e+00 -5.000e+00 -5.000e+00 -5.000e+00 -5.000e+00 -5.000e+00 -1.300e+01 -1.300e+01 -1.300e+01 -1.300e+01 -1.300e+01 -1.300e+01 -1.300e+01 -1.300e+01 -1.300e+01 -5.000e+00 -5.000e+00 -5.000e+00 -5.000e+00 -5.000e+00 -5.000e+00 -5.000e+00 -5.000e+00 -5.000e+00 -5.000e+00 -5.000e+00 -5.000e+00 -5.000e+00 -1.300e+01 -1.300e+01 -1.300e+01 -1.300e+01 -1.300e+01 -1.300e+01 -1.300e+01 -1.300e+01 -1.300e+01 -5.000e+00 -5.000e+00 -5.000e+00 -5.000e+00 -5.000e+00 -5.000e+00 -5.000e+00 -5.000e+00 -5.000e+00 -5.000e+00 -5.000e+00 -5.000e+00 -5.000e+00 -1.300e+01 -1.300e+01 -1.300e+01 -1.300e+01 -1.300e+01 -1.300e+01 -1.300e+01 -1.300e+01 -1.300e+01 -5.000e+00 -5.000e+00 -5.000e+00 -5.000e+00 -5.000e+00 -5.000e+00 -5.000e+00 -5.000e+00 -5.000e+00 -5.000e+00 -5.000e+00 -5.000e+00 -5.000e+00 -9.000e+00 -9.000e+00 -9.000e+00 -9.000e+00 -9.000e+00 -9.000e+00 -9.000e+00 -9.000e+00 -9.000e+00 -9.000e+00 -9.000e+00 -9.000e+00 -2.000e+00 -2.000e+00 -2.000e+00 -2.000e+00 -2.000e+00 -2.000e+00 -2.000e+00 -2.000e+00 -2.000e+00 -2.000e+00 -7.000e+00 -7.000e+00 -7.000e+00 -7.000e+00 -7.000e+00 -7.000e+00 -7.000e+00 -7.000e+00 -7.000e+00 -7.000e+00 -7.000e+00 -7.000e+00 -7.000e+00 -7.000e+00 -7.000e+00 -7.000e+00 -7.000e+00 -7.000e+00 -7.000e+00 -7.000e+00 -7.000e+00 -7.000e+00 -7.000e+00 -7.000e+00 -7.000e+00 -7.000e+00 -7.000e+00 -7.000e+00 -7.000e+00 -7.000e+00 -7.000e+00 -7.000e+00 -7.000e+00 -7.000e+00 -7.000e+00 -7.000e+00 -7.000e+00 -7.000e+00 -7.000e+00 -7.000e+00 -7.000e+00 -7.000e+00 -7.000e+00 -7.000e+00 -7.000e+00 -7.000e+00 -7.000e+00 -7.000e+00 -7.000e+00 -7.000e+00 -7.000e+00 -7.000e+00 -7.000e+00 -7.000e+00 -7.000e+00 -7.000e+00 -7.000e+00 -7.000e+00 -7.000e+00 -7.000e+00 -7.000e+00 -7.000e+00 -7.000e+00 -7.000e+00 -7.000e+00 -7.000e+00 -7.000e+00 -7.000e+00 -7.000e+00 -7.000e+00 -7.000e+00 -7.000e+00 -7.000e+00 -7.000e+00 -7.000e+00 -7.000e+00 -7.000e+00 -7.000e+00 -7.000e+00 -7.000e+00 -7.000e+00 -7.000e+00 -7.000e+00 -7.000e+00 -7.000e+00 -7.000e+00 -7.000e+00 -7.000e+00 -7.000e+00 -7.000e+00 -7.000e+00 -7.000e+00 -7.000e+00 -7.000e+00 -7.000e+00 -7.000e+00 -7.000e+00 -7.000e+00 -7.000e+00 -7.000e+00 -7.000e+00 -7.000e+00 -7.000e+00 -7.000e+00 -7.000e+00 -7.000e+00 -7.000e+00 -7.000e+00 -7.000e+00 -7.000e+00 -7.000e+00 -7.000e+00 -7.000e+00 -7.000e+00 -7.000e+00 -7.000e+00 -7.000e+00 -7.000e+00 -7.000e+00 -7.000e+00 -7.000e+00 -7.000e+00 -7.000e+00 -7.000e+00 -7.000e+00 -7.000e+00 -7.000e+00 -7.000e+00 -7.000e+00 -7.000e+00 -7.000e+00 -7.000e+00 -7.000e+00 -7.000e+00 -7.000e+00 -7.000e+00 -7.000e+00 -7.000e+00 -7.000e+00 -7.000e+00 -7.000e+00 -7.000e+00 -7.000e+00 -7.000e+00 -7.000e+00 -7.000e+00 -7.000e+00 -7.000e+00 -7.000e+00 -7.000e+00 -7.000e+00 -7.000e+00 -7.000e+00 -7.000e+00 -7.000e+00 -7.000e+00 -7.000e+00 -7.000e+00 -7.000e+00 -7.000e+00 -7.000e+00 -7.000e+00 -7.000e+00 -7.000e+00 -7.000e+00 -7.000e+00 -7.000e+00 -7.000e+00 -7.000e+00 -7.000e+00 -7.000e+00 -7.000e+00 -7.000e+00 -7.000e+00 -7.000e+00 -7.000e+00 -7.000e+00 -7.000e+00 -7.000e+00 -7.000e+00 -7.000e+00 -7.000e+00 -7.000e+00 -7.000e+00 -7.000e+00 -7.000e+00 -1.100e+01 -1.100e+01 -1.100e+01 -1.100e+01 -1.100e+01 -4.000e+00 -4.000e+00 -4.000e+00 -4.000e+00 -4.000e+00 -4.000e+00 -4.000e+00 -4.000e+00 -4.000e+00 -4.000e+00 -4.000e+00 -4.000e+00 -4.000e+00 -4.000e+00 -4.000e+00 -4.000e+00 -4.000e+00 -4.000e+00 -4.000e+00 -4.000e+00 -4.000e+00 -4.000e+00 -4.000e+00 -4.000e+00 -4.000e+00 -4.000e+00 -4.000e+00
           </DataArray>
           <DataArray type="Float32" Name="nitrate/Cmin" NumberOfComponents="1" format="ascii">
 1.000e-03 1.000e-03 1.000e-03 1.000e-03 1.000e-03 1.000e-03 1.000e-03 1.000e-03 1.000e-03 1.000e-03 1.000e-03 1.000e-03 1.000e-03 1.000e-03 1.000e-03 1.000e-03 1.000e-03 1.000e-03 1.000e-03 1.000e-03 1.000e-03 1.000e-03 1.000e-03 1.000e-03 1.000e-03 1.000e-03 1.000e-03 1.000e-03 1.000e-03 1.000e-03 1.000e-03 1.000e-03 1.000e-03 1.000e-03 1.000e-03 1.000e-03 1.000e-03 1.000e-03 1.000e-03 1.000e-03 1.000e-03 1.000e-03 1.000e-03 1.000e-03 1.000e-03 1.000e-03 1.000e-03 1.000e-03 1.000e-03 1.000e-03 1.000e-03 1.000e-03 1.000e-03 1.000e-03 1.000e-03 1.000e-03 1.000e-03 1.000e-03 1.000e-03 1.000e-03 1.000e-03 1.000e-03 1.000e-03 1.000e-03 1.000e-03 1.000e-03 1.000e-03 1.000e-03 1.000e-03 1.000e-03 1.000e-03 1.000e-03 1.000e-03 1.000e-03 1.000e-03 1.000e-03 1.000e-03 1.000e-03 1.000e-03 1.000e-03 1.000e-03 1.000e-03 1.000e-03 1.000e-03 1.000e-03 1.000e-03 1.000e-03 1.000e-03 1.000e-03 1.000e-03 1.000e-03 1.000e-03 1.000e-03 1.000e-03 1.000e-03 1.000e-03 1.000e-03 1.000e-03 1.000e-03 1.000e-03 1.000e-03 1.000e-03 1.000e-03 1.000e-03 1.000e-03 1.000e-03 1.000e-03 1.000e-03 1.000e-03 1.000e-03 1.000e-03 1.000e-03 1.000e-03 1.000e-03 1.000e-03 1.000e-03 1.000e-03 1.000e-03 1.000e-03 1.000e-03 1.000e-03 1.000e-03 1.000e-03 1.000e-03 1.000e-03 1.000e-03 1.000e-03 1.000e-03 1.000e-03 1.000e-03 1.000e-03 1.000e-03 1.000e-03 1.000e-03 1.000e-03 1.000e-03 1.000e-03 1.000e-03 1.000e-03 1.000e-03 1.000e-03 1.000e-03 1.000e-03 1.000e-03 1.000e-03 1.000e-03 1.000e-03 1.000e-03 1.000e-03 1.000e-03 1.000e-03 1.000e-03 1.000e-03 1.000e-03 1.000e-03 1.000e-03 1.000e-03 1.000e-03 1.000e-03 1.000e-03 1.000e-03 1.000e-03 1.000e-03 1.000e-03 1.000e-03 1.000e-03 1.000e-03 1.000e-03 1.000e-03 1.000e-03 1.000e-03 1.000e-03 1.000e-03 1.000e-03 1.000e-03 1.000e-03 1.000e-03 1.000e-03 1.000e-03 1.000e-03 1.000e-03 1.000e-03 1.000e-03 1.000e-03 1.000e-03 1.000e-03 1.000e-03 1.000e-03 1.000e-03 1.000e-03 1.000e-03 1.000e-03 1.000e-03 1.000e-03 1.000e-03 1.000e-03 1.000e-03 1.000e-03 1.000e-03 1.000e-03 1.000e-03 1.000e-03 1.000e-03 1.000e-03 1.000e-03 1.000e-03 1.000e-03 1.000e-03 1.000e-03 1.000e-03 1.000e-03 1.000e-03 1.000e-03 1.000e-03 1.000e-03 1.000e-03 1.000e-03 1.000e-03 1.000e-03 1.000e-03 1.000e-03 1.000e-03 1.000e-03 1.000e-03 1.000e-03 1.000e-03 1.000e-03 1.000e-03 1.000e-03 1.000e-03 1.000e-03 1.000e-03 1.000e-03 1.000e-03 1.000e-03 1.000e-03 1.000e-03 1.000e-03 1.000e-03 1.000e-03 1.000e-03 1.000e-03 1.000e-03 1.000e-03 1.000e-03 1.000e-03 1.000e-03 1.000e-03 1.000e-03 1.000e-03 1.000e-03 1.000e-03 1.000e-03 1.000e-03 1.000e-03 1.000e-03 1.000e-03 1.000e-03 1.000e-03 1.000e-03 1.000e-03 1.000e-03 1.000e-03 1.000e-03 1.000e-03 1.000e-03 1.000e-03 1.000e-03 1.000e-03 1.000e-03 1.000e-03 1.000e-03 1.000e-03 1.000e-03 1.000e-03 1.000e-03 1.000e-03 1.000e-03 1.000e-03 1.000e-03 1.000e-03 1.000e-03 1.000e-03 1.000e-03 1.000e-03 1.000e-03 1.000e-03 1.000e-03 1.000e-03 1.000e-03 1.000e-03 1.000e-03 1.000e-03 1.000e-03 1.000e-03 1.000e-03 1.000e-03 1.000e-03 1.000e-03 1.000e-03 1.000e-03 1.000e-03 1.000e-03 1.000e-03 1.000e-03 1.000e-03 1.000e-03 1.000e-03 1.000e-03 1.000e-03 1.000e-03 1.000e-03 1.000e-03 1.000e-03 1.000e-03 1.000e-03 1.000e-03 1.000e-03 1.000e-03 1.000e-03 1.000e-03 1.000e-03 1.000e-03 1.000e-03 1.000e-03 1.000e-03 1.000e-03 1.000e-03
           </DataArray>
           <DataArray type="Float32" Name="nitrate/Imax" NumberOfComponents="1" format="ascii">
 1.900e+00 1.900e+00 1.900e+00 1.900e+00 1.900e+00 1.900e+00 1.900e+00 1.900e+00 1.900e+00 1.900e+00 1.900e+00 1.900e+00 1.900e+00 1.900e+00 1.900e+00 1.900e+00 1.900e+00 1.900e+00 1.900e+00 1.900e+00 1.900e+00 1.900e+00 1.900e+00 1.900e+00 1.900e+00 1.900e+00 1.900e+00 1.900e+00 1.900e+00 1.900e+00 1.900e+00 1.900e+00 1.900e+00 1.900e+00 1.900e+00 1.900e+00 1.900e+00 1.900e+00 1.900e+00 1.900e+00 1.900e+00 1.900e+00 1.900e+00 1.900e+00 1.900e+00 1.900e+00 1.900e+00 1.900e+00 1.900e+00 1.900e+00 1.900e+00 1.900e+00 1.900e+00 1.900e+00 1.900e+00 1.900e+00 1.900e+00 1.900e+00 1.900e+00 1.900e+00 1.900e+00 1.900e+00 1.900e+00 1.900e+00 1.900e+00 1.900e+00 1.900e+00 1.900e+00 1.900e+00 1.900e+00 1.900e+00 1.900e+00 1.900e+00 1.900e+00 1.900e+00 1.900e+00 1.900e+00 1.900e+00 1.900e+00 1.900e+00 1.900e+00 1.900e+00 1.900e+00 1.900e+00 1.900e+00 1.900e+00 1.900e+00 1.900e+00 1.900e+00 1.900e+00 1.900e+00 1.900e+00 1.900e+00 1.900e+00 1.900e+00 1.900e+00 1.900e+00 1.900e+00 1.900e+00 1.900e+00 1.900e+00 1.900e+00 1.900e+00 1.900e+00 1.900e+00 1.900e+00 1.900e+00 1.900e+00 1.900e+00 1.900e+00 1.900e+00 1.900e+00 1.900e+00 1.900e+00 1.900e+00 1.900e+00 1.900e+00 1.900e+00 1.900e+00 1.900e+00 1.900e+00 1.900e+00 1.900e+00 1.900e+00 1.900e+00 1.900e+00 1.900e+00 1.900e+00 1.900e+00 1.900e+00 1.900e+00 1.900e+00 1.900e+00 1.900e+00 1.900e+00 1.900e+00 1.900e+00 1.900e+00 1.900e+00 1.900e+00 1.900e+00 1.900e+00 1.900e+00 1.900e+00 1.900e+00 1.900e+00 1.900e+00 1.900e+00 1.900e+00 1.900e+00 1.900e+00 1.900e+00 1.900e+00 1.900e+00 1.900e+00 1.900e+00 1.900e+00 1.900e+00 1.900e+00 1.900e+00 1.900e+00 1.900e+00 1.900e+00 1.900e+00 1.900e+00 1.900e+00 1.900e+00 1.900e+00 1.900e+00 1.900e+00 1.900e+00 1.900e+00 1.900e+00 1.900e+00 1.900e+00 1.900e+00 1.900e+00 1.900e+00 1.900e+00 1.900e+00 1.900e+00 1.900e+00 1.900e+00 1.900e+00 1.900e+00 1.900e+00 1.900e+00 1.900e+00 1.900e+00 1.900e+00 1.900e+00 1.900e+00 1.900e+00 1.900e+00 1.900e+00 1.900e+00 1.900e+00 1.900e+00 1.900e+00 1.900e+00 1.900e+00 1.900e+00 1.900e+00 1.900e+00 1.900e+00 1.900e+00 1.900e+00 1.900e+00 1.900e+00 1.900e+00 1.900e+00 1.900e+00 1.900e+00 1.900e+00 1.900e+00 1.900e+00 1.900e+00 1.900e+00 1.900e+00 1.900e+00 1.900e+00 1.900e+00 1.900e+00 1.900e+00 1.900e+00 1.900e+00 1.900e+00 1.900e+00 1.900e+00 1.900e+00 1.900e+00 1.900e+00 1.900e+00 1.900e+00 1.900e+00 1.900e+00 1.900e+00 1.900e+00 1.900e+00 1.900e+00 1.900e+00 1.900e+00 1.900e+00 1.900e+00 1.900e+00 1.900e+00 1.900e+00 1.900e+00 1.900e+00 1.900e+00 1.900e+00 1.900e+00 1.900e+00 1.900e+00 1.900e+00 1.900e+00 1.900e+00 1.900e+00 1.900e+00 1.900e+00 1.900e+00 1.900e+00 1.900e+00 1.900e+00 1.900e+00 1.900e+00 1.900e+00 1.900e+00 1.900e+00 1.900e+00 1.900e+00 1.900e+00 1.900e+00 1.900e+00 1.900e+00 1.900e+00 1.900e+00 1.900e+00 1.900e+00 1.900e+00 1.900e+00 1.900e+00 1.900e+00 1.900e+00 1.900e+00 1.900e+00 1.900e+00 1.900e+00 1.900e+00 1.900e+00 1.900e+00 1.900e+00 1.900e+00 1.900e+00 1.900e+00 1.900e+00 1.900e+00 1.900e+00 1.900e+00 1.900e+00 1.900e+00 1.900e+00 1.900e+00 1.900e+00 1.900e+00 1.900e+00 1.900e+00 1.900e+00 1.900e+00 1.900e+00 1.900e+00 1.900e+00 1.900e+00 1.900e+00 1.900e+00 1.900e+00 1.900e+00 1.900e+00 1.900e+00 1.900e+00 1.900e+00 1.900e+00 1.900e+00 1.900e+00 1.900e+00 1.900e+00 1.900e+00 1.900e+00
           </DataArray>
           <DataArray type="Float32" Name="nitrate/Km" NumberOfComponents="1" format="ascii">
 1.610e-02 1.610e-02 1.610e-02 1.610e-02 1.610e-02 1.610e-02 1.610e-02 1.610e-02 1.610e-02 1.610e-02 1.610e-02 1.610e-02 1.610e-02 1.610e-02 1.610e-02 1.610e-02 1.610e-02 1.610e-02 1.610e-02 1.610e-02 1.610e-02 1.610e-02 1.610e-02 1.610e-02 1.610e-02 1.610e-02 1.610e-02 1.610e-02 1.610e-02 1.610e-02 1.610e-02 1.610e-02 1.610e-02 1.610e-02 1.610e-02 1.610e-02 1.610e-02 1.610e-02 1.610e-02 1.610e-02 1.610e-02 1.610e-02 1.610e-02 1.610e-02 1.610e-02 1.610e-02 1.610e-02 1.610e-02 1.610e-02 1.610e-02 1.610e-02 1.610e-02 1.610e-02 1.610e-02 1.610e-02 1.610e-02 1.610e-02 1.610e-02 1.610e-02 1.610e-02 1.610e-02 1.610e-02 1.610e-02 1.610e-02 1.610e-02 1.610e-02 1.610e-02 1.610e-02 1.610e-02 1.610e-02 1.610e-02 1.610e-02 1.610e-02 1.610e-02 1.610e-02 1.610e-02 1.610e-02 1.610e-02 1.610e-02 1.610e-02 1.610e-02 1.610e-02 1.610e-02 1.610e-02 1.610e-02 1.610e-02 1.610e-02 1.610e-02 1.610e-02 1.610e-02 1.610e-02 1.610e-02 1.610e-02 1.610e-02 1.610e-02 1.610e-02 1.610e-02 1.610e-02 1.610e-02 1.610e-02 1.610e-02 1.610e-02 1.610e-02 1.610e-02 1.610e-02 1.610e-02 1.610e-02 1.610e-02 1.610e-02 1.610e-02 1.610e-02 1.610e-02 1.610e-02 1.610e-02 1.610e-02 1.610e-02 1.610e-02 1.610e-02 1.610e-02 1.610e-02 1.610e-02 1.610e-02 1.610e-02 1.610e-02 1.610e-02 1.610e-02 1.610e-02 1.610e-02 1.610e-02 1.610e-02 1.610e-02 1.610e-02 1.610e-02 1.610e-02 1.610e-02 1.610e-02 1.610e-02 1.610e-02 1.610e-02 1.610e-02 1.610e-02 1.610e-02 1.610e-02 1.610e-02 1.610e-02 1.610e-02 1.610e-02 1.610e-02 1.610e-02 1.610e-02 1.610e-02 1.610e-02 1.610e-02 1.610e-02 1.610e-02 1.610e-02 1.610e-02 1.610e-02 1.610e-02 1.610e-02 1.610e-02 1.610e-02 1.610e-02 1.610e-02 1.610e-02 1.610e-02 1.610e-02 1.610e-02 1.610e-02 1.610e-02 1.610e-02 1.610e-02 1.610e-02 1.610e-02 1.610e-02 1.610e-02 1.610e-02 1.610e-02 1.610e-02 1.610e-02 1.610e-02 1.610e-02 1.610e-02 1.610e-02 1.610e-02 1.610e-02 1.610e-02 1.610e-02 1.610e-02 1.610e-02 1.610e-02 1.610e-02 1.610e-02 1.610e-02 1.610e-02 1.610e-02 1.610e-02 1.610e-02 1.610e-02 1.610e-02 1.610e-02 1.610e-02 1.610e-02 1.610e-02 1.610e-02 1.610e-02 1.610e-02 1.610e-02 1.610e-02 1.610e-02 1.610e-02 1.610e-02 1.610e-02 1.610e-02 1.610e-02 1.610e-02 1.610e-02 1.610e-02 1.610e-02 1.610e-02 1.610e-02 1.610e-02 1.610e-02 1.610e-02 1.610e-02 1.610e-02 1.610e-02 1.610e-02 1.610e-02 1.610e-02 1.610e-02 1.610e-02 1.610e-02 1.610e-02 1.610e-02 1.610e-02 1.610e-02 1.610e-02 1.610e-02 1.610e-02 1.610e-02 1.610e-02 1.610e-02 1.610e-02 1.610e-02 1.610e-02 1.610e-02 1.610e-02 1.610e-02 1.610e-02 1.610e-02 1.610e-02 1.610e-02 1.610e-02 1.610e-02 1.610e-02 1.610e-02 1.610e-02 1.610e-02 1.610e-02 1.610e-02 1.610e-02 1.610e-02 1.610e-02 1.610e-02 1.610e-02 1.610e-02 1.610e-02 1.610e-02 1.610e-02 1.610e-02 1.610e-02 1.610e-02 1.610e-02 1.610e-02 1.610e-02 1.610e-02 1.610e-02 1.610e-02 1.610e-02 1.610e-02 1.610e-02 1.610e-02 1.610e-02 1.610e-02 1.610e-02 1.610e-02 1.610e-02 1.610e-02 1.610e-02 1.610e-02 1.610e-02 1.610e-02 1.610e-02 1.610e-02 1.610e-02 1.610e-02 1.610e-02 1.610e-02 1.610e-02 1.610e-02 1.610e-02 1.610e-02 1.610e-02 1.610e-02 1.610e-02 1.610e-02 1.610e-02 1.610e-02 1.610e-02 1.610e-02 1.610e-02 1.610e-02 1.610e-02 1.610e-02 1.610e-02 1.610e-02 1.610e-02 1.610e-02 1.610e-02 1.610e-02 1.610e-02 1.610e-02 1.610e-02 1.610e-02 1.610e-02 1.610e-02 1.610e-02
           </DataArray>
           <DataArray type="Float32" Name="nitrate/minimalNutrientConcentration" NumberOfComponents="1" format="ascii">
 6.000e+02 6.000e+02 6.000e+02 6.000e+02 6.000e+02 6.000e+02 6.000e+02 6.000e+02 6.000e+02 6.000e+02 6.000e+02 6.000e+02 6.000e+02 6.000e+02 6.000e+02 6.000e+02 6.000e+02 6.000e+02 6.000e+02 6.000e+02 6.000e+02 6.000e+02 6.000e+02 6.000e+02 6.000e+02 6.000e+02 6.000e+02 6.000e+02 6.000e+02 6.000e+02 6.000e+02 6.000e+02 6.000e+02 6.000e+02 6.000e+02 6.000e+02 6.000e+02 6.000e+02 6.000e+02 6.000e+02 6.000e+02 6.000e+02 6.000e+02 6.000e+02 6.000e+02 6.000e+02 6.000e+02 6.000e+02 6.000e+02 6.000e+02 6.000e+02 6.000e+02 6.000e+02 6.000e+02 6.000e+02 6.000e+02 6.000e+02 6.000e+02 6.000e+02 6.000e+02 6.000e+02 6.000e+02 6.000e+02 6.000e+02 6.000e+02 6.000e+02 6.000e+02 6.000e+02 6.000e+02 6.000e+02 6.000e+02 6.000e+02 6.000e+02 6.000e+02 6.000e+02 6.000e+02 6.000e+02 6.000e+02 6.000e+02 6.000e+02 6.000e+02 6.000e+02 6.000e+02 6.000e+02 6.000e+02 6.000e+02 6.000e+02 6.000e+02 6.000e+02 6.000e+02 6.000e+02 6.000e+02 6.000e+02 6.000e+02 6.000e+02 6.000e+02 6.000e+02 6.000e+02 6.000e+02 6.000e+02 6.000e+02 6.000e+02 6.000e+02 6.000e+02 6.000e+02 6.000e+02 6.000e+02 6.000e+02 6.000e+02 6.000e+02 6.000e+02 6.000e+02 6.000e+02 6.000e+02 6.000e+02 6.000e+02 6.000e+02 6.000e+02 6.000e+02 6.000e+02 6.000e+02 6.000e+02 6.000e+02 6.000e+02 6.000e+02 6.000e+02 6.000e+02 6.000e+02 6.000e+02 6.000e+02 6.000e+02 6.000e+02 6.000e+02 6.000e+02 6.000e+02 6.000e+02 6.000e+02 6.000e+02 6.000e+02 6.000e+02 6.000e+02 6.000e+02 6.000e+02 6.000e+02 6.000e+02 6.000e+02 6.000e+02 6.000e+02 6.000e+02 6.000e+02 6.000e+02 6.000e+02 6.000e+02 6.000e+02 6.000e+02 6.000e+02 6.000e+02 6.000e+02 6.000e+02 6.000e+02 6.000e+02 6.000e+02 6.000e+02 6.000e+02 6.000e+02 6.000e+02 6.000e+02 6.000e+02 6.000e+02 6.000e+02 6.000e+02 6.000e+02 6.000e+02 6.000e+02 6.000e+02 6.000e+02 6.000e+02 6.000e+02 6.000e+02 6.000e+02 6.000e+02 6.000e+02 6.000e+02 6.000e+02 6.000e+02 6.000e+02 6.000e+02 6.000e+02 6.000e+02 6.000e+02 6.000e+02 6.000e+02 6.000e+02 6.000e+02 6.000e+02 6.000e+02 6.000e+02 6.000e+02 6.000e+02 6.000e+02 6.000e+02 6.000e+02 6.000e+02 6.000e+02 6.000e+02 6.000e+02 6.000e+02 6.000e+02 6.000e+02 6.000e+02 6.000e+02 6.000e+02 6.000e+02 6.000e+02 6.000e+02 6.000e+02 6.000e+02 6.000e+02 6.000e+02 6.000e+02 6.000e+02 6.000e+02 6.000e+02 6.000e+02 6.000e+02 6.000e+02 6.000e+02 6.000e+02 6.000e+02 6.000e+02 6.000e+02 6.000e+02 6.000e+02 6.000e+02 6.000e+02 6.000e+02 6.000e+02 6.000e+02 6.000e+02 6.000e+02 6.000e+02 6.000e+02 6.000e+02 6.000e+02 6.000e+02 6.000e+02 6.000e+02 6.000e+02 6.000e+02 6.000e+02 6.000e+02 6.000e+02 6.000e+02 6.000e+02 6.000e+02 6.000e+02 6.000e+02 6.000e+02 6.000e+02 6.000e+02 6.000e+02 6.000e+02 6.000e+02 6.000e+02 6.000e+02 6.000e+02 6.000e+02 6.000e+02 6.000e+02 6.000e+02 6.000e+02 6.000e+02 6.000e+02 6.000e+02 6.000e+02 6.000e+02 6.000e+02 6.000e+02 6.000e+02 6.000e+02 6.000e+02 6.000e+02 6.000e+02 6.000e+02 6.000e+02 6.000e+02 6.000e+02 6.000e+02 6.000e+02 6.000e+02 6.000e+02 6.000e+02 6.000e+02 6.000e+02 6.000e+02 6.000e+02 6.000e+02 6.000e+02 6.000e+02 6.000e+02 6.000e+02 6.000e+02 6.000e+02 6.000e+02 6.000e+02 6.000e+02 6.000e+02 6.000e+02 6.000e+02 6.000e+02 6.000e+02 6.000e+02 6.000e+02 6.000e+02 6.000e+02 6.000e+02 6.000e+02 6.000e+02 6.000e+02 6.000e+02 6.000e+02 6.000e+02 6.000e+02 6.000e+02 6.000e+02 6.000e+02 6.000e+02 6.000e+02
           </DataArray>
           <DataArray type="Float32" Name="nitrate/nutrientConcentrationAtTheRootSurface" NumberOfComponents="1" format="ascii">