<?xml version="1.0"?>
<VTKFile type="UnstructuredGrid" version="0.1" byte_order="LittleEndian">
   <UnstructuredGrid>
      <Piece NumberOfPoints="45270" NumberOfCells="3245">
         <Points>
            <DataArray type="Float32" Name="Position" NumberOfComponents="3" format="ascii">
0.068	-5.032	-0.142
0.072	-5.030	-0.134
0.070	-5.028	-0.125
0.063	-5.027	-0.119
0.053	-5.027	-0.119
0.045	-5.028	-0.124
0.042	-5.030	-0.132
0.044	-5.032	-0.141
0.051	-5.034	-0.146
0.061	-5.034	-0.147
0.079	-5.886	0.066
0.082	-5.884	0.074
0.080	-5.881	0.083
0.073	-5.880	0.088
0.063	-5.879	0.089
0.056	-5.880	0.084
0.052	-5.883	0.075
0.055	-5.885	0.067
0.062	-5.887	0.061
0.071	-5.887	0.061
0.023	-6.708	0.325
0.026	-6.705	0.333
0.023	-6.702	0.342
0.016	-6.699	0.347
0.007	-6.699	0.347
-0.001	-6.701	0.342
-0.004	-6.704	0.334
-0.001	-6.707	0.326
0.006	-6.709	0.320
0.015	-6.709	0.320
0.056	-7.496	0.664
0.059	-7.492	0.671
0.056	-7.488	0.679
0.049	-7.486	0.685
0.039	-7.486	0.685
0.032	-7.489	0.681
0.029	-7.493	0.673
0.031	-7.497	0.665
0.039	-7.499	0.660
0.048	-7.499	0.659
0.066	-7.574	0.711
0.069	-7.569	0.718
0.066	-7.565	0.726
0.059	-7.563	0.731
0.050	-7.563	0.732
0.042	-7.567	0.727
0.039	-7.572	0.720
0.042	-7.576	0.712
0.049	-7.578	0.707
0.059	-7.577	0.706
0.108	-5.081	-0.272
0.108	-5.076	-0.264
0.108	-5.076	-0.255
0.106	-5.082	-0.248
0.106	-5.091	-0.246
0.105	-5.100	-0.250
0.105	-5.105	-0.257
0.106	-5.104	-0.267
0.107	-5.098	-0.274
0.108	-5.089	-0.276
0.946	-5.157	-0.210
0.946	-5.152	-0.202
0.945	-5.152	-0.193
0.944	-5.158	-0.186
0.943	-5.167	-0.184
0.942	-5.176	-0.187
0.942	-5.181	-0.195
0.943	-5.180	-0.204
0.944	-5.174	-0.211
0.946	-5.165	-0.214
1.781	-5.274	-0.135
1.782	-5.270	-0.127
1.781	-5.270	-0.118
1.780	-5.276	-0.111
1.779	-5.285	-0.109
1.778	-5.294	-0.112
1.778	-5.298	-0.120
1.778	-5.298	-0.129
1.779	-5.292	-0.136
1.780	-5.283	-0.138
2.624	-5.365	-0.146
2.623	-5.360	-0.138
2.622	-5.360	-0.129
2.620	-5.366	-0.122
2.619	-5.374	-0.119
2.618	-5.383	-0.122
2.618	-5.388	-0.130
2.620	-5.388	-0.139
2.621	-5.383	-0.146
2.623	-5.374	-0.149
3.432	-5.503	0.098
3.432	-5.495	0.103
3.428	-5.493	0.112
3.424	-5.495	0.119
3.419	-5.503	0.123
3.417	-5.512	0.122
3.417	-5.519	0.116
3.421	-5.521	0.108
3.426	-5.519	0.100
3.430	-5.512	0.096
3.523	-5.554	0.168
3.523	-5.547	0.173
3.519	-5.542	0.180
3.513	-5.543	0.187
3.507	-5.549	0.191
3.503	-5.557	0.190
3.503	-5.565	0.185
3.506	-5.569	0.178
3.512	-5.568	0.171
3.519	-5.563	0.167
0.446	-5.990	-1.184
0.454	-5.988	-1.179
0.461	-5.991	-1.174
0.465	-5.998	-1.171
0.465	-6.007	-1.171
0.460	-6.015	-1.174
0.453	-6.018	-1.179
0.446	-6.015	-1.184
0.441	-6.007	-1.187
0.442	-5.998	-1.187
0.926	-6.009	-1.879
0.934	-6.007	-1.874
0.941	-6.010	-1.869
0.945	-6.017	-1.866
0.945	-6.026	-1.866
0.940	-6.034	-1.869
0.933	-6.037	-1.874
0.926	-6.034	-1.879
0.921	-6.026	-1.882
0.922	-6.017	-1.882
1.445	-6.064	-2.587
1.452	-6.061	-2.582
1.460	-6.064	-2.577
1.463	-6.072	-2.573
1.462	-6.081	-2.572
1.457	-6.088	-2.574
1.449	-6.091	-2.579
1.442	-6.088	-2.584
1.438	-6.080	-2.588
1.439	-6.071	-2.589
1.866	-6.288	-3.325
1.874	-6.286	-3.320
1.881	-6.289	-3.315
1.884	-6.297	-3.311
1.883	-6.306	-3.309
1.877	-6.313	-3.311
1.869	-6.315	-3.315
1.862	-6.312	-3.320
1.858	-6.304	-3.324
1.860	-6.295	-3.326
2.292	-6.494	-4.024
2.300	-6.492	-4.020
2.306	-6.495	-4.014
2.309	-6.502	-4.009
2.307	-6.511	-4.007
2.300	-6.518	-4.008
2.292	-6.520	-4.013
2.286	-6.516	-4.018
2.283	-6.509	-4.023
2.285	-6.500	-4.025
2.317	-6.515	-4.062
2.325	-6.514	-4.057
2.331	-6.517	-4.051
2.333	-6.524	-4.046
2.330	-6.533	-4.043
2.323	-6.539	-4.044
2.315	-6.540	-4.048
2.309	-6.537	-4.054
2.307	-6.530	-4.060
2.310	-6.521	-4.063
1.781	-18.875	-4.367
1.784	-18.867	-4.365
1.781	-18.858	-4.362
1.774	-18.853	-4.360
1.764	-18.853	-4.359
1.757	-18.859	-4.359
1.754	-18.867	-4.361
1.757	-18.876	-4.364
1.764	-18.881	-4.366
1.773	-18.881	-4.367
1.882	-19.087	-3.542
1.885	-19.079	-3.540
1.882	-19.070	-3.538
1.875	-19.064	-3.536
1.866	-19.064	-3.536
1.858	-19.069	-3.536
1.855	-19.078	-3.537
1.858	-19.087	-3.539
1.865	-19.092	-3.541
1.874	-19.092	-3.542
1.864	-19.086	-3.471
1.872	-19.086	-3.466
1.881	-19.086	-3.468
1.888	-19.086	-3.474
1.889	-19.086	-3.484
1.885	-19.086	-3.492
1.877	-19.086	-3.496
1.868	-19.086	-3.495
1.861	-19.086	-3.488
1.860	-19.086	-3.479
1.758	-19.005	-4.376
1.766	-19.002	-4.379
1.775	-19.004	-4.380
1.781	-19.011	-4.380
1.783	-19.020	-4.378
1.778	-19.027	-4.375
1.770	-19.031	-4.372
1.761	-19.029	-4.371
1.755	-19.022	-4.371
1.754	-19.013	-4.373
1.589	-19.221	-5.175
1.598	-19.218	-5.177
1.606	-19.221	-5.178
1.612	-19.228	-5.176
1.613	-19.237	-5.173
1.608	-19.244	-5.170
1.599	-19.247	-5.168
1.590	-19.244	-5.167
1.584	-19.237	-5.169
1.584	-19.228	-5.172
1.577	-19.265	-5.293
1.586	-19.263	-5.295
1.595	-19.266	-5.294
1.600	-19.274	-5.292
1.599	-19.282	-5.289
1.594	-19.289	-5.286
1.585	-19.291	-5.284
1.576	-19.288	-5.284
1.571	-19.280	-5.287
1.571	-19.272	-5.290
1.780	-19.174	-4.392
1.783	-19.166	-4.388
1.780	-19.158	-4.384
1.772	-19.153	-4.381
1.763	-19.153	-4.381
1.756	-19.158	-4.384
1.753	-19.166	-4.388
1.756	-19.173	-4.392
1.763	-19.178	-4.395
1.772	-19.178	-4.395
1.771	-19.595	-3.617
1.774	-19.588	-3.613
1.771	-19.580	-3.608
1.763	-19.575	-3.606
1.754	-19.575	-3.606
1.747	-19.579	-3.608
1.744	-19.587	-3.613
1.746	-19.595	-3.617
1.754	-19.600	-3.619
1.763	-19.600	-3.619
1.768	-19.306	-4.415
1.773	-19.302	-4.407
1.775	-19.304	-4.398
1.774	-19.310	-4.391
1.770	-19.318	-4.389
1.764	-19.325	-4.392
1.760	-19.328	-4.399
1.758	-19.327	-4.408
1.759	-19.321	-4.415
1.763	-19.313	-4.418
2.383	-19.682	-4.614
2.388	-19.678	-4.606
2.390	-19.680	-4.597
2.389	-19.686	-4.590
2.385	-19.694	-4.588
2.379	-19.701	-4.591
2.375	-19.704	-4.598
2.373	-19.703	-4.607
2.374	-19.697	-4.614
2.378	-19.689	-4.617
1.766	-19.454	-4.430
1.770	-19.451	-4.423
1.772	-19.452	-4.414
1.771	-19.458	-4.407
1.768	-19.467	-4.404
1.763	-19.474	-4.408
1.759	-19.478	-4.415
1.757	-19.476	-4.424
1.758	-19.470	-4.431
1.762	-19.462	-4.433
2.503	-19.813	-4.655
2.507	-19.809	-4.648
2.509	-19.811	-4.639
2.508	-19.817	-4.632
2.505	-19.825	-4.630
2.500	-19.833	-4.633
2.496	-19.836	-4.640
2.493	-19.834	-4.649
2.494	-19.828	-4.656
2.498	-19.820	-4.659
2.617	-19.879	-4.699
2.622	-19.876	-4.692
2.624	-19.877	-4.683
2.623	-19.883	-4.676
2.620	-19.891	-4.673
2.614	-19.898	-4.676
2.610	-19.902	-4.684
2.607	-19.900	-4.693
2.608	-19.894	-4.699
2.612	-19.886	-4.702
1.769	-19.626	-4.428
1.770	-19.619	-4.422
1.769	-19.610	-4.420
1.765	-19.602	-4.424
1.760	-19.599	-4.432
1.757	-19.601	-4.440
1.756	-19.608	-4.446
1.757	-19.617	-4.447
1.761	-19.625	-4.443
1.766	-19.628	-4.436
1.028	-19.822	-4.052
1.029	-19.815	-4.047
1.028	-19.805	-4.046
1.024	-19.798	-4.050
1.020	-19.795	-4.057
1.017	-19.797	-4.065
1.015	-19.804	-4.071
1.017	-19.813	-4.072
1.020	-19.821	-4.068
1.025	-19.824	-4.061
0.898	-19.843	-3.995
0.899	-19.836	-3.990
0.898	-19.827	-3.989
0.895	-19.819	-3.994
0.891	-19.816	-4.001
0.888	-19.819	-4.010
0.886	-19.826	-4.015
0.888	-19.835	-4.016
0.891	-19.843	-4.012
0.895	-19.846	-4.004
1.766	-19.775	-4.438
1.766	-19.769	-4.431
1.763	-19.761	-4.429
1.759	-19.753	-4.432
1.754	-19.749	-4.439
1.751	-19.751	-4.447
1.751	-19.757	-4.454
1.754	-19.766	-4.457
1.759	-19.773	-4.454
1.763	-19.777	-4.446
1.183	-20.032	-4.200
1.183	-20.025	-4.193
1.180	-20.017	-4.191
1.175	-20.009	-4.194
1.171	-20.006	-4.201
1.168	-20.007	-4.210
1.168	-20.013	-4.217
1.171	-20.022	-4.219
1.175	-20.030	-4.216
1.180	-20.033	-4.209
1.767	-19.919	-4.458
1.768	-19.910	-4.457
1.764	-19.902	-4.453
1.757	-19.898	-4.449
1.748	-19.900	-4.446
1.742	-19.907	-4.445
1.741	-19.916	-4.446
1.744	-19.924	-4.450
1.752	-19.928	-4.454
1.760	-19.925	-4.457
2.061	-20.076	-3.773
2.063	-20.067	-3.772
2.059	-20.059	-3.768
2.052	-20.056	-3.764
2.043	-20.058	-3.761
2.037	-20.065	-3.760
2.036	-20.074	-3.762
2.039	-20.081	-3.765
2.047	-20.085	-3.769
2.055	-20.083	-3.772
1.743	-20.051	-4.463
1.751	-20.048	-4.462
1.760	-20.050	-4.461
1.766	-20.057	-4.459
1.767	-20.066	-4.459
1.762	-20.074	-4.459
1.753	-20.077	-4.460
1.744	-20.075	-4.461
1.739	-20.068	-4.462
1.738	-20.059	-4.463
1.849	-20.101	-5.275
1.857	-20.097	-5.274
1.866	-20.099	-5.272
1.872	-20.106	-5.271
1.872	-20.116	-5.271
1.868	-20.123	-5.271
1.859	-20.127	-5.272
1.850	-20.125	-5.273
1.844	-20.118	-5.274
1.844	-20.108	-5.275
1.756	-20.204	-4.483
1.757	-20.198	-4.475
1.756	-20.198	-4.466
1.754	-20.204	-4.459
1.752	-20.212	-4.456
1.750	-20.221	-4.459
1.750	-20.226	-4.467
1.751	-20.226	-4.476
1.753	-20.221	-4.483
1.755	-20.212	-4.486
2.329	-20.342	-4.409
2.334	-20.334	-4.409
2.332	-20.325	-4.409
2.326	-20.318	-4.409
2.317	-20.317	-4.409
2.308	-20.321	-4.409
2.304	-20.329	-4.409
2.306	-20.338	-4.409
2.312	-20.345	-4.409
2.321	-20.346	-4.409
0.499	-6.131	-1.265
0.502	-6.124	-1.260
0.499	-6.116	-1.256
0.492	-6.110	-1.255
0.484	-6.108	-1.258
0.477	-6.111	-1.263
0.474	-6.118	-1.269
0.476	-6.126	-1.273
0.483	-6.132	-1.273
0.492	-6.134	-1.271
0.183	-6.555	-0.595
0.186	-6.547	-0.590
0.184	-6.539	-0.587
0.178	-6.532	-0.588
0.170	-6.529	-0.592
0.163	-6.532	-0.598
0.160	-6.539	-0.603
0.162	-6.548	-0.605
0.168	-6.555	-0.604
0.176	-6.557	-0.600
-0.344	-6.684	0.067
-0.341	-6.677	0.072
-0.342	-6.668	0.074
-0.347	-6.661	0.071
-0.353	-6.658	0.066
-0.359	-6.660	0.059
-0.362	-6.667	0.054
-0.361	-6.676	0.052
-0.356	-6.684	0.055
-0.350	-6.687	0.061
-0.977	-6.904	0.583
-0.975	-6.897	0.590
-0.977	-6.889	0.593
-0.983	-6.882	0.591
-0.989	-6.878	0.585
-0.994	-6.880	0.578
-0.996	-6.887	0.571
-0.993	-6.895	0.568
-0.988	-6.902	0.570
-0.982	-6.906	0.576
-1.200	-7.084	0.758
-1.199	-7.078	0.765
-1.202	-7.070	0.769
-1.208	-7.063	0.768
-1.215	-7.060	0.763
-1.220	-7.061	0.756
-1.221	-7.067	0.748
-1.218	-7.075	0.744
-1.212	-7.082	0.745
-1.205	-7.085	0.750
1.755	-20.352	-4.492
1.756	-20.347	-4.484
1.756	-20.348	-4.475
1.755	-20.355	-4.468
1.754	-20.364	-4.466
1.753	-20.372	-4.470
1.753	-20.376	-4.478
1.752	-20.375	-4.487
1.753	-20.369	-4.494
1.754	-20.360	-4.496
2.424	-20.424	-4.508
2.425	-20.420	-4.500
2.425	-20.421	-4.491
2.425	-20.427	-4.484
2.424	-20.436	-4.482
[...]
         <CellData>
           <DataArray type="Float32" Name="combinedRootClassID" NumberOfComponents="1" format="ascii">
 -1.300e+01 -1.300e+01 -1.300e+01 -1.300e+01 -1.300e+01 -1.300e+01 -1.300e+01 -1.300e+01 -1.300e+01 -1.300e+01 -1.300e+01 -1.300e+01 -1.300e+01 -1.300e+01 -1.300e+01 -1.300e+01 -1.300e+01 -1.300e+01 -1.300e+01 -1.300e+01 -1.300e+01 -1.300e+01 -1.300e+01 -1.300e+01 -1.300e+01 -1.300e+01 -1.300e+01 -1.300e+01 -1.300e+01 -1.300e+01 -1.300e+01 -1.300e+01 -1.300e+01 -1.300e+01 -1.300e+01 -1.300e+01 -1.300e+01 -1.300e+01 -1.300e+01 -1.300e+01 -1.300e+01 -1.300e+01 -1.300e+01 -1.300e+01 -1.300e+01 -1.300e+01 -1.300e+01 -1.300e+01 -1.300e+01 -1.300e+01 -1.300e+01 -1.300e+01 -1.300e+01 -1.300e+01 -1.300e+01 -1.300e+01 -1.300e+01 -1.300e+01 -1.300e+01 -1.300e+01 -1.300e+01 -1.300e+01 -1.300e+01 -1.300e+01 -1.300e+01 -1.300e+01 -1.300e+01 -1.300e+01 -1.300e+01 -1.300e+01 -1.300e+01 -1.300e+01 -1.300e+01 -1.300e+01 -1.300e+01 -1.300e+01 -1.300e+01 -1.300e+01 -1.300e+01 -1.300e+01 -1.300e+01 -1.300e+01 -1.300e+01 -1.300e+01 -1.300e+01 -1.300e+01 -1.300e+01 -1.300e+01 -1.300e+01 -1.300e+01 -1.300e+01 -1.300e+01 -1.300e+01 -1.300e+01 -1.300e+01 -1.300e+01 -1.300e+01 -1.300e+01 -1.300e+01 -1.300e+01 -1.300e+01 -1.300e+01 -1.300e+01 -1.300e+01 -1.300e+01 -1.300e+01 -1.300e+01 -1.300e+01 -1.300e+01 -1.300e+01 -1.300e+01 -1.300e+01 -1.300e+01 -1.300e+01 -1.300e+01 -1.300e+01 -1.300e+01 -1.300e+01 -1.300e+01 -1.300e+01 -1.300e+01 -1.300e+01 -1.300e+01 -1.300e+01 -1.300e+01 -1.300e+01 -1.300e+01 -1.300e+01 -1.300e+01 -1.300e+01 -1.300e+01 -1.300e+01 -1.300e+01 -1.300e+01 -1.300e+01 -1.300e+01 -1.300e+01 -1.300e+01 -1.300e+01 -1.300e+01 -1.300e+01 -1.300e+01 -1.300e+01 -1.300e+01 -1.300e+01 -1.300e+01 -1.300e+01 -1.300e+01 -1.300e+01 -1.300e+01 -1.300e+01 -1.300e+01 -1.300e+01 -1.300e+01 -1.300e+01 -1.300e+01 -1.300e+01 -1.300e+01 -1.300e+01 -1.300e+01 -1.300e+01 -1.300e+01 -1.300e+01 -1.300e+01 -1.300e+01 -1.300e+01 -1.300e+01 -1.300e+01 -1.300e+01 -1.300e+01 -1.300e+01 -1.300e+01 -1.300e+01 -1.300e+01 -1.300e+01 -1.300e+01 -1.300e+01 -1.300e+01 -1.300e+01 -1.300e+01 -1.300e+01 -1.300e+01 -1.300e+01 -1.300e+01 -1.300e+01 -1.300e+01 -1.300e+01 -1.300e+01 -1.300e+01 -1.300e+01 -1.300e+01 -1.300e+01 -1.300e+01 -1.300e+01 -1.300e+01 -1.300e+01 -1.300e+01 -1.300e+01 -1.300e+01 -1.300e+01 -1.300e+01 -1.300e+01 -1.300e+01 -1.300e+01 -1.300e+01 -1.300e+01 -1.300e+01 -1.300e+01 -1.300e+01 -1.300e+01 -1.300e+01 -1.300e+01 -1.300e+01 -1.300e+01 -1.300e+01 -1.300e+01 -1.300e+01 -1.300e+01 -1.300e+01 -1.300e+01 -1.300e+01 -1.300e+01 -1.300e+01 -1.300e+01 -1.300e+01 -1.300e+01 -1.300e+01 -1.300e+01 -1.300e+01 -1.300e+01 -1.300e+01 -1.300e+01 -1.300e+01 -1.300e+01 -1.300e+01 -1.300e+01 -1.300e+01 -1.300e+01 -1.300e+01 -1.300e+01 -1.300e+01 -1.300e+01 -1.300e+01 -1.300e+01 -1.300e+01 -1.300e+01 -1.300e+01 -1.300e+01 -1.300e+01 -1.300e+01 -1.300e+01 -1.300e+01 -1.300e+01 -1.300e+01 -1.300e+01 -1.300e+01 -1.300e+01 -1.300e+01 -1.300e+01 -1.300e+01 -1.300e+01 -1.300e+01 -1.300e+01 -1.300e+01 -1.300e+01 -1.300e+01 -1.300e+01 -1.300e+01 -1.300e+01 -1.300e+01 -1.300e+01 -1.300e+01 -1.300e+01 -1.300e+01 -1.300e+01 -1.300e+01 -1.300e+01 -1.300e+01 -1.300e+01 -1.300e+01 -1.300e+01 -1.300e+01 -1.300e+01 -1.300e+01 -1.300e+01 -1.300e+01 -1.300e+01 -1.300e+01 -1.300e+01 -1.300e+01 -1.300e+01 -1.300e+01 -1.300e+01 -1.300e+01 -1.300e+01 -1.300e+01 -1.300e+01 -1.300e+01 -1.300e+01 -1.300e+01 -1.300e+01 -1.300e+01 -1.300e+01 -1.300e+01 -1.300e+01 -1.300e+01 -1.300e+01 -1.300e+01 -1.300e+01 -1.300e+01 -1.300e+01 -1.300e+01 -1.300e+01 -1.300e+01 -1.300e+01 -1.300e+01 -1.300e+01 -1.300e+01 -1.300e+01 -1.300e+01 -1.300e+01 -1.300e+01 -1.300e+01 -1.300e+01 -1.300e+01 -1.300e+01 -1.300e+01 -1.300e+01 -1.300e+01 -1.300e+01 -1.300e+01 -1.300e+01 -1.300e+01 -1.300e+01 -1.300e+01 -5.000e+00 -5.000e+00 -5.000e+00 -5.000e+00 -5.000e+00 -5.000e+00 -5.000e+00 -5.000e+00 -5.000e+00 -5.000e+00 -5.000e+00 -5.000e+00 -5.000e+00 -5.000e+00 -5.000e+00 -5.000e+00 -5.000e+00 -5.000e+00 -5.000e+00 -5.000e+00 -5.000e+00 -5.000e+00 -5.000e+00 -5.000e+00 -5.000e+00 -5.000e+00 -5.000e+00 -5.000e+00 -5.000e+00 -5.000e+00 -5.000e+00 -5.000e+00 -5.000e+00 -5.000e+00 -5.000e+00 -5.000e+00 -5.000e+00 -5.000e+00 -1.300e+01 -1.300e+01 -1.300e+01 -1.300e+01 -1.300e+01 -1.300e+01 -1.300e+01 -1.300e+01 -1.300e+01 -1.300e+01 -1.300e+01 -1.300e+01 -1.300e+01 -1.300e+01 -1.300e+01 -1.300e+01 -1.300e+01 -1.300e+01 -1.300e+01 -1.300e+01 -1.300e+01 -1.300e+01 -1.300e+01 -1.300e+01 -1.300e+01 -1.300e+01 -1.300e+01 -1.300e+01 -1.300e+01 -1.300e+01 -1.300e+01 -1.300e+01 -1.300e+01 -1.300e+01 -1.300e+01 -1.300e+01 -1.300e+01 -1.300e+01 -1.300e+01 -1.300e+01 -1.300e+01 -1.300e+01 -1.300e+01 -1.300e+01 -1.300e+01 -1.300e+01 -1.300e+01 -1.300e+01 -1.300e+01 -1.300e+01 -1.300e+01 -1.300e+01 -1.300e+01 -1.300e+01 -1.300e+01 -1.300e+01 -1.300e+01 -1.300e+01 -1.300e+01 -1.300e+01 -1.300e+01 -1.300e+01 -1.300e+01 -1.300e+01 -1.300e+01 -1.300e+01 -1.300e+01 -1.300e+01 -1.300e+01 -1.300e+01 -1.300e+01 -1.300e+01 -1.300e+01 -1.300e+01 -1.300e+01 -1.300e+01 -1.300e+01 -1.300e+01 -1.300e+01 -1.300e+01 -1.300e+01 -1.300e+01 -1.300e+01 -1.300e+01 -1.300e+01 -1.300e+01 -1.300e+01 -1.300e+01 -1.300e+01 -1.300e+01 -1.300e+01 -1.300e+01 -1.300e+01 -1.300e+01 -1.300e+01 -1.300e+01 -1.300e+01 -1.300e+01 -1.300e+01 -1.300e+01 -1.300e+01 -1.300e+01 -1.300e+01 -1.300e+01 -1.300e+01 -1.300e+01 -1.300e+01 -1.300e+01 -1.300e+01 -1.300e+01 -1.300e+01 -1.300e+01 -1.300e+01 -1.300e+01 -1.300e+01 -1.300e+01 -1.300e+01 -1.300e+01 -1.300e+01 -1.300e+01 -1.300e+01 -1.300e+01 -1.300e+01 -1.300e+01 -1.300e+01 -1.300e+01 -1.300e+01 -1.300e+01 -1.300e+01 -1.300e+01 -1.300e+01 -1.300e+01 -1.300e+01 -1.300e+01 -1.300e+01 -1.300e+01 -1.300e+01 -1.300e+01 -1.300e+01 -1.300e+01 -1.300e+01 -1.300e+01 -1.300e+01 -1.300e+01 -1.300e+01 -1.300e+01 -1.300e+01 -1.300e+01 -1.300e+01 -1.300e+01 -1.300e+01 -1.300e+01 -1.300e+01 -1.300e+01 -1.300e+01 -1.300e+01 -1.300e+01 -1.300e+01 -1.300e+01 -1.300e+01 -1.300e+01 -1.300e+01 -1.300e+01 -1.300e+01 -1.300e+01 -1.300e+01 -1.300e+01 -1.300e+01 -1.300e+01 -1.300e+01 -1.300e+01 -1.300e+01 -1.300e+01 -1.300e+01 -1.300e+01 -1.300e+01 -1.300e+01 -1.300e+01 -1.300e+01 -1.300e+01 -1.300e+01 -1.300e+01 -1.300e+01 -1.300e+01 -1.300e+01 -1.300e+01 -1.300e+01 -1.300e+01 -1.300e+01 -1.300e+01 -1.300e+01 -1.300e+01 -1.300e+01 -1.300e+01 -1.300e+01 -1.300e+01 -1.300e+01 -1.300e+01 -1.300e+01 -1.300e+01 -1.300e+01 -1.300e+01 -1.300e+01 -1.300e+01 -1.300e+01 -1.300e+01 -1.300e+01 -1.300e+01 -1.300e+01 -1.300e+01 -1.300e+01 -1.300e+01 -1.300e+01 -1.300e+01 -1.300e+01 -1.300e+01 -1.300e+01 -1.300e+01 -1.300e+01 -1.300e+01 -1.300e+01 -1.300e+01 -1.300e+01 -1.300e+01 -1.300e+01 -1.300e+01 -1.300e+01 -1.300e+01 -1.300e+01 -1.300e+01 -1.300e+01 -1.300e+01 -1.300e+01 -1.300e+01 -1.300e+01 -1.300e+01 -1.300e+01 -1.300e+01 -1.300e+01 -1.300e+01 -1.300e+01 -1.300e+01 -1.300e+01 -1.300e+01 -1.300e+01 -1.300e+01 -1.300e+01 -1.300e+01 -1.300e+01 -1.300e+01 -1.300e+01 -1.300e+01 -1.300e+01 -1.300e+01 -1.300e+01 -1.300e+01 -1.300e+01 -1.300e+01 -1.300e+01 -1.300e+01 -1.300e+01 -1.300e+01 -1.300e+01 -1.300e+01 -1.300e+01 -1.300e+01 -1.300e+01 -1.300e+01 -1.300e+01 -1.300e+01 -1.300e+01 -1.300e+01 -1.300e+01 -1.300e+01 -1.300e+01 -1.300e+01 -1.300e+01 -1.300e+01 -1.300e+01 -1.300e+01 -1.300e+01 -1.300e+01 -1.300e+01 -1.300e+01 -1.300e+01 -1.300e+01 -1.300e+01 -1.300e+01 -1.300e+01 -1.300e+01 -1.300e+01 -1.300e+01 -1.300e+01 -1.300e+01 -1.300e+01 -1.300e+01 -1.300e+01 -1.300e+01 -1.300e+01 -1.300e+01 -1.300e+01 -1.300e+01 -1.300e+01 -1.300e+01 -1.300e+01 -1.300e+01 -1.300e+01 -1.300e+01 -1.300e+01 -1.300e+01 -1.300e+01 -1.300e+01 -1.300e+01 -1.300e+01 -1.300e+01 -1.300e+01 -1.300e+01 -1.300e+01 -1.300e+01 -1.300e+01 -1.300e+01 -1.300e+01 -1.300e+01 -1.300e+01 -1.300e+01 -1.300e+01 -1.300e+01 -1.300e+01 -1.300e+01 -1.300e+01 -1.300e+01 -1.300e+01 -5.000e+00 -5.000e+00 -5.000e+00 -5.000e+00 -5.000e+00 -5.000e+00 -5.000e+00 -5.000e+00 -5.000e+00 -5.000e+00 -5.000e+00 -5.000e+00 -5.000e+00 -5.000e+00 -5.000e+00 -5.000e+00 -5.000e+00 -5.000e+00 -5.000e+00 -5.000e+00 -5.000e+00 -5.000e+00 -5.000e+00 -5.000e+00 -5.000e+00 -5.000e+00 -5.000e+00 -5.000e+00 -5.000e+00 -5.000e+00 -5.000e+00 -5.000e+00 -5.000e+00 -5.000e+00 -5.000e+00 -5.000e+00 -5.000e+00 -5.000e+00 -1.300e+01 -1.300e+01 -1.300e+01 -1.300e+01 -1.300e+01 -1.300e+01 -1.300e+01 -1.300e+01 -1.300e+01 -1.300e+01 -1.300e+01 -1.300e+01 -1.300e+01 -1.300e+01 -1.300e+01 -1.300e+01 -1.300e+01 -1.300e+01 -1.300e+01 -1.300e+01 -1.300e+01 -1.300e+01 -1.300e+01 -1.300e+01 -1.300e+01 -1.300e+01 -1.300e+01 -1.300e+01 -1.300e+01 -1.300e+01 -1.300e+01 -1.300e+01 -1.300e+01 -1.300e+01 -1.300e+01 -1.300e+01 -1.300e+01 -1.300e+01 -1.300e+01 -1.300e+01 -1.300e+01 -1.300e+01 -1.300e+01 -1.300e+01 -1.300e+01 -1.300e+01 -1.300e+01 -1.300e+01 -1.300e+01 -1.300e+01 -1.300e+01 -1.300e+01 -1.300e+01 -1.300e+01 -1.300e+01 -1.300e+01 -1.300e+01 -1.300e+01 -1.300e+01 -1.300e+01 -1.300e+01 -1.300e+01 -1.300e+01 -1.300e+01 -1.300e+01 -1.300e+01 -1.300e+01 -1.300e+01 -1.300e+01 -1.300e+01 -1.300e+01 -1.300e+01 -1.300e+01 -1.300e+01 -1.300e+01 -1.300e+01 -1.300e+01 -1.300e+01 -1.300e+01 -1.300e+01 -1.300e+01 -1.300e+01 -1.300e+01 -1.300e+01 -1.300e+01 -1.300e+01 -1.300e+01 -1.300e+01 -1.300e+01 -1.300e+01 -1.300e+01 -1.300e+01 -1.300e+01 -1.300e+01 -1.300e+01 -1.300e+01 -1.300e+01 -1.300e+01 -1.300e+01 -1.300e+01 -1.300e+01 -1.300e+01 -1.300e+01 -1.300e+01 -1.300e+01 -1.300e+01 -1.300e+01 -1.300e+01 -1.300e+01 -1.300e+01 -1.300e+01 -1.300e+01 -1.300e+01 -1.300e+01 -1.300e+01 -1.300e+01 -1.300e+01 -1.300e+01 -1.300e+01 -1.300e+01 -1.300e+01 -1.300e+01 -1.300e+01 -1.300e+01 -1.300e+01 -1.300e+01 -1.300e+01 -1.300e+01 -1.300e+01 -1.300e+01 -1.300e+01 -1.300e+01 -1.300e+01 -1.300e+01 -1.300e+01 -1.300e+01 -1.300e+01 -1.300e+01 -1.300e+01 -1.300e+01 -1.300e+01 -1.300e+01 -1.300e+01 -1.300e+01 -1.300e+01 -1.300e+01 -1.300e+01 -1.300e+01 -1.300e+01 -1.300e+01 -1.300e+01 -1.300e+01 -1.300e+01 -1.300e+01 -1.300e+01 -1.300e+01 -1.300e+01 -1.300e+01 -1.300e+01 -1.300e+01 -1.300e+01 -1.300e+01 -1.300e+01 -1.300e+01 -1.300e+01 -1.300e+01 -1.300e+01 -1.300e+01 -1.300e+01 -1.300e+01 -1.300e+01 -1.300e+01 -1.300e+01 -1.300e+01 -1.300e+01 -1.300e+01 -1.300e+01 -1.300e+01 -1.300e+01 -1.300e+01 -1.300e+01 -1.300e+01 -1.300e+01 -1.300e+01 -1.300e+01 -1.300e+01 -1.300e+01 -1.300e+01 -1.300e+01 -1.300e+01 -1.300e+01 -1.300e+01 -1.300e+01 -1.300e+01 -1.300e+01 -1.300e+01 -1.300e+01 -1.300e+01 -1.300e+01 -1.300e+01 -1.300e+01 -1.300e+01 -1.300e+01 -1.300e+01 -1.300e+01 -1.300e+01 -1.300e+01 -1.300e+01 -1.300e+01 -1.300e+01 -1.300e+01 -1.300e+01 -1.300e+01 -1.300e+01 -1.300e+01 -1.300e+01 -1.300e+01 -1.300e+01 -1.300e+01 -1.300e+01 -1.300e+01 -1.300e+01 -1.300e+01 -1.300e+01 -1.300e+01 -1.300e+01 -1.300e+01 -1.300e+01 -1.300e+01 -1.300e+01 -1.300e+01 -1.300e+01 -1.300e+01 -1.300e+01 -1.300e+01 -1.300e+01 -1.300e+01 -1.300e+01 -1.300e+01 -1.300e+01 -1.300e+01 -1.300e+01 -1.300e+01 -1.300e+01 -1.300e+01 -1.300e+01 -1.300e+01 -1.300e+01 -1.300e+01 -1.300e+01 -1.300e+01 -1.300e+01 -1.300e+01 -1.300e+01 -1.300e+01 -1.300e+01 -1.300e+01 -1.300e+01 -1.300e+01 -1.300e+01 -1.300e+01 -1.300e+01 -1.300e+01 -1.300e+01 -1.300e+01 -1.300e+01 -1.300e+01 -1.300e+01 -1.300e+01 -1.300e+01 -1.300e+01 -1.300e+01 -1.300e+01 -1.300e+01 -1.300e+01 -1.300e+01 -1.300e+01 -1.300e+01 -1.300e+01 -1.300e+01 -1.300e+01 -1.300e+01 -1.300e+01 -1.300e+01 -1.300e+01 -1.300e+01 -1.300e+01 -1.300e+01 -1.300e+01 -1.300e+01 -1.300e+01 -1.300e+01 -1.300e+01 -1.300e+01 -1.300e+01 -1.300e+01 -1.300e+01 -1.300e+01 -1.300e+01 -1.300e+01 -1.300e+01 -1.300e+01 -1.300e+01 -1.300e+01 -1.300e+01 -1.300e+01 -1.300e+01 -1.300e+01 -1.300e+01 -1.300e+01 -1.300e+01 -1.300e+01 -1.300e+01 -1.300e+01 -1.300e+01 -1.300e+01 -1.300e+01 -1.300e+01 -1.300e+01 -1.300e+01 -1.300e+01 -1.300e+01 -1.300e+01 -1.300e+01 -1.300e+01 -1.300e+01 -1.300e+01 -1.300e+01 -1.300e+01 -1.300e+01 -1.300e+01 -1.300e+01 -1.300e+01 -1.300e+01 -1.300e+01 -1.300e+01 -1.300e+01 -1.300e+01 -1.300e+01 -1.300e+01 -1.300e+01 -5.000e+00 -5.000e+00 -5.000e+00 -5.000e+00 -5.000e+00 -5.000e+00 -5.000e+00 -5.000e+00 -5.000e+00 -5.000e+00 -5.000e+00 -5.000e+00 -5.000e+00 -5.000e+00 -5.000e+00 -5.000e+00 -5.000e+00 -5.000e+00 -5.000e+00 -5.000e+00 -5.000e+00 -5.000e+00 -5.000e+00 -5.000e+00 -5.000e+00 -5.000e+00 -5.000e+00 -5.000e+00 -5.000e+00 -5.000e+00 -5.000e+00 -5.000e+00 -5.000e+00 -5.000e+00 -5.000e+00 -5.000e+00 -5.000e+00 -5.000e+00 -1.300e+01 -1.300e+01 -1.300e+01 -1.300e+01 -1.300e+01 -1.300e+01 -1.300e+01 -1.300e+01 -1.300e+01 -1.300e+01 -1.300e+01 -1.300e+01 -1.300e+01 -1.300e+01 -1.300e+01 -1.300e+01 -1.300e+01 -1.300e+01 -1.300e+01 -1.300e+01 -1.300e+01 -1.300e+01 -1.300e+01 -1.300e+01 -1.300e+01 -1.300e+01 -1.300e+01 -1.300e+01 -1.300e+01 -1.300e+01 -1.300e+01 -1.300e+01 -1.300e+01 -1.300e+01 -1.300e+01 -1.300e+01 -1.300e+01 -1.300e+01 -1.300e+01 -1.300e+01 -1.300e+01 -1.300e+01 -1.300e+01 -1.300e+01 -1.300e+01 -1.300e+01 -1.300e+01 -1.300e+01 -1.300e+01 -1.300e+01 -1.300e+01 -1.300e+01 -1.300e+01 -1.300e+01 -1.300e+01 -1.300e+01 -1.300e+01 -1.300e+01 -1.300e+01 -1.300e+01 -1.300e+01 -1.300e+01 -1.300e+01 -1.300e+01 -1.300e+01 -1.300e+01 -1.300e+01 -1.300e+01 -1.300e+01 -1.300e+01 -1.300e+01 -1.300e+01 -1.300e+01 -1.300e+01 -1.300e+01 -1.300e+01 -1.300e+01 -1.300e+01 -1.300e+01 -1.300e+01 -1.300e+01 -1.300e+01 -1.300e+01 -1.300e+01 -1.300e+01 -1.300e+01 -1.300e+01 -1.300e+01 -1.300e+01 -1.300e+01 -1.300e+01 -1.300e+01 -1.300e+01 -1.300e+01 -1.300e+01 -1.300e+01 -1.300e+01 -1.300e+01 -1.300e+01 -1.300e+01 -1.300e+01 -1.300e+01 -1.300e+01 -1.300e+01 -1.300e+01 -1.300e+01 -1.300e+01 -1.300e+01 -1.300e+01 -1.300e+01 -1.300e+01 -1.300e+01 -1.300e+01 -1.300e+01 -1.300e+01 -1.300e+01 -1.300e+01 -1.300e+01 -1.300e+01 -1.300e+01 -1.300e+01 -1.300e+01 -1.300e+01 -1.300e+01 -1.300e+01 -1.300e+01 -1.300e+01 -1.300e+01 -1.300e+01 -1.300e+01 -1.300e+01 -1.300e+01 -1.300e+01 -1.300e+01 -1.300e+01 -1.300e+01 -1.300e+01 -1.300e+01 -1.300e+01 -1.300e+01 -1.300e+01 -1.300e+01 -1.300e+01 -1.300e+01 -1.300e+01 -1.300e+01 -1.300e+01 -1.300e+01 -1.300e+01 -1.300e+01 -1.300e+01 -1.300e+01 -1.300e+01 -1.300e+01 -1.300e+01 -1.300e+01 -1.300e+01 -1.300e+01 -1.300e+01 -1.300e+01 -1.300e+01 -1.300e+01 -1.300e+01 -1.300e+01 -1.300e+01 -1.300e+01 -1.300e+01 -1.300e+01 -1.300e+01 -1.300e+01 -1.300e+01 -1.300e+01 -1.300e+01 -1.300e+01 -1.300e+01 -1.300e+01 -1.300e+01 -1.300e+01 -1.300e+01 -1.300e+01 -1.300e+01 -1.300e+01 -1.300e+01 -1.300e+01 -1.300e+01 -1.300e+01 -1.300e+01 -1.300e+01 -1.300e+01 -1.300e+01 -1.300e+01 -1.300e+01 -1.300e+01 -1.300e+01 -1.300e+01 -1.300e+01 -1.300e+01 -1.300e+01 -1.300e+01 -1.300e+01 -1.300e+01 -1.300e+01 -1.300e+01 -1.300e+01 -1.300e+01 -1.300e+01 -1.300e+01 -1.300e+01 -1.300e+01 -1.300e+01 -1.300e+01 -1.300e+01 -1.300e+01 -1.300e+01 -1.300e+01 -1.300e+01 -1.300e+01 -1.300e+01 -1.300e+01 -1.300e+01 -1.300e+01 -1.300e+01 -1.300e+01 -1.300e+01 -1.300e+01 -1.300e+01 -1.300e+01 -1.300e+01 -1.300e+01 -1.300e+01 -1.300e+01 -1.300e+01 -1.300e+01 -1.300e+01 -1.300e+01 -1.300e+01 -1.300e+01 -1.300e+01 -1.300e+01 -1.300e+01 -1.300e+01 -1.300e+01 -1.300e+01 -1.300e+01 -1.300e+01 -1.300e+01 -1.300e+01 -1.300e+01 -1.300e+01 -1.300e+01 -1.300e+01 -1.300e+01 -1.300e+01 -1.300e+01 -1.300e+01 -1.300e+01 -1.300e+01 -1.300e+01 -1.300e+01 -1.300e+01 -1.300e+01 -1.300e+01 -1.300e+01 -1.300e+01 -1.300e+01 -1.300e+01 -1.300e+01 -1.300e+01 -1.300e+01 -1.300e+01 -1.300e+01 -1.300e+01 -1.300e+01 -1.300e+01 -1.300e+01 -1.300e+01 -1.300e+01 -1.300e+01 -1.300e+01 -1.300e+01 -1.300e+01 -1.300e+01 -1.300e+01 -1.300e+01 -1.300e+01 -1.300e+01 -1.300e+01 -1.300e+01 -1.300e+01 -1.300e+01 -1.300e+01 -1.300e+01 -1.300e+01 -1.300e+01 -1.300e+01 -1.300e+01 -1.300e+01 -1.300e+01 -1.300e+01 -1.300e+01 -1.300e+01 -1.300e+01 -1.300e+01 -1.300e+01 -1.300e+01 -1.300e+01 -1.300e+01 -1.300e+01 -1.300e+01 -1.300e+01 -1.300e+01 -1.300e+01 -1.300e+01 -1.300e+01 -1.300e+01 -1.300e+01 -1.300e+01 -1.300e+01 -1.300e+01 -1.300e+01 -1.300e+01 -1.300e+01 -1.300e+01 -1.300e+01 -1.300e+01 -1.300e+01 -1.300e+01 -1.300e+01 -1.300e+01 -1.300e+01 -1.300e+01 -1.300e+01 -1.300e+01 -1.300e+01 -1.300e+01 -1.300e+01 -1.300e+01 -1.300e+01 -1.300e+01 -1.300e+01 -1.300e+01 -1.300e+01 -1.300e+01 -1.300e+01 -1.300e+01 -1.300e+01 -5.000e+00 -5.000e+00 -5.000e+00 -5.000e+00 -5.000e+00 -5.000e+00 -5.000e+00 -5.000e+00 -5.000e+00 -5.000e+00 -5.000e+00 -5.000e+00 -5.000e+00 -5.000e+00 -5.000e+00 -5.000e+00 -5.000e+00 -5.000e+00 -5.000e+00 -5.000e+00 -5.000e+00 -5.000e+00 -5.000e+00 -5.000e+00 -5.000e+00 -5.000e+00 -5.000e+00 -5.000e+00 -5.000e+00 -5.000e+00 -5.000e+00 -5.000e+00 -5.000e+00 -5.000e+00 -5.000e+00 -5.000e+00 -5.000e+00 -5.000e+00 -1.900e+01 -1.900e+01 -1.900e+01 -1.900e+01 -1.900e+01 -1.900e+01 -1.900e+01 -1.900e+01 -1.900e+01 -1.900e+01 -1.900e+01 -1.900e+01 -1.900e+01 -1.900e+01 -1.900e+01 -1.900e+01 -1.900e+01 -1.900e+01 -1.900e+01 -1.900e+01 -1.900e+01 -1.900e+01 -1.900e+01 -1.900e+01 -1.900e+01 -1.900e+01 -1.900e+01 -1.900e+01 -1.900e+01 -1.900e+01 -1.900e+01 -1.900e+01 -1.900e+01 -1.900e+01 -1.900e+01 -1.900e+01 -1.900e+01 -1.900e+01 -1.900e+01 -1.900e+01 -1.900e+01 -1.900e+01 -1.900e+01 -1.900e+01 -1.900e+01 -1.900e+01 -1.900e+01 -1.900e+01 -1.900e+01 -1.900e+01 -1.900e+01 -1.900e+01 -1.900e+01 -1.900e+01 -1.900e+01 -1.900e+01 -1.900e+01 -1.900e+01 -1.900e+01 -1.900e+01 -1.900e+01 -1.900e+01 -1.900e+01 -1.900e+01 -1.900e+01 -1.900e+01 -1.900e+01 -1.900e+01 -1.900e+01 -1.900e+01 -1.900e+01 -1.900e+01 -1.900e+01 -1.900e+01 -1.900e+01 -1.900e+01 -1.900e+01 -1.900e+01 -1.900e+01 -1.900e+01 -1.900e+01 -1.900e+01 -1.900e+01 -1.900e+01 -1.900e+01 -1.900e+01 -1.900e+01 -1.900e+01 -1.900e+01 -1.900e+01 -1.900e+01 -1.900e+01 -1.900e+01 -1.900e+01 -1.900e+01 -1.900e+01 -1.900e+01 -1.900e+01 -1.900e+01 -1.900e+01 -1.900e+01 -1.900e+01 -1.900e+01 -1.900e+01 -1.900e+01 -1.900e+01 -1.900e+01 -1.900e+01 -1.900e+01 -1.900e+01 -1.900e+01 -1.900e+01 -9.000e+00 -9.000e+00 -9.000e+00 -9.000e+00 -9.000e+00 -9.000e+00 -9.000e+00 -9.000e+00 -9.000e+00 -9.000e+00 -9.000e+00 -9.000e+00 -9.000e+00 -9.000e+00 -9.000e+00 -9.000e+00 -9.000e+00 -9.000e+00 -9.000e+00 -9.000e+00 -9.000e+00 -9.000e+00 -9.000e+00 -9.000e+00 -9.000e+00 -9.000e+00 -9.000e+00 -1.900e+01 -1.900e+01 -1.900e+01 -1.900e+01 -1.900e+01 -1.900e+01 -1.900e+01 -1.900e+01 -1.900e+01 -1.900e+01 -1.900e+01 -1.900e+01 -1.900e+01 -1.900e+01 -1.900e+01 -1.900e+01 -1.900e+01 -1.900e+01 -1.900e+01 -1.900e+01 -1.900e+01 -1.900e+01 -1.900e+01 -1.900e+01 -1.900e+01 -1.900e+01 -1.900e+01 -1.900e+01 -1.900e+01 -1.900e+01 -1.900e+01 -1.900e+01 -1.900e+01 -1.900e+01 -1.900e+01 -1.900e+01 -1.900e+01 -1.900e+01 -1.900e+01 -1.900e+01 -1.900e+01 -1.900e+01 -1.900e+01 -1.900e+01 -1.900e+01 -1.900e+01 -1.900e+01 -1.900e+01 -1.900e+01 -1.900e+01 -1.900e+01 -1.900e+01 -1.900e+01 -1.900e+01 -1.900e+01 -1.900e+01 -1.900e+01 -1.900e+01 -1.900e+01 -1.900e+01 -1.900e+01 -1.900e+01 -1.900e+01 -1.900e+01 -1.900e+01 -1.900e+01 -1.900e+01 -1.900e+01 -1.900e+01 -1.900e+01 -1.900e+01 -1.900e+01 -1.900e+01 -1.900e+01 -1.900e+01 -1.900e+01 -1.900e+01 -1.900e+01 -1.900e+01 -1.900e+01 -1.900e+01 -1.900e+01 -1.900e+01 -1.900e+01 -1.900e+01 -1.900e+01 -1.900e+01 -1.900e+01 -1.900e+01 -1.900e+01 -1.900e+01 -1.900e+01 -1.900e+01 -1.900e+01 -1.900e+01 -1.900e+01 -1.900e+01 -1.900e+01 -1.900e+01 -1.900e+01 -1.900e+01 -1.900e+01 -1.900e+01 -1.900e+01 -1.900e+01 -1.900e+01 -1.900e+01 -1.900e+01 -1.900e+01 -1.900e+01 -9.000e+00 -9.000e+00 -9.000e+00 -9.000e+00 -9.000e+00 -9.000e+00 -9.000e+00 -9.000e+00 -9.000e+00 -9.000e+00 -9.000e+00 -9.000e+00 -9.000e+00 -9.000e+00 -9.000e+00 -9.000e+00 -9.000e+00 -9.000e+00 -9.000e+00 -9.000e+00 -9.000e+00 -9.000e+00 -9.000e+00 -9.000e+00 -9.000e+00 -9.000e+00 -9.000e+00 -1.900e+01 -1.900e+01 -1.900e+01 -1.900e+01 -1.900e+01 -1.900e+01 -1.900e+01 -1.900e+01 -1.900e+01 -1.900e+01 -1.900e+01 -1.900e+01 -1.900e+01 -1.900e+01 -1.900e+01 -1.900e+01 -1.900e+01 -1.900e+01 -1.900e+01 -1.900e+01 -1.900e+01 -1.900e+01 -1.900e+01 -1.900e+01 -1.900e+01