<?xml version="1.0"?>
<VTKFile type="UnstructuredGrid" version="0.1" byte_order="LittleEndian">
   <UnstructuredGrid>
      <Piece NumberOfPoints="1440" NumberOfCells="97">
         <Points>
            <DataArray type="Float32" Name="Position" NumberOfComponents="3" format="ascii">
-0.008	-4.963	-0.020
0.012	-4.961	-0.013
0.027	-4.970	-0.002
0.032	-4.986	0.010
0.025	-5.004	0.018
0.008	-5.017	0.019
-0.012	-5.019	0.012
-0.027	-5.010	0.001
-0.032	-4.994	-0.011
-0.024	-4.976	-0.019
0.251	-5.347	-0.664
0.271	-5.347	-0.656
0.284	-5.356	-0.643
0.286	-5.372	-0.629
0.275	-5.388	-0.620
0.256	-5.397	-0.619
0.237	-5.398	-0.626
0.224	-5.388	-0.639
0.222	-5.372	-0.653
0.232	-5.357	-0.663
0.466	-6.005	-1.223
0.484	-6.008	-1.213
0.493	-6.017	-1.197
0.490	-6.030	-1.181
0.476	-6.042	-1.171
0.456	-6.048	-1.171
0.438	-6.045	-1.181
0.428	-6.036	-1.197
0.431	-6.023	-1.213
0.445	-6.011	-1.223
0.613	-6.562	-1.599
0.630	-6.565	-1.588
0.639	-6.574	-1.571
0.635	-6.587	-1.554
0.619	-6.597	-1.545
0.599	-6.602	-1.545
0.581	-6.599	-1.556
0.573	-6.590	-1.573
0.577	-6.578	-1.590
0.592	-6.567	-1.599
0.010	-5.017	0.017
-0.002	-5.005	0.030
-0.012	-4.987	0.031
-0.018	-4.970	0.020
-0.017	-4.961	0.001
-0.009	-4.963	-0.018
0.002	-4.975	-0.031
0.013	-4.993	-0.032
0.019	-5.010	-0.021
0.017	-5.019	-0.002
-0.648	-5.385	-0.200
-0.662	-5.371	-0.193
-0.674	-5.354	-0.198
-0.679	-5.341	-0.213
-0.675	-5.337	-0.234
-0.665	-5.343	-0.251
-0.651	-5.357	-0.258
-0.639	-5.374	-0.253
-0.634	-5.387	-0.237
-0.638	-5.391	-0.217
-1.227	-6.011	-0.395
-1.244	-5.999	-0.390
-1.258	-5.986	-0.398
-1.264	-5.976	-0.416
-1.260	-5.974	-0.436
-1.248	-5.980	-0.452
-1.231	-5.992	-0.456
-1.217	-6.006	-0.448
-1.211	-6.015	-0.431
-1.215	-6.017	-0.410
-1.591	-6.569	-0.556
-1.593	-6.573	-0.535
-1.605	-6.569	-0.518
-1.622	-6.558	-0.511
-1.638	-6.546	-0.517
-1.647	-6.536	-0.533
-1.645	-6.533	-0.554
-1.633	-6.537	-0.571
-1.616	-6.547	-0.578
-1.600	-6.560	-0.572
0.025	-5.013	-0.002
0.033	-4.996	0.008
0.028	-4.977	0.015
0.012	-4.963	0.016
-0.008	-4.959	0.011
-0.025	-4.967	0.001
-0.032	-4.984	-0.009
-0.027	-5.003	-0.016
-0.012	-5.017	-0.017
0.008	-5.021	-0.012
-0.215	-5.326	0.679
-0.208	-5.311	0.692
-0.214	-5.293	0.702
-0.230	-5.280	0.705
-0.250	-5.276	0.700
-0.267	-5.283	0.689
-0.273	-5.299	0.676
-0.267	-5.317	0.667
-0.251	-5.330	0.664
-0.231	-5.333	0.669
-0.445	-5.896	1.303
-0.440	-5.883	1.319
-0.447	-5.868	1.332
-0.463	-5.857	1.338
-0.484	-5.853	1.334
-0.500	-5.860	1.322
-0.506	-5.873	1.306
-0.499	-5.888	1.293
-0.482	-5.899	1.288
-0.462	-5.902	1.292
-0.587	-6.406	1.737
-0.581	-6.394	1.753
-0.588	-6.380	1.767
-0.605	-6.370	1.774
-0.625	-6.367	1.770
-0.642	-6.373	1.758
-0.647	-6.385	1.742
-0.640	-6.399	1.728
-0.623	-6.409	1.721
-0.603	-6.412	1.725
0.015	-4.978	-0.028
0.016	-4.963	-0.013
0.011	-4.959	0.007
0.002	-4.966	0.024
-0.008	-4.983	0.032
-0.015	-5.003	0.027
-0.016	-5.017	0.012
-0.011	-5.021	-0.008
-0.001	-5.014	-0.025
0.009	-4.997	-0.033
0.706	-5.273	0.218
0.709	-5.259	0.233
0.705	-5.254	0.254
0.695	-5.261	0.271
0.682	-5.277	0.278
0.673	-5.295	0.273
0.669	-5.308	0.258
0.674	-5.313	0.237
0.684	-5.306	0.220
0.696	-5.291	0.213
1.348	-5.843	0.433
1.355	-5.831	0.449
1.352	-5.827	0.469
1.340	-5.832	0.486
1.325	-5.845	0.493
1.311	-5.860	0.487
1.305	-5.872	0.471
1.308	-5.876	0.450
1.320	-5.870	0.434
1.335	-5.858	0.427
1.755	-6.386	0.653
1.755	-6.367	0.663
1.755	-6.347	0.660
1.755	-6.332	0.645
1.755	-6.328	0.624
1.755	-6.338	0.605
1.755	-6.357	0.596
1.755	-6.377	0.599
1.755	-6.392	0.614
1.755	-6.396	0.635
-0.151	-4.996	0.146
-0.036	-4.995	0.207
0.093	-4.997	0.188
0.186	-4.999	0.098
0.208	-5.002	-0.030
0.151	-5.004	-0.146
0.036	-5.005	-0.207
-0.093	-5.003	-0.188
-0.186	-5.001	-0.098
-0.208	-4.998	0.030
-0.143	-4.248	0.130
-0.029	-4.248	0.189
0.098	-4.248	0.170
0.189	-4.249	0.079
0.210	-4.251	-0.047
0.153	-4.252	-0.162
0.039	-4.253	-0.221
-0.088	-4.253	-0.202
-0.180	-4.251	-0.112
-0.201	-4.250	0.015
-0.145	-3.560	0.127
-0.031	-3.559	0.185
0.095	-3.559	0.165
0.186	-3.559	0.075
0.206	-3.560	-0.051
0.148	-3.561	-0.165
0.034	-3.561	-0.224
-0.092	-3.562	-0.204
-0.183	-3.561	-0.113
-0.203	-3.561	0.013
-0.146	-2.400	0.118
-0.033	-2.399	0.176
0.093	-2.399	0.156
0.183	-2.399	0.067
0.203	-2.400	-0.059
0.145	-2.401	-0.172
0.032	-2.402	-0.230
-0.093	-2.402	-0.210
-0.183	-2.402	-0.120
-0.203	-2.401	0.005
-0.150	-1.801	0.114
-0.037	-1.800	0.171
0.088	-1.799	0.151
0.178	-1.799	0.061
0.197	-1.799	-0.064
0.140	-1.800	-0.176
0.027	-1.801	-0.234
-0.098	-1.802	-0.214
-0.187	-1.802	-0.124
-0.207	-1.802	0.001
-0.153	-1.201	0.112
-0.040	-1.200	0.170
0.085	-1.200	0.150
0.174	-1.200	0.060
0.194	-1.200	-0.064
0.136	-1.200	-0.177
0.024	-1.201	-0.234
-0.101	-1.201	-0.214
-0.190	-1.201	-0.125
-0.210	-1.201	-0.000
-0.153	-0.300	0.109
-0.041	-0.300	0.166
0.083	-0.300	0.146
0.172	-0.300	0.058
0.192	-0.301	-0.067
0.135	-0.301	-0.179
0.023	-0.301	-0.236
-0.101	-0.301	-0.217
-0.190	-0.301	-0.128
-0.210	-0.300	-0.004
-0.151	0.560	0.106
-0.039	0.560	0.163
0.085	0.560	0.143
0.174	0.560	0.054
0.193	0.560	-0.070
0.136	0.559	-0.182
0.024	0.559	-0.239
-0.100	0.559	-0.219
-0.188	0.559	-0.130
-0.208	0.560	-0.006
-0.152	1.439	0.107
-0.041	1.439	0.163
0.083	1.440	0.144
0.171	1.440	0.055
0.191	1.440	-0.069
0.133	1.440	-0.180
0.022	1.440	-0.237
-0.102	1.439	-0.217
-0.190	1.439	-0.128
-0.209	1.439	-0.004
-0.157	2.315	0.107
-0.045	2.315	0.163
0.077	2.316	0.143
0.165	2.317	0.055
0.184	2.317	-0.068
0.127	2.317	-0.179
0.016	2.317	-0.235
-0.107	2.316	-0.215
-0.194	2.315	-0.127
-0.213	2.315	-0.004
-0.156	2.568	0.107
-0.046	2.569	0.163
0.076	2.569	0.143
0.163	2.570	0.055
0.182	2.570	-0.067
0.125	2.570	-0.177
0.015	2.570	-0.232
-0.107	2.570	-0.213
-0.194	2.569	-0.125
-0.213	2.569	-0.003
0.002	-5.112	0.012
0.002	-5.104	0.017
0.001	-5.095	0.017
-0.001	-5.088	0.012
-0.002	-5.085	0.003
-0.003	-5.088	-0.006
-0.003	-5.096	-0.011
-0.002	-5.105	-0.011
-0.000	-5.112	-0.005
0.001	-5.115	0.003
-0.885	-5.221	0.141
-0.883	-5.212	0.145
-0.882	-5.203	0.143
-0.881	-5.197	0.136
-0.882	-5.196	0.127
-0.883	-5.201	0.119
-0.884	-5.209	0.115
-0.885	-5.218	0.117
-0.886	-5.224	0.124
-0.886	-5.225	0.133
-1.334	-5.022	0.106
-1.331	-5.013	0.108
-1.327	-5.006	0.106
-1.324	-5.001	0.098
-1.324	-5.001	0.089
-1.325	-5.006	0.081
-1.329	-5.014	0.079
-1.333	-5.022	0.081
-1.335	-5.027	0.089
-1.336	-5.027	0.098
-0.004	-5.188	-0.002
0.002	-5.185	0.004
0.007	-5.188	0.011
0.009	-5.196	0.016
0.007	-5.205	0.018
0.002	-5.212	0.015
-0.004	-5.214	0.008
-0.009	-5.212	0.001
-0.011	-5.204	-0.004
-0.009	-5.195	-0.006
0.638	-5.408	-0.550
0.645	-5.405	-0.545
0.652	-5.408	-0.540
0.656	-5.416	-0.536
0.655	-5.425	-0.535
0.650	-5.433	-0.538
0.642	-5.435	-0.542
0.635	-5.432	-0.548
0.632	-5.425	-0.551
0.632	-5.415	-0.552
0.801	-5.403	-1.014
0.809	-5.399	-1.011
0.817	-5.402	-1.008
0.823	-5.409	-1.006
0.823	-5.418	-1.006
0.818	-5.426	-1.008
0.810	-5.429	-1.011
0.802	-5.427	-1.014
0.796	-5.420	-1.016
0.796	-5.410	-1.016
0.020	-6.111	0.037
0.017	-6.105	0.043
0.013	-6.097	0.045
0.010	-6.089	0.040
0.008	-6.085	0.032
0.009	-6.087	0.023
0.011	-6.093	0.016
0.015	-6.101	0.015
0.018	-6.109	0.019
0.020	-6.113	0.027
-0.739	-6.443	0.048
-0.740	-6.437	0.055
-0.743	-6.428	0.057
-0.747	-6.421	0.053
-0.750	-6.417	0.045
-0.751	-6.419	0.036
-0.750	-6.425	0.029
-0.747	-6.434	0.027
-0.743	-6.441	0.031
-0.740	-6.445	0.039
-0.871	-6.487	0.092
-0.866	-6.479	0.092
-0.868	-6.470	0.092
-0.874	-6.463	0.092
-0.884	-6.462	0.092
-0.892	-6.466	0.092
-0.896	-6.474	0.092
-0.895	-6.484	0.092
-0.888	-6.490	0.092
-0.879	-6.492	0.092
0.018	-6.188	0.027
0.021	-6.184	0.035
0.023	-6.186	0.044
0.024	-6.193	0.050
0.022	-6.202	0.051
0.020	-6.210	0.047
0.017	-6.213	0.039
0.015	-6.211	0.030
0.014	-6.204	0.024
0.015	-6.195	0.023
0.821	-6.332	-0.212
0.825	-6.328	-0.204
0.829	-6.331	-0.196
0.830	-6.338	-0.190
0.828	-6.347	-0.189
0.825	-6.355	-0.193
0.821	-6.358	-0.200
0.818	-6.356	-0.209
0.816	-6.348	-0.214
0.818	-6.339	-0.216
0.948	-6.364	-0.289
0.956	-6.360	-0.289
0.965	-6.362	-0.289
0.972	-6.368	-0.289
0.973	-6.377	-0.289
0.969	-6.386	-0.289
0.961	-6.390	-0.289
0.952	-6.388	-0.289
0.945	-6.382	-0.289
0.944	-6.373	-0.289
0.023	-6.286	0.037
0.025	-6.283	0.045
0.028	-6.285	0.054
0.029	-6.293	0.060
0.029	-6.302	0.060
0.028	-6.310	0.055
0.026	-6.313	0.047
0.024	-6.311	0.038
0.022	-6.303	0.033
0.022	-6.294	0.032
0.809	-6.284	-0.168
0.813	-6.280	-0.160
0.816	-6.283	-0.152
0.818	-6.290	-0.146
0.818	-6.300	-0.146
0.815	-6.307	-0.150
0.812	-6.310	-0.158
0.809	-6.308	-0.167
0.807	-6.301	-0.172
0.807	-6.291	-0.173
0.952	-6.301	-0.249
0.957	-6.298	-0.241
0.961	-6.301	-0.234
0.963	-6.308	-0.228
0.962	-6.317	-0.228
0.959	-6.325	-0.232
0.954	-6.328	-0.239
0.950	-6.325	-0.247
0.948	-6.318	-0.252
0.949	-6.309	-0.253
0.026	-6.403	0.067
0.027	-6.394	0.068
0.029	-6.386	0.064
0.033	-6.382	0.057
0.037	-6.385	0.049
0.039	-6.392	0.043
0.039	-6.401	0.042
0.036	-6.409	0.046
0.032	-6.412	0.053
0.028	-6.410	0.062
-0.659	-6.332	-0.264
-0.659	-6.323	-0.263
-0.656	-6.315	-0.267
-0.652	-6.311	-0.274
-0.648	-6.313	-0.282
-0.646	-6.320	-0.288
-0.647	-6.330	-0.289
-0.649	-6.337	-0.285
-0.653	-6.341	-0.278
-0.657	-6.339	-0.269
0.026	-6.486	0.064
0.034	-6.482	0.065
0.043	-6.484	0.066
0.049	-6.491	0.066
0.050	-6.500	0.067
0.046	-6.508	0.067
0.037	-6.512	0.066
0.028	-6.510	0.065
0.022	-6.503	0.064
0.021	-6.494	0.064
0.098	-6.508	-0.696
0.106	-6.505	-0.695
0.115	-6.507	-0.694
0.122	-6.514	-0.693
0.122	-6.523	-0.693
0.118	-6.531	-0.693
0.109	-6.535	-0.694
0.100	-6.533	-0.695
0.094	-6.526	-0.696
0.093	-6.516	-0.696
0.027	-6.595	0.085
0.027	-6.587	0.080
0.031	-6.583	0.073
0.038	-6.584	0.067
0.045	-6.589	0.064
0.049	-6.597	0.066
0.050	-6.605	0.071
0.045	-6.609	0.078
0.039	-6.608	0.084
0.032	-6.603	0.087
-0.496	-6.988	-0.453
-0.495	-6.981	-0.459
-0.490	-6.977	-0.466
-0.482	-6.978	-0.471
-0.475	-6.984	-0.472
-0.471	-6.991	-0.470
-0.472	-6.999	-0.464
-0.477	-7.002	-0.457
-0.484	-7.001	-0.452
-0.492	-6.996	-0.451
-0.534	-7.036	-0.515
-0.526	-7.036	-0.511
-0.517	-7.036	-0.512
-0.510	-7.036	-0.519
-0.509	-7.036	-0.528
-0.513	-7.036	-0.536
-0.521	-7.036	-0.540
-0.530	-7.036	-0.539
-0.537	-7.036	-0.532
[...]
         <CellData>
           <DataArray type="Float32" Name="combinedRootClassID" NumberOfComponents="1" format="ascii">
 -5.000e+00 -5.000e+00 -5.000e+00 -5.000e+00 -5.000e+00 -5.000e+00 -5.000e+00 -5.000e+00 -5.000e+00 -5.000e+00 -5.000e+00 -5.000e+00 -2.000e+00 -2.000e+00 -2.000e+00 -2.000e+00 -2.000e+00 -2.000e+00 -2.000e+00 -2.000e+00 -2.000e+00 -2.000e+00 -7.000e+00 -7.000e+00 -7.000e+00 -7.000e+00 -7.000e+00 -7.000e+00 -7.000e+00 -7.000e+00 -7.000e+00 -7.000e+00 -7.000e+00 -7.000e+00 -7.000e+00 -7.000e+00 -7.000e+00 -7.000e+00 -7.000e+00 -7.000e+00 -7.000e+00 -7.000e+00 -7.000e+00 -7.000e+00 -7.000e+00 -7.000e+00 -7.000e+00 -7.000e+00 -7.000e+00 -7.000e+00 -7.000e+00 -7.000e+00 -7.000e+00 -7.000e+00 -7.000e+00 -7.000e+00 -7.000e+00 -7.000e+00 -7.000e+00 -7.000e+00 -7.000e+00 -7.000e+00 -7.000e+00 -7.000e+00 -7.000e+00 -7.000e+00 -7.000e+00 -7.000e+00 -7.000e+00 -7.000e+00 -7.000e+00 -7.000e+00 -7.000e+00 -7.000e+00 -7.000e+00 -7.000e+00 -7.000e+00 -4.000e+00 -4.000e+00 -4.000e+00 -4.000e+00 -4.000e+00 -4.000e+00 -4.000e+00 -4.000e+00 -4.000e+00 -4.000e+00 -4.000e+00 -4.000e+00 -4.000e+00 -4.000e+00 -4.000e+00 -4.000e+00 -4.000e+00 -4.000e+00 -4.000e+00 -4.000e+00
           </DataArray>
           <DataArray type="Float32" Name="nitrate/Cmin" NumberOfComponents="1" format="ascii">
 1.000e-03 1.000e-03 1.000e-03 1.000e-03 1.000e-03 1.000e-03 1.000e-03 1.000e-03 1.000e-03 1.000e-03 1.000e-03 1.000e-03 1.000e-03 1.000e-03 1.000e-03 1.000e-03 1.000e-03 1.000e-03 1.000e-03 1.000e-03 1.000e-03 1.000e-03 1.000e-03 1.000e-03 1.000e-03 1.000e-03 1.000e-03 1.000e-03 1.000e-03 1.000e-03 1.000e-03 1.000e-03 1.000e-03 1.000e-03 1.000e-03 1.000e-03 1.000e-03 1.000e-03 1.000e-03 1.000e-03 1.000e-03 1.000e-03 1.000e-03 1.000e-03 1.000e-03 1.000e-03 1.000e-03 1.000e-03 1.000e-03 1.000e-03 1.000e-03 1.000e-03 1.000e-03 1.000e-03 1.000e-03 1.000e-03 1.000e-03 1.000e-03 1.000e-03 1.000e-03 1.000e-03 1.000e-03 1.000e-03 1.000e-03 1.000e-03 1.000e-03 1.000e-03 1.000e-03 1.000e-03 1.000e-03 1.000e-03 1.000e-03 1.000e-03 1.000e-03 1.000e-03 1.000e-03 1.000e-03 1.000e-03 1.000e-03 1.000e-03 1.000e-03 1.000e-03 1.000e-03 1.000e-03 1.000e-03 1.000e-03 1.000e-03 1.000e-03 1.000e-03 1.000e-03 1.000e-03 1.000e-03 1.000e-03 1.000e-03 1.000e-03 1.000e-03 1.000e-03
           </DataArray>
           <DataArray type="Float32" Name="nitrate/Imax" NumberOfComponents="1" format="ascii">
 1.900e+00 1.900e+00 1.900e+00 1.900e+00 1.900e+00 1.900e+00 1.900e+00 1.900e+00 1.900e+00 1.900e+00 1.900e+00 1.900e+00 1.900e+00 1.900e+00 1.900e+00 1.900e+00 1.900e+00 1.900e+00 1.900e+00 1.900e+00 1.900e+00 1.900e+00 1.900e+00 1.900e+00 1.900e+00 1.900e+00 1.900e+00 1.900e+00 1.900e+00 1.900e+00 1.900e+00 1.900e+00 1.900e+00 1.900e+00 1.900e+00 1.900e+00 1.900e+00 1.900e+00 1.900e+00 1.900e+00 1.900e+00 1.900e+00 1.900e+00 1.900e+00 1.900e+00 1.900e+00 1.900e+00 1.900e+00 1.900e+00 1.900e+00 1.900e+00 1.900e+00 1.900e+00 1.900e+00 1.900e+00 1.900e+00 1.900e+00 1.900e+00 1.900e+00 1.900e+00 1.900e+00 1.900e+00 1.900e+00 1.900e+00 1.900e+00 1.900e+00 1.900e+00 1.900e+00 1.900e+00 1.900e+00 1.900e+00 1.900e+00 1.900e+00 1.900e+00 1.900e+00 1.900e+00 1.900e+00 1.900e+00 1.900e+00 1.900e+00 1.900e+00 1.900e+00 1.900e+00 1.900e+00 1.900e+00 1.900e+00 1.900e+00 1.900e+00 1.900e+00 1.900e+00 1.900e+00 1.900e+00 1.900e+00 1.900e+00 1.900e+00 1.900e+00 1.900e+00
           </DataArray>
           <DataArray type="Float32" Name="nitrate/Km" NumberOfComponents="1" format="ascii">
 1.610e-02 1.610e-02 1.610e-02 1.610e-02 1.610e-02 1.610e-02 1.610e-02 1.610e-02 1.610e-02 1.610e-02 1.610e-02 1.610e-02 1.610e-02 1.610e-02 1.610e-02 1.610e-02 1.610e-02 1.610e-02 1.610e-02 1.610e-02 1.610e-02 1.610e-02 1.610e-02 1.610e-02 1.610e-02 1.610e-02 1.610e-02 1.610e-02 1.610e-02 1.610e-02 1.610e-02 1.610e-02 1.610e-02 1.610e-02 1.610e-02 1.610e-02 1.610e-02 1.610e-02 1.610e-02 1.610e-02 1.610e-02 1.610e-02 1.610e-02 1.610e-02 1.610e-02 1.610e-02 1.610e-02 1.610e-02 1.610e-02 1.610e-02 1.610e-02 1.610e-02 1.610e-02 1.610e-02 1.610e-02 1.610e-02 1.610e-02 1.610e-02 1.610e-02 1.610e-02 1.610e-02 1.610e-02 1.610e-02 1.610e-02 1.610e-02 1.610e-02 1.610e-02 1.610e-02 1.610e-02 1.610e-02 1.610e-02 1.610e-02 1.610e-02 1.610e-02 1.610e-02 1.610e-02 1.610e-02 1.610e-02 1.610e-02 1.610e-02 1.610e-02 1.610e-02 1.610e-02 1.610e-02 1.610e-02 1.610e-02 1.610e-02 1.610e-02 1.610e-02 1.610e-02 1.610e-02 1.610e-02 1.610e-02 1.610e-02 1.610e-02 1.610e-02 1.610e-02
           </DataArray>
           <DataArray type="Float32" Name="nitrate/minimalNutrientConcentration" NumberOfComponents="1" format="ascii">
 6.000e+02 6.000e+02 6.000e+02 6.000e+02 6.000e+02 6.000e+02 6.000e+02 6.000e+02 6.000e+02 6.000e+02 6.000e+02 6.000e+02 6.000e+02 6.000e+02 6.000e+02 6.000e+02 6.000e+02 6.000e+02 6.000e+02 6.000e+02 6.000e+02 6.000e+02 6.000e+02 6.000e+02 6.000e+02 6.000e+02 6.000e+02 6.000e+02 6.000e+02 6.000e+02 6.000e+02 6.000e+02 6.000e+02 6.000e+02 6.000e+02 6.000e+02 6.000e+02 6.000e+02 6.000e+02 6.000e+02 6.000e+02 6.000e+02 6.000e+02 6.000e+02 6.000e+02 6.000e+02 6.000e+02 6.000e+02 6.000e+02 6.000e+02 6.000e+02 6.000e+02 6.000e+02 6.000e+02 6.000e+02 6.000e+02 6.000e+02 6.000e+02 6.000e+02 6.000e+02 6.000e+02 6.000e+02 6.000e+02 6.000e+02 6.000e+02 6.000e+02 6.000e+02 6.000e+02 6.000e+02 6.000e+02 6.000e+02 6.000e+02 6.000e+02 6.000e+02 6.000e+02 6.000e+02 6.000e+02 6.000e+02 6.000e+02 6.000e+02 6.000e+02 6.000e+02 6.000e+02 6.000e+02 6.000e+02 6.000e+02 6.000e+02 6.000e+02 6.000e+02 6.000e+02 6.000e+02 6.000e+02 6.000e+02 6.000e+02 6.000e+02 6.000e+02 6.000e+02
           </DataArray>
           <DataArray type="Float32" Name="nitrate/nutrientConcentrationAtTheRootSurface" NumberOfComponents="1" format="ascii">
 4.307e-01 4.486e-01 6.012e-01 4.307e-01 4.752e-01 5.809e-01 4.307e-01 4.856e-01 6.096e-01 4.307e-01 4.944e-01 5.651e-01 4.308e-01 4.127e-01 3.920e-01 3.267e-01 2.891e-01 2.606e-01 2.117e-01 0.000e+00 0.000e+00 0.000e+00 4.322e-01 4.856e-01 4.362e-01 5.045e-01 4.698e-01 5.549e-01 4.760e-01 5.703e-01 4.930e-01 5.648e-01 5.024e-01 5.124e-01 5.207e-01 6.518e-01 5.257e-01 5.316e-01 5.287e-01 5.293e-01 4.449e-01 5.139e-01 5.303e-01 5.343e-01 5.421e-01 5.466e-01 5.433e-01 5.489e-01 5.382e-01 5.242e-01 5.104e-01 5.037e-01 4.491e-01 5.143e-01 5.053e-01 5.113e-01 5.255e-01 5.315e-01 5.424e-01 5.300e-01 5.192e-01 4.994e-01 4.842e-01 4.781e-01 4.534e-01 5.197e-01 4.792e-01 4.570e-01 4.705e-01 4.595e-01 5.263e-01 4.604e-01 5.024e-01 4.661e-01 5.578e-01 4.676e-01 5.383e-01 4.308e-01 4.596e-01 5.038e-01 5.305e-01 5.180e-01 5.413e-01 4.970e-01 5.267e-01 6.184e-01 6.445e-01 6.216e-01 6.122e-01 6.138e-01 5.870e-01 6.340e-01 7.163e-01 7.569e-01 8.294e-01 8.871e-01 9.433e-01
           </DataArray>
           <DataArray type="Float32" Name="nitrate/optimalNutrientConcentration" NumberOfComponents="1" format="ascii">
 1.200e+03 1.200e+03 1.200e+03 1.200e+03 1.200e+03 1.200e+03 1.200e+03 1.200e+03 1.200e+03 1.200e+03 1.200e+03 1.200e+03 1.200e+03 1.200e+03 1.200e+03 1.200e+03 1.200e+03 1.200e+03 1.200e+03 1.200e+03 1.200e+03 1.200e+03 1.200e+03 1.200e+03 1.200e+03 1.200e+03 1.200e+03 1.200e+03 1.200e+03 1.200e+03 1.200e+03 1.200e+03 1.200e+03 1.200e+03 1.200e+03 1.200e+03 1.200e+03 1.200e+03 1.200e+03 1.200e+03 1.200e+03 1.200e+03 1.200e+03 1.200e+03 1.200e+03 1.200e+03 1.200e+03 1.200e+03 1.200e+03 1.200e+03 1.200e+03 1.200e+03 1.200e+03 1.200e+03 1.200e+03 1.200e+03 1.200e+03 1.200e+03 1.200e+03 1.200e+03 1.200e+03 1.200e+03 1.200e+03 1.200e+03 1.200e+03 1.200e+03 1.200e+03 1.200e+03 1.200e+03 1.200e+03 1.200e+03 1.200e+03 1.200e+03 1.200e+03 1.200e+03 1.200e+03 1.200e+03 1.200e+03 1.200e+03 1.200e+03 1.200e+03 1.200e+03 1.200e+03 1.200e+03 1.200e+03 1.200e+03 1.200e+03 1.200e+03 1.200e+03 1.200e+03 1.200e+03 1.200e+03 1.200e+03 1.200e+03 1.200e+03 1.200e+03 1.200e+03
           </DataArray>
           <DataArray type="Float32" Name="nitrate/rootSegmentMinimalNutrientContent" NumberOfComponents="1" format="ascii">
 1.632e-01 1.811e-01 1.406e-01 1.632e-01 1.811e-01 1.406e-01 1.632e-01 1.811e-01 1.406e-01 1.632e-01 1.811e-01 1.406e-01 5.806e+00 5.260e+00 8.735e+00 4.488e+00 4.462e+00 6.659e+00 6.322e+00 6.436e+00 6.333e+00 1.809e+00 3.686e-02 1.981e-02 3.644e-02 2.036e-02 3.337e-02 6.116e-03 3.449e-02 6.576e-03 3.331e-02 6.621e-03 3.291e-02 3.117e-02 3.453e-02 3.528e-03 3.033e-02 2.889e-02 3.146e-02 2.674e-02 3.565e-02 1.158e-02 2.525e-02 2.626e-02 2.397e-02 2.392e-02 1.801e-02 1.641e-02 2.201e-02 1.903e-02 1.417e-02 1.380e-02 3.486e-02 1.601e-02 1.288e-02 1.239e-02 1.165e-02 8.675e-03 7.952e-03 7.361e-03 6.622e-03 4.661e-03 3.006e-03 1.715e-03 3.585e-02 1.713e-02 5.422e-04 3.415e-02 1.238e-02 3.486e-02 1.314e-02 3.527e-02 9.459e-03 3.530e-02 2.766e-03 3.489e-02 2.827e-03 3.227e-01 3.135e-01 3.050e-01 2.972e-01 2.901e-01 2.842e-01 2.794e-01 2.756e-01 2.723e-01 2.693e-01 2.666e-01 2.641e-01 2.619e-01 2.600e-01 2.583e-01 2.569e-01 2.557e-01 2.549e-01 2.542e-01 2.538e-01
           </DataArray>
           <DataArray type="Float32" Name="nitrate/rootSegmentNutrientUptake" NumberOfComponents="1" format="ascii">
 0.000e+00 1.199e-01 4.727e-02 0.000e+00 1.254e-01 4.652e-02 0.000e+00 1.261e-01 4.752e-02 0.000e+00 1.285e-01 4.569e-02 0.000e+00 9.327e-01 8.071e-01 5.989e-01 4.910e-01 3.828e-01 2.341e-01 0.000e+00 0.000e+00 0.000e+00 0.000e+00 3.017e-02 0.000e+00 3.105e-02 0.000e+00 4.000e-03 0.000e+00 4.304e-03 0.000e+00 4.333e-03 0.000e+00 0.000e+00 0.000e+00 1.537e-03 0.000e+00 0.000e+00 0.000e+00 0.000e+00 0.000e+00 1.261e-02 0.000e+00 0.000e+00 0.000e+00 0.000e+00 0.000e+00 0.000e+00 0.000e+00 0.000e+00 0.000e+00 0.000e+00 0.000e+00 2.093e-02 0.000e+00 0.000e+00 0.000e+00 0.000e+00 0.000e+00 0.000e+00 0.000e+00 0.000e+00 0.000e+00 0.000e+00 0.000e+00 2.241e-02 0.000e+00 0.000e+00 1.345e-02 0.000e+00 1.432e-02 0.000e+00 8.236e-03 0.000e+00 1.202e-03 0.000e+00 1.229e-03 0.000e+00 1.095e+00 1.071e+00 1.005e+00 9.683e-01 9.651e-01 8.793e-01 8.662e-01 8.828e-01 8.283e-01 7.402e-01 6.608e-01 5.805e-01 4.903e-01 4.485e-01 4.033e-01 3.298e-01 2.562e-01 1.678e-01 7.070e-02
           </DataArray>
           <DataArray type="Float32" Name="nitrate/rootSegmentOptimalNutrientContent" NumberOfComponents="1" format="ascii">
 3.265e-01 3.621e-01 2.812e-01 3.265e-01 3.621e-01 2.812e-01 3.265e-01 3.621e-01 2.812e-01 3.265e-01 3.621e-01 2.812e-01 1.161e+01 1.052e+01 1.747e+01 8.976e+00 8.924e+00 1.332e+01 1.264e+01 1.287e+01 1.267e+01 3.619e+00 7.371e-02 3.963e-02 7.287e-02 4.073e-02 6.674e-02 1.223e-02 6.898e-02 1.315e-02 6.663e-02 1.324e-02 6.582e-02 6.235e-02 6.907e-02 7.055e-03 6.066e-02 5.779e-02 6.293e-02 5.349e-02 7.130e-02 2.316e-02 5.050e-02 5.252e-02 4.795e-02 4.783e-02 3.602e-02 3.283e-02 4.403e-02 3.806e-02 2.834e-02 2.760e-02 6.972e-02 3.202e-02 2.576e-02 2.479e-02 2.330e-02 1.735e-02 1.590e-02 1.472e-02 1.324e-02 9.323e-03 6.012e-03 3.429e-03 7.170e-02 3.427e-02 1.084e-03 6.830e-02 2.475e-02 6.971e-02 2.628e-02 7.055e-02 1.892e-02 7.061e-02 5.531e-03 6.977e-02 5.654e-03 6.454e-01 6.270e-01 6.100e-01 5.944e-01 5.802e-01 5.683e-01 5.587e-01 5.512e-01 5.446e-01 5.386e-01 5.331e-01 5.282e-01 5.238e-01 5.199e-01 5.166e-01 5.138e-01 5.115e-01 5.097e-01 5.084e-01 5.077e-01
           </DataArray>
           <DataArray type="Float32" Name="parentRootClassID" NumberOfComponents="1" format="ascii">
 -2.000e+00 -2.000e+00 -2.000e+00 -2.000e+00 -2.000e+00 -2.000e+00 -2.000e+00 -2.000e+00 -2.000e+00 -2.000e+00 -2.000e+00 -2.000e+00 -3.000e+00 -3.000e+00 -3.000e+00 -3.000e+00 -3.000e+00 -3.000e+00 -3.000e+00 -3.000e+00 -3.000e+00 -3.000e+00 -4.000e+00 -4.000e+00 -4.000e+00 -4.000e+00 -4.000e+00 -4.000e+00 -4.000e+00 -4.000e+00 -4.000e+00 -4.000e+00 -4.000e+00 -4.000e+00 -4.000e+00 -4.000e+00 -4.000e+00 -4.000e+00 -4.000e+00 -4.000e+00 -4.000e+00 -4.000e+00 -4.000e+00 -4.000e+00 -4.000e+00 -4.000e+00 -4.000e+00 -4.000e+00 -4.000e+00 -4.000e+00 -4.000e+00 -4.000e+00 -4.000e+00 -4.000e+00 -4.000e+00 -4.000e+00 -4.000e+00 -4.000e+00 -4.000e+00 -4.000e+00 -4.000e+00 -4.000e+00 -4.000e+00 -4.000e+00 -4.000e+00 -4.000e+00 -4.000e+00 -4.000e+00 -4.000e+00 -4.000e+00 -4.000e+00 -4.000e+00 -4.000e+00 -4.000e+00 -4.000e+00 -4.000e+00 -4.000e+00 -3.000e+00 -3.000e+00 -3.000e+00 -3.000e+00 -3.000e+00 -3.000e+00 -3.000e+00 -3.000e+00 -3.000e+00 -3.000e+00 -3.000e+00 -3.000e+00 -3.000e+00 -3.000e+00 -3.000e+00 -3.000e+00 -3.000e+00 -3.000e+00 -3.000e+00 -3.000e+00
           </DataArray>
           <DataArray type="Float32" Name="plantID" NumberOfComponents="1" format="ascii">
 7.000e+00 7.000e+00 7.000e+00 7.000e+00 7.000e+00 7.000e+00 7.000e+00 7.000e+00 7.000e+00 7.000e+00 7.000e+00 7.000e+00 7.000e+00 7.000e+00 7.000e+00 7.000e+00 7.000e+00 7.000e+00 7.000e+00 7.000e+00 7.000e+00 7.000e+00 7.000e+00 7.000e+00 7.000e+00 7.000e+00 7.000e+00 7.000e+00 7.000e+00 7.000e+00 7.000e+00 7.000e+00 7.000e+00 7.000e+00 7.000e+00 7.000e+00 7.000e+00 7.000e+00 7.000e+00 7.000e+00 7.000e+00 7.000e+00 7.000e+00 7.000e+00 7.000e+00 7.000e+00 7.000e+00 7.000e+00 7.000e+00 7.000e+00 7.000e+00 7.000e+00 7.000e+00 7.000e+00 7.000e+00 7.000e+00 7.000e+00 7.000e+00 7.000e+00 7.000e+00 7.000e+00 7.000e+00 7.000e+00 7.000e+00 7.000e+00 7.000e+00 7.000e+00 7.000e+00 7.000e+00 7.000e+00 7.000e+00 7.000e+00 7.000e+00 7.000e+00 7.000e+00 7.000e+00 7.000e+00 7.000e+00 7.000e+00 7.000e+00 7.000e+00 7.000e+00 7.000e+00 7.000e+00 7.000e+00 7.000e+00 7.000e+00 7.000e+00 7.000e+00 7.000e+00 7.000e+00 7.000e+00 7.000e+00 7.000e+00 7.000e+00 7.000e+00 7.000e+00
           </DataArray>
           <DataArray type="Float32" Name="plantTypeID" NumberOfComponents="1" format="ascii">
 0.000e+00 0.000e+00 0.000e+00 0.000e+00 0.000e+00 0.000e+00 0.000e+00 0.000e+00 0.000e+00 0.000e+00 0.000e+00 0.000e+00 0.000e+00 0.000e+00 0.000e+00 0.000e+00 0.000e+00 0.000e+00 0.000e+00 0.000e+00 0.000e+00 0.000e+00 0.000e+00 0.000e+00 0.000e+00 0.000e+00 0.000e+00 0.000e+00 0.000e+00 0.000e+00 0.000e+00 0.000e+00 0.000e+00 0.000e+00 0.000e+00 0.000e+00 0.000e+00 0.000e+00 0.000e+00 0.000e+00 0.000e+00 0.000e+00 0.000e+00 0.000e+00 0.000e+00 0.000e+00 0.000e+00 0.000e+00 0.000e+00 0.000e+00 0.000e+00 0.000e+00 0.000e+00 0.000e+00 0.000e+00 0.000e+00 0.000e+00 0.000e+00 0.000e+00 0.000e+00 0.000e+00 0.000e+00 0.000e+00 0.000e+00 0.000e+00 0.000e+00 0.000e+00 0.000e+00 0.000e+00 0.000e+00 0.000e+00 0.000e+00 0.000e+00 0.000e+00 0.000e+00 0.000e+00 0.000e+00 0.000e+00 0.000e+00 0.000e+00 0.000e+00 0.000e+00 0.000e+00 0.000e+00 0.000e+00 0.000e+00 0.000e+00 0.000e+00 0.000e+00 0.000e+00 0.000e+00 0.000e+00 0.000e+00 0.000e+00 0.000e+00 0.000e+00 0.000e+00
           </DataArray>
           <DataArray type="Float32" Name="rootCircumference" NumberOfComponents="1" format="ascii">
 2.136e-01 2.136e-01 2.136e-01 2.136e-01 2.136e-01 2.136e-01 2.136e-01 2.136e-01 2.136e-01 2.136e-01 2.136e-01 2.136e-01 1.320e+00 1.307e+00 1.300e+00 1.291e+00 1.287e+00 1.284e+00 1.280e+00 1.276e+00 1.273e+00 1.265e+00 9.431e-02 9.425e-02 9.430e-02 9.425e-02 9.428e-02 9.425e-02 9.428e-02 9.425e-02 9.428e-02 9.425e-02 9.427e-02 9.427e-02 9.427e-02 9.425e-02 9.427e-02 9.427e-02 9.427e-02 9.426e-02 9.430e-02 9.425e-02 9.426e-02 9.426e-02 9.426e-02 9.426e-02 9.426e-02 9.426e-02 9.426e-02 9.425e-02 9.425e-02 9.425e-02 9.430e-02 9.425e-02 9.425e-02 9.425e-02 9.425e-02 9.425e-02 9.425e-02 9.425e-02 9.425e-02 9.425e-02 9.425e-02 9.425e-02 9.429e-02 9.425e-02 9.425e-02 9.429e-02 9.425e-02 9.429e-02 9.425e-02 9.429e-02 9.425e-02 9.428e-02 9.425e-02 9.428e-02 9.425e-02 3.189e-01 3.143e-01 3.100e-01 3.060e-01 3.023e-01 2.992e-01 2.967e-01 2.947e-01 2.929e-01 2.913e-01 2.898e-01 2.885e-01 2.873e-01 2.862e-01 2.853e-01 2.845e-01 2.839e-01 2.834e-01 2.830e-01 2.828e-01
           </DataArray>
           <DataArray type="Float32" Name="rootClassID" NumberOfComponents="1" format="ascii">
 9.900e+01 9.900e+01 9.900e+01 9.900e+01 9.900e+01 9.900e+01 9.900e+01 9.900e+01 9.900e+01 9.900e+01 9.900e+01 9.900e+01 -2.000e+00 -2.000e+00 -2.000e+00 -2.000e+00 -2.000e+00 -2.000e+00 -2.000e+00 -2.000e+00 -2.000e+00 -2.000e+00 9.700e+01 9.700e+01 9.700e+01 9.700e+01 9.700e+01 9.700e+01 9.700e+01 9.700e+01 9.700e+01 9.700e+01 9.700e+01 9.700e+01 9.700e+01 9.700e+01 9.700e+01 9.700e+01 9.700e+01 9.700e+01 9.700e+01 9.700e+01 9.700e+01 9.700e+01 9.700e+01 9.700e+01 9.700e+01 9.700e+01 9.700e+01 9.700e+01 9.700e+01 9.700e+01 9.700e+01 9.700e+01 9.700e+01 9.700e+01 9.700e+01 9.700e+01 9.700e+01 9.700e+01 9.700e+01 9.700e+01 9.700e+01 9.700e+01 9.700e+01 9.700e+01 9.700e+01 9.700e+01 9.700e+01 9.700e+01 9.700e+01 9.700e+01 9.700e+01 9.700e+01 9.700e+01 9.700e+01 9.700e+01 -4.000e+00 -4.000e+00 -4.000e+00 -4.000e+00 -4.000e+00 -4.000e+00 -4.000e+00 -4.000e+00 -4.000e+00 -4.000e+00 -4.000e+00 -4.000e+00 -4.000e+00 -4.000e+00 -4.000e+00 -4.000e+00 -4.000e+00 -4.000e+00 -4.000e+00 -4.000e+00
           </DataArray>
           <DataArray type="Float32" Name="rootDiameter" NumberOfComponents="1" format="ascii">
 6.800e-02 6.800e-02 6.800e-02 6.800e-02 6.800e-02 6.800e-02 6.800e-02 6.800e-02 6.800e-02 6.800e-02 6.800e-02 6.800e-02 4.201e-01 4.160e-01 4.137e-01 4.109e-01 4.097e-01 4.087e-01 4.074e-01 4.063e-01 4.051e-01 4.027e-01 3.002e-02 3.000e-02 3.002e-02 3.000e-02 3.001e-02 3.000e-02 3.001e-02 3.000e-02 3.001e-02 3.000e-02 3.001e-02 3.001e-02 3.001e-02 3.000e-02 3.001e-02 3.001e-02 3.001e-02 3.001e-02 3.002e-02 3.000e-02 3.000e-02 3.000e-02 3.000e-02 3.000e-02 3.000e-02 3.000e-02 3.000e-02 3.000e-02 3.000e-02 3.000e-02 3.002e-02 3.000e-02 3.000e-02 3.000e-02 3.000e-02 3.000e-02 3.000e-02 3.000e-02 3.000e-02 3.000e-02 3.000e-02 3.000e-02 3.001e-02 3.000e-02 3.000e-02 3.001e-02 3.000e-02 3.001e-02 3.000e-02 3.001e-02 3.000e-02 3.001e-02 3.000e-02 3.001e-02 3.000e-02 1.015e-01 1.000e-01 9.868e-02 9.741e-02 9.624e-02 9.525e-02 9.444e-02 9.380e-02 9.324e-02 9.272e-02 9.225e-02 9.182e-02 9.144e-02 9.110e-02 9.081e-02 9.056e-02 9.036e-02 9.020e-02 9.009e-02 9.002e-02
           </DataArray>
           <DataArray type="Float32" Name="rootHairDensity" NumberOfComponents="1" format="ascii">
 2.000e+03 2.000e+03 2.000e+03 2.000e+03 2.000e+03 2.000e+03 2.000e+03 2.000e+03 2.000e+03 2.000e+03 2.000e+03 2.000e+03 0.000e+00 0.000e+00 0.000e+00 0.000e+00 0.000e+00 0.000e+00 0.000e+00 0.000e+00 0.000e+00 0.000e+00 2.000e+03 2.000e+03 2.000e+03 2.000e+03 2.000e+03 2.000e+03 2.000e+03 2.000e+03 2.000e+03 2.000e+03 2.000e+03 2.000e+03 2.000e+03 2.000e+03 2.000e+03 2.000e+03 2.000e+03 2.000e+03 2.000e+03 2.000e+03 2.000e+03 2.000e+03 2.000e+03 2.000e+03 2.000e+03 2.000e+03 2.000e+03 2.000e+03 2.000e+03 2.000e+03 2.000e+03 2.000e+03 2.000e+03 2.000e+03 2.000e+03 2.000e+03 2.000e+03 2.000e+03 2.000e+03 2.000e+03 2.000e+03 2.000e+03 2.000e+03 2.000e+03 2.000e+03 2.000e+03 2.000e+03 2.000e+03 2.000e+03 2.000e+03 2.000e+03 2.000e+03 2.000e+03 2.000e+03 2.000e+03 2.000e+03 2.000e+03 2.000e+03 2.000e+03 2.000e+03 2.000e+03 2.000e+03 2.000e+03 2.000e+03 2.000e+03 2.000e+03 2.000e+03 2.000e+03 2.000e+03 2.000e+03 2.000e+03 2.000e+03 2.000e+03 2.000e+03 2.000e+03
           </DataArray>
           <DataArray type="Float32" Name="rootHairDiameter" NumberOfComponents="1" format="ascii">