<?xml version="1.0"?>
<VTKFile type="UnstructuredGrid" version="0.1" byte_order="LittleEndian">
   <UnstructuredGrid>
      <Piece NumberOfPoints="8550" NumberOfCells="585">
         <Points>
            <DataArray type="Float32" Name="Position" NumberOfComponents="3" format="ascii">
0.068	-5.032	-0.142
0.072	-5.031	-0.134
0.070	-5.029	-0.125
0.063	-5.027	-0.119
0.053	-5.027	-0.119
0.045	-5.028	-0.124
0.042	-5.030	-0.132
0.044	-5.032	-0.141
0.051	-5.033	-0.147
0.061	-5.033	-0.147
0.064	-5.731	0.016
0.067	-5.729	0.024
0.065	-5.727	0.033
0.058	-5.726	0.039
0.048	-5.726	0.040
0.041	-5.727	0.035
0.037	-5.729	0.026
0.039	-5.731	0.018
0.046	-5.732	0.012
0.056	-5.732	0.011
0.108	-5.081	-0.272
0.108	-5.076	-0.264
0.108	-5.076	-0.255
0.106	-5.082	-0.248
0.106	-5.091	-0.246
0.105	-5.100	-0.250
0.105	-5.105	-0.257
0.106	-5.104	-0.267
0.107	-5.098	-0.274
0.108	-5.089	-0.276
0.946	-5.156	-0.210
0.946	-5.152	-0.202
0.945	-5.152	-0.193
0.944	-5.158	-0.186
0.943	-5.167	-0.184
0.943	-5.176	-0.187
0.943	-5.181	-0.195
0.943	-5.180	-0.205
0.944	-5.174	-0.212
0.945	-5.165	-0.214
1.016	-5.162	-0.207
1.016	-5.157	-0.199
1.016	-5.158	-0.190
1.015	-5.164	-0.183
1.014	-5.173	-0.181
1.014	-5.182	-0.185
1.014	-5.186	-0.193
1.014	-5.185	-0.202
1.015	-5.179	-0.209
1.015	-5.170	-0.211
0.446	-5.990	-1.184
0.454	-5.988	-1.179
0.461	-5.991	-1.174
0.465	-5.998	-1.171
0.465	-6.007	-1.171
0.461	-6.015	-1.174
0.453	-6.018	-1.179
0.446	-6.015	-1.183
0.441	-6.007	-1.186
0.441	-5.998	-1.187
0.826	-6.004	-1.772
0.833	-6.002	-1.767
0.841	-6.004	-1.762
0.845	-6.012	-1.759
0.845	-6.021	-1.759
0.840	-6.029	-1.762
0.833	-6.032	-1.767
0.826	-6.029	-1.771
0.821	-6.021	-1.775
0.821	-6.012	-1.775
0.499	-6.130	-1.266
0.502	-6.124	-1.260
0.499	-6.116	-1.255
0.492	-6.111	-1.254
0.483	-6.109	-1.257
0.476	-6.112	-1.262
0.474	-6.118	-1.268
0.476	-6.125	-1.273
0.484	-6.131	-1.274
0.492	-6.133	-1.272
0.312	-6.457	-0.859
0.315	-6.451	-0.853
0.312	-6.444	-0.848
0.305	-6.438	-0.846
0.296	-6.436	-0.849
0.289	-6.439	-0.854
0.287	-6.445	-0.861
0.289	-6.453	-0.865
0.296	-6.458	-0.867
0.305	-6.460	-0.864
0.514	-6.228	-1.353
0.522	-6.226	-1.349
0.530	-6.228	-1.345
0.534	-6.236	-1.342
0.534	-6.245	-1.342
0.529	-6.253	-1.344
0.521	-6.256	-1.348
0.513	-6.253	-1.352
0.509	-6.245	-1.354
0.509	-6.236	-1.355
0.767	-6.264	-1.843
0.771	-6.264	-1.834
0.770	-6.264	-1.825
0.763	-6.264	-1.819
0.754	-6.264	-1.817
0.746	-6.264	-1.821
0.742	-6.264	-1.830
0.743	-6.264	-1.839
0.750	-6.264	-1.845
0.759	-6.264	-1.847
0.560	-6.354	-1.443
0.559	-6.348	-1.436
0.557	-6.347	-1.427
0.554	-6.352	-1.419
0.552	-6.360	-1.416
0.550	-6.369	-1.419
0.551	-6.375	-1.426
0.553	-6.375	-1.435
0.556	-6.371	-1.442
0.558	-6.363	-1.445
1.117	-6.479	-1.307
1.117	-6.473	-1.300
1.115	-6.472	-1.291
1.112	-6.477	-1.284
1.109	-6.485	-1.281
1.108	-6.494	-1.283
1.108	-6.500	-1.290
1.110	-6.501	-1.299
1.113	-6.496	-1.307
1.116	-6.488	-1.310
0.587	-6.476	-1.522
0.588	-6.471	-1.514
0.587	-6.471	-1.505
0.585	-6.477	-1.498
0.583	-6.485	-1.495
0.581	-6.494	-1.499
0.580	-6.499	-1.506
0.580	-6.499	-1.515
0.582	-6.493	-1.523
0.585	-6.485	-1.525
1.100	-6.619	-1.492
1.101	-6.613	-1.484
1.100	-6.614	-1.475
1.098	-6.619	-1.467
1.096	-6.628	-1.465
1.094	-6.636	-1.468
1.093	-6.641	-1.476
1.093	-6.641	-1.485
1.095	-6.636	-1.492
1.098	-6.627	-1.495
0.617	-6.604	-1.599
0.618	-6.598	-1.592
0.616	-6.597	-1.583
0.613	-6.601	-1.576
0.609	-6.609	-1.572
0.606	-6.618	-1.575
0.606	-6.624	-1.582
0.608	-6.625	-1.591
0.611	-6.620	-1.599
0.615	-6.612	-1.602
1.016	-6.747	-1.508
1.016	-6.741	-1.501
1.014	-6.740	-1.492
1.011	-6.744	-1.484
1.007	-6.752	-1.481
1.005	-6.761	-1.483
1.004	-6.767	-1.490
1.006	-6.768	-1.499
1.009	-6.763	-1.507
1.013	-6.755	-1.510
0.633	-6.747	-1.644
0.631	-6.738	-1.644
0.632	-6.730	-1.649
0.636	-6.726	-1.657
0.641	-6.728	-1.664
0.646	-6.735	-1.668
0.648	-6.744	-1.668
0.646	-6.752	-1.663
0.642	-6.756	-1.656
0.637	-6.754	-1.648
0.287	-6.827	-1.866
0.285	-6.818	-1.866
0.286	-6.810	-1.871
0.290	-6.807	-1.879
0.295	-6.809	-1.886
0.300	-6.816	-1.891
0.302	-6.825	-1.890
0.300	-6.833	-1.885
0.296	-6.836	-1.878
0.291	-6.834	-1.871
0.670	-6.864	-1.737
0.670	-6.858	-1.729
0.668	-6.858	-1.720
0.665	-6.862	-1.713
0.662	-6.871	-1.710
0.661	-6.880	-1.712
0.662	-6.886	-1.720
0.664	-6.886	-1.729
0.667	-6.881	-1.736
0.669	-6.873	-1.739
1.080	-6.941	-1.637
1.079	-6.935	-1.630
1.077	-6.934	-1.621
1.074	-6.939	-1.614
1.072	-6.948	-1.611
1.071	-6.956	-1.613
1.072	-6.962	-1.620
1.074	-6.963	-1.629
1.076	-6.958	-1.637
1.079	-6.950	-1.640
0.695	-6.994	-1.804
0.694	-6.989	-1.796
0.693	-6.989	-1.787
0.691	-6.995	-1.780
0.690	-7.004	-1.777
0.689	-7.012	-1.780
0.690	-7.017	-1.788
0.691	-7.017	-1.797
0.693	-7.012	-1.804
0.694	-7.003	-1.807
1.019	-7.030	-1.757
1.019	-7.025	-1.749
1.017	-7.025	-1.740
1.016	-7.031	-1.733
1.014	-7.040	-1.730
1.014	-7.048	-1.733
1.014	-7.054	-1.741
1.016	-7.053	-1.750
1.017	-7.048	-1.757
1.019	-7.039	-1.760
0.717	-7.142	-1.848
0.713	-7.134	-1.847
0.712	-7.126	-1.850
0.714	-7.120	-1.858
0.719	-7.120	-1.866
0.724	-7.125	-1.872
0.727	-7.134	-1.873
0.728	-7.142	-1.870
0.726	-7.148	-1.862
0.722	-7.148	-1.854
0.374	-7.264	-2.032
0.370	-7.256	-2.030
0.369	-7.247	-2.034
0.371	-7.242	-2.041
0.375	-7.242	-2.050
0.380	-7.247	-2.055
0.384	-7.255	-2.057
0.385	-7.264	-2.053
0.383	-7.269	-2.046
0.379	-7.269	-2.038
0.142	-5.171	-0.370
0.140	-5.162	-0.372
0.142	-5.155	-0.378
0.147	-5.152	-0.386
0.153	-5.155	-0.392
0.158	-5.162	-0.395
0.160	-5.171	-0.393
0.159	-5.178	-0.387
0.154	-5.181	-0.379
0.147	-5.178	-0.373
-0.346	-5.378	-0.761
-0.348	-5.369	-0.763
-0.346	-5.362	-0.768
-0.341	-5.360	-0.776
-0.335	-5.362	-0.782
-0.330	-5.370	-0.785
-0.328	-5.378	-0.783
-0.329	-5.385	-0.777
-0.334	-5.388	-0.770
-0.340	-5.385	-0.763
0.742	-7.252	-1.932
0.750	-7.249	-1.928
0.758	-7.252	-1.924
0.762	-7.260	-1.922
0.762	-7.269	-1.921
0.757	-7.277	-1.923
0.749	-7.279	-1.927
0.742	-7.277	-1.932
0.737	-7.269	-1.934
0.737	-7.260	-1.935
0.898	-7.279	-2.224
0.907	-7.279	-2.220
0.916	-7.279	-2.221
0.922	-7.279	-2.228
0.924	-7.279	-2.237
0.920	-7.279	-2.245
0.911	-7.279	-2.249
0.902	-7.279	-2.248
0.896	-7.279	-2.241
0.894	-7.279	-2.232
0.789	-7.393	-2.001
0.788	-7.386	-1.995
0.785	-7.383	-1.987
0.780	-7.386	-1.980
0.776	-7.393	-1.976
0.774	-7.402	-1.977
0.775	-7.409	-1.983
0.778	-7.412	-1.991
0.783	-7.409	-1.998
0.787	-7.402	-2.002
1.071	-7.471	-1.856
1.070	-7.464	-1.850
1.067	-7.461	-1.842
1.062	-7.464	-1.835
1.058	-7.471	-1.831
1.056	-7.480	-1.832
1.057	-7.487	-1.837
1.061	-7.490	-1.845
1.065	-7.487	-1.853
1.069	-7.480	-1.857
0.805	-7.533	-2.038
0.803	-7.525	-2.041
0.806	-7.519	-2.047
0.812	-7.517	-2.054
0.819	-7.521	-2.059
0.823	-7.529	-2.061
0.825	-7.538	-2.058
0.822	-7.544	-2.051
0.816	-7.545	-2.044
0.810	-7.541	-2.039
0.588	-7.632	-2.232
0.596	-7.632	-2.228
0.605	-7.632	-2.229
0.612	-7.632	-2.236
0.613	-7.632	-2.245
0.609	-7.632	-2.253
0.601	-7.632	-2.257
0.592	-7.632	-2.256
0.585	-7.632	-2.249
0.584	-7.632	-2.240
0.836	-7.670	-2.093
0.836	-7.661	-2.095
0.839	-7.654	-2.100
0.844	-7.652	-2.107
0.849	-7.655	-2.114
0.853	-7.663	-2.117
0.853	-7.673	-2.116
0.850	-7.680	-2.111
0.845	-7.682	-2.104
0.840	-7.678	-2.097
0.619	-7.697	-2.254
0.619	-7.688	-2.255
0.622	-7.681	-2.260
0.627	-7.679	-2.268
0.633	-7.682	-2.274
0.636	-7.690	-2.278
0.637	-7.699	-2.277
0.634	-7.707	-2.271
0.628	-7.709	-2.264
0.623	-7.705	-2.257
0.880	-7.796	-2.173
0.879	-7.790	-2.167
0.876	-7.788	-2.159
0.872	-7.792	-2.151
0.869	-7.800	-2.147
0.869	-7.809	-2.149
0.870	-7.816	-2.155
0.873	-7.818	-2.164
0.877	-7.814	-2.171
0.880	-7.805	-2.175
1.109	-7.830	-2.083
1.108	-7.824	-2.076
1.104	-7.822	-2.068
1.101	-7.826	-2.060
1.098	-7.834	-2.057
1.097	-7.843	-2.058
1.099	-7.850	-2.064
1.102	-7.852	-2.073
1.106	-7.848	-2.081
1.108	-7.840	-2.084
0.907	-7.935	-2.225
0.907	-7.929	-2.218
0.904	-7.927	-2.210
0.900	-7.930	-2.202
0.897	-7.938	-2.199
0.895	-7.947	-2.201
0.895	-7.954	-2.207
0.898	-7.955	-2.216
0.902	-7.952	-2.223
0.905	-7.944	-2.227
1.110	-7.997	-2.151
1.109	-7.991	-2.144
1.107	-7.989	-2.135
1.103	-7.993	-2.128
1.099	-8.000	-2.124
1.097	-8.009	-2.126
1.097	-8.016	-2.133
1.100	-8.018	-2.141
1.104	-8.014	-2.149
1.108	-8.006	-2.153
0.934	-8.074	-2.276
0.933	-8.067	-2.270
0.929	-8.065	-2.261
0.925	-8.069	-2.254
0.922	-8.076	-2.250
0.920	-8.085	-2.251
0.922	-8.092	-2.258
0.925	-8.094	-2.266
0.929	-8.091	-2.273
0.932	-8.083	-2.277
1.126	-8.117	-2.191
1.125	-8.110	-2.185
1.122	-8.108	-2.176
1.118	-8.111	-2.169
1.114	-8.119	-2.165
1.113	-8.128	-2.166
1.114	-8.135	-2.172
1.117	-8.137	-2.181
1.122	-8.134	-2.188
1.125	-8.126	-2.192
0.965	-8.216	-2.323
0.964	-8.208	-2.319
0.960	-8.205	-2.311
0.954	-8.206	-2.304
0.949	-8.213	-2.300
0.947	-8.221	-2.300
0.948	-8.229	-2.305
0.952	-8.233	-2.312
0.957	-8.232	-2.319
0.962	-8.225	-2.324
1.083	-8.250	-2.213
1.092	-8.246	-2.213
1.101	-8.248	-2.213
1.107	-8.254	-2.213
1.109	-8.263	-2.213
1.104	-8.272	-2.213
1.096	-8.276	-2.213
1.087	-8.274	-2.213
1.080	-8.268	-2.213
1.079	-8.259	-2.213
0.978	-8.346	-2.363
0.986	-8.343	-2.359
0.993	-8.346	-2.354
0.998	-8.354	-2.351
0.998	-8.363	-2.351
0.993	-8.370	-2.354
0.985	-8.373	-2.358
0.978	-8.370	-2.363
0.973	-8.363	-2.366
0.973	-8.354	-2.366
1.052	-8.350	-2.488
1.059	-8.348	-2.483
1.067	-8.350	-2.479
1.072	-8.358	-2.476
1.071	-8.367	-2.475
1.067	-8.375	-2.478
1.059	-8.378	-2.482
1.051	-8.375	-2.487
1.047	-8.367	-2.490
1.047	-8.358	-2.490
1.022	-8.492	-2.416
1.022	-8.485	-2.410
1.019	-8.484	-2.401
1.016	-8.487	-2.393
1.012	-8.495	-2.390
1.010	-8.504	-2.392
1.010	-8.511	-2.398
1.013	-8.512	-2.407
1.017	-8.508	-2.414
1.020	-8.501	-2.418
1.178	-8.543	-2.361
1.182	-8.543	-2.352
1.181	-8.543	-2.343
1.174	-8.543	-2.337
1.165	-8.543	-2.335
1.157	-8.543	-2.339
1.153	-8.543	-2.348
1.154	-8.543	-2.357
1.161	-8.543	-2.363
1.170	-8.543	-2.365
0.189	-5.237	-0.502
0.197	-5.234	-0.499
0.205	-5.237	-0.495
0.210	-5.244	-0.493
0.210	-5.254	-0.492
0.205	-5.261	-0.494
0.197	-5.264	-0.497
0.189	-5.261	-0.501
0.184	-5.254	-0.503
0.184	-5.245	-0.504
0.463	-5.274	-1.148
0.471	-5.272	-1.145
0.479	-5.274	-1.142
0.484	-5.282	-1.139
0.484	-5.291	-1.139
[...]
         <CellData>
           <DataArray type="Float32" Name="combinedRootClassID" NumberOfComponents="1" format="ascii">
 -1.300e+01 -1.300e+01 -1.300e+01 -1.300e+01 -1.300e+01 -1.300e+01 -1.300e+01 -1.300e+01 -1.300e+01 -1.300e+01 -1.300e+01 -1.300e+01 -1.300e+01 -1.300e+01 -1.300e+01 -1.300e+01 -1.300e+01 -1.300e+01 -1.300e+01 -1.300e+01 -1.300e+01 -1.300e+01 -1.300e+01 -1.300e+01 -1.300e+01 -1.300e+01 -1.300e+01 -1.300e+01 -1.300e+01 -1.300e+01 -1.300e+01 -1.300e+01 -1.300e+01 -1.300e+01 -1.300e+01 -1.300e+01 -1.300e+01 -1.300e+01 -5.000e+00 -5.000e+00 -5.000e+00 -5.000e+00 -5.000e+00 -5.000e+00 -5.000e+00 -5.000e+00 -5.000e+00 -5.000e+00 -5.000e+00 -5.000e+00 -5.000e+00 -5.000e+00 -5.000e+00 -5.000e+00 -5.000e+00 -5.000e+00 -1.300e+01 -1.300e+01 -1.300e+01 -1.300e+01 -1.300e+01 -1.300e+01 -1.300e+01 -1.300e+01 -1.300e+01 -1.300e+01 -1.300e+01 -1.300e+01 -1.300e+01 -1.300e+01 -1.300e+01 -1.300e+01 -1.300e+01 -1.300e+01 -1.300e+01 -1.300e+01 -1.300e+01 -1.300e+01 -1.300e+01 -1.300e+01 -1.300e+01 -1.300e+01 -1.300e+01 -1.300e+01 -1.300e+01 -1.300e+01 -1.300e+01 -1.300e+01 -1.300e+01 -1.300e+01 -1.300e+01 -1.300e+01 -1.300e+01 -5.000e+00 -5.000e+00 -5.000e+00 -5.000e+00 -5.000e+00 -5.000e+00 -5.000e+00 -5.000e+00 -5.000e+00 -5.000e+00 -5.000e+00 -5.000e+00 -5.000e+00 -5.000e+00 -5.000e+00 -5.000e+00 -5.000e+00 -5.000e+00 -1.300e+01 -1.300e+01 -1.300e+01 -1.300e+01 -1.300e+01 -1.300e+01 -1.300e+01 -1.300e+01 -1.300e+01 -1.300e+01 -1.300e+01 -1.300e+01 -1.300e+01 -1.300e+01 -1.300e+01 -1.300e+01 -1.300e+01 -1.300e+01 -1.300e+01 -1.300e+01 -1.300e+01 -1.300e+01 -1.300e+01 -1.300e+01 -1.300e+01 -1.300e+01 -1.300e+01 -1.300e+01 -1.300e+01 -1.300e+01 -1.300e+01 -1.300e+01 -1.300e+01 -1.300e+01 -1.300e+01 -1.300e+01 -5.000e+00 -5.000e+00 -5.000e+00 -5.000e+00 -5.000e+00 -5.000e+00 -5.000e+00 -5.000e+00 -5.000e+00 -5.000e+00 -5.000e+00 -5.000e+00 -5.000e+00 -5.000e+00 -5.000e+00 -5.000e+00 -5.000e+00 -5.000e+00 -1.300e+01 -1.300e+01 -1.300e+01 -1.300e+01 -1.300e+01 -1.300e+01 -1.300e+01 -1.300e+01 -1.300e+01 -1.300e+01 -1.300e+01 -1.300e+01 -1.300e+01 -1.300e+01 -1.300e+01 -1.300e+01 -1.300e+01 -1.300e+01 -1.300e+01 -1.300e+01 -1.300e+01 -1.300e+01 -1.300e+01 -1.300e+01 -1.300e+01 -1.300e+01 -1.300e+01 -1.300e+01 -1.300e+01 -1.300e+01 -1.300e+01 -1.300e+01 -1.300e+01 -1.300e+01 -1.300e+01 -1.300e+01 -1.300e+01 -5.000e+00 -5.000e+00 -5.000e+00 -5.000e+00 -5.000e+00 -5.000e+00 -5.000e+00 -5.000e+00 -5.000e+00 -5.000e+00 -5.000e+00 -5.000e+00 -5.000e+00 -5.000e+00 -5.000e+00 -5.000e+00 -5.000e+00 -5.000e+00 -9.000e+00 -9.000e+00 -9.000e+00 -9.000e+00 -9.000e+00 -9.000e+00 -9.000e+00 -9.000e+00 -9.000e+00 -9.000e+00 -9.000e+00 -9.000e+00 -9.000e+00 -9.000e+00 -9.000e+00 -9.000e+00 -9.000e+00 -9.000e+00 -9.000e+00 -9.000e+00 -9.000e+00 -9.000e+00 -9.000e+00 -9.000e+00 -9.000e+00 -9.000e+00 -9.000e+00 -9.000e+00 -2.000e+00 -2.000e+00 -2.000e+00 -2.000e+00 -2.000e+00 -2.000e+00 -2.000e+00 -2.000e+00 -2.000e+00 -2.000e+00 -7.000e+00 -7.000e+00 -7.000e+00 -7.000e+00 -7.000e+00 -7.000e+00 -7.000e+00 -7.000e+00 -7.000e+00 -7.000e+00 -7.000e+00 -7.000e+00 -7.000e+00 -7.000e+00 -7.000e+00 -7.000e+00 -7.000e+00 -7.000e+00 -7.000e+00 -7.000e+00 -7.000e+00 -7.000e+00 -7.000e+00 -7.000e+00 -7.000e+00 -7.000e+00 -7.000e+00 -7.000e+00 -7.000e+00 -7.000e+00 -7.000e+00 -7.000e+00 -7.000e+00 -7.000e+00 -7.000e+00 -7.000e+00 -7.000e+00 -7.000e+00 -7.000e+00 -7.000e+00 -7.000e+00 -7.000e+00 -7.000e+00 -7.000e+00 -7.000e+00 -7.000e+00 -7.000e+00 -7.000e+00 -7.000e+00 -7.000e+00 -7.000e+00 -7.000e+00 -7.000e+00 -7.000e+00 -7.000e+00 -7.000e+00 -7.000e+00 -7.000e+00 -7.000e+00 -7.000e+00 -7.000e+00 -7.000e+00 -7.000e+00 -7.000e+00 -7.000e+00 -7.000e+00 -7.000e+00 -7.000e+00 -7.000e+00 -7.000e+00 -7.000e+00 -7.000e+00 -7.000e+00 -7.000e+00 -7.000e+00 -7.000e+00 -7.000e+00 -7.000e+00 -7.000e+00 -7.000e+00 -7.000e+00 -7.000e+00 -7.000e+00 -7.000e+00 -7.000e+00 -7.000e+00 -7.000e+00 -7.000e+00 -7.000e+00 -7.000e+00 -7.000e+00 -7.000e+00 -7.000e+00 -7.000e+00 -7.000e+00 -7.000e+00 -7.000e+00 -7.000e+00 -7.000e+00 -7.000e+00 -7.000e+00 -7.000e+00 -7.000e+00 -7.000e+00 -7.000e+00 -7.000e+00 -7.000e+00 -7.000e+00 -7.000e+00 -7.000e+00 -7.000e+00 -7.000e+00 -7.000e+00 -7.000e+00 -7.000e+00 -7.000e+00 -7.000e+00 -7.000e+00 -7.000e+00 -7.000e+00 -7.000e+00 -7.000e+00 -7.000e+00 -7.000e+00 -7.000e+00 -7.000e+00 -7.000e+00 -7.000e+00 -7.000e+00 -7.000e+00 -7.000e+00 -7.000e+00 -7.000e+00 -7.000e+00 -7.000e+00 -7.000e+00 -7.000e+00 -7.000e+00 -7.000e+00 -7.000e+00 -7.000e+00 -7.000e+00 -7.000e+00 -7.000e+00 -7.000e+00 -7.000e+00 -7.000e+00 -7.000e+00 -7.000e+00 -7.000e+00 -7.000e+00 -7.000e+00 -7.000e+00 -7.000e+00 -7.000e+00 -7.000e+00 -7.000e+00 -7.000e+00 -7.000e+00 -7.000e+00 -7.000e+00 -7.000e+00 -7.000e+00 -7.000e+00 -7.000e+00 -7.000e+00 -7.000e+00 -7.000e+00 -7.000e+00 -7.000e+00 -7.000e+00 -7.000e+00 -7.000e+00 -7.000e+00 -7.000e+00 -7.000e+00 -7.000e+00 -7.000e+00 -7.000e+00 -7.000e+00 -7.000e+00 -7.000e+00 -7.000e+00 -7.000e+00 -7.000e+00 -7.000e+00 -7.000e+00 -7.000e+00 -7.000e+00 -7.000e+00 -7.000e+00 -7.000e+00 -7.000e+00 -7.000e+00 -7.000e+00 -7.000e+00 -7.000e+00 -7.000e+00 -7.000e+00 -7.000e+00 -7.000e+00 -7.000e+00 -7.000e+00 -7.000e+00 -7.000e+00 -7.000e+00 -7.000e+00 -7.000e+00 -7.000e+00 -7.000e+00 -7.000e+00 -7.000e+00 -7.000e+00 -7.000e+00 -7.000e+00 -7.000e+00 -7.000e+00 -7.000e+00 -7.000e+00 -7.000e+00 -7.000e+00 -7.000e+00 -7.000e+00 -7.000e+00 -7.000e+00 -7.000e+00 -7.000e+00 -7.000e+00 -7.000e+00 -7.000e+00 -7.000e+00 -7.000e+00 -7.000e+00 -7.000e+00 -7.000e+00 -7.000e+00 -7.000e+00 -7.000e+00 -7.000e+00 -7.000e+00 -7.000e+00 -7.000e+00 -7.000e+00 -7.000e+00 -7.000e+00 -7.000e+00 -7.000e+00 -7.000e+00 -7.000e+00 -7.000e+00 -7.000e+00 -7.000e+00 -7.000e+00 -7.000e+00 -7.000e+00 -7.000e+00 -7.000e+00 -7.000e+00 -7.000e+00 -7.000e+00 -7.000e+00 -7.000e+00 -7.000e+00 -7.000e+00 -7.000e+00 -7.000e+00 -7.000e+00 -7.000e+00 -7.000e+00 -7.000e+00 -7.000e+00 -7.000e+00 -7.000e+00 -7.000e+00 -7.000e+00 -7.000e+00 -7.000e+00 -7.000e+00 -7.000e+00 -7.000e+00 -7.000e+00 -7.000e+00 -7.000e+00 -7.000e+00 -7.000e+00 -7.000e+00 -1.100e+01 -1.100e+01 -1.100e+01 -1.100e+01 -1.100e+01 -1.100e+01 -1.100e+01 -1.100e+01 -1.100e+01 -1.100e+01 -1.100e+01 -4.000e+00 -4.000e+00 -4.000e+00 -4.000e+00 -4.000e+00 -4.000e+00 -4.000e+00 -4.000e+00 -4.000e+00 -4.000e+00 -4.000e+00 -4.000e+00 -4.000e+00 -4.000e+00 -4.000e+00 -4.000e+00 -4.000e+00 -4.000e+00 -4.000e+00 -4.000e+00 -4.000e+00 -4.000e+00 -4.000e+00 -4.000e+00 -4.000e+00 -4.000e+00 -4.000e+00 -4.000e+00 -4.000e+00 -4.000e+00
           </DataArray>
           <DataArray type="Float32" Name="nitrate/Cmin" NumberOfComponents="1" format="ascii">
 1.000e-03 1.000e-03 1.000e-03 1.000e-03 1.000e-03 1.000e-03 1.000e-03 1.000e-03 1.000e-03 1.000e-03 1.000e-03 1.000e-03 1.000e-03 1.000e-03 1.000e-03 1.000e-03 1.000e-03 1.000e-03 1.000e-03 1.000e-03 1.000e-03 1.000e-03 1.000e-03 1.000e-03 1.000e-03 1.000e-03 1.000e-03 1.000e-03 1.000e-03 1.000e-03 1.000e-03 1.000e-03 1.000e-03 1.000e-03 1.000e-03 1.000e-03 1.000e-03 1.000e-03 1.000e-03 1.000e-03 1.000e-03 1.000e-03 1.000e-03 1.000e-03 1.000e-03 1.000e-03 1.000e-03 1.000e-03 1.000e-03 1.000e-03 1.000e-03 1.000e-03 1.000e-03 1.000e-03 1.000e-03 1.000e-03 1.000e-03 1.000e-03 1.000e-03 1.000e-03 1.000e-03 1.000e-03 1.000e-03 1.000e-03 1.000e-03 1.000e-03 1.000e-03 1.000e-03 1.000e-03 1.000e-03 1.000e-03 1.000e-03 1.000e-03 1.000e-03 1.000e-03 1.000e-03 1.000e-03 1.000e-03 1.000e-03 1.000e-03 1.000e-03 1.000e-03 1.000e-03 1.000e-03 1.000e-03 1.000e-03 1.000e-03 1.000e-03 1.000e-03 1.000e-03 1.000e-03 1.000e-03 1.000e-03 1.000e-03 1.000e-03 1.000e-03 1.000e-03 1.000e-03 1.000e-03 1.000e-03 1.000e-03 1.000e-03 1.000e-03 1.000e-03 1.000e-03 1.000e-03 1.000e-03 1.000e-03 1.000e-03 1.000e-03 1.000e-03 1.000e-03 1.000e-03 1.000e-03 1.000e-03 1.000e-03 1.000e-03 1.000e-03 1.000e-03 1.000e-03 1.000e-03 1.000e-03 1.000e-03 1.000e-03 1.000e-03 1.000e-03 1.000e-03 1.000e-03 1.000e-03 1.000e-03 1.000e-03 1.000e-03 1.000e-03 1.000e-03 1.000e-03 1.000e-03 1.000e-03 1.000e-03 1.000e-03 1.000e-03 1.000e-03 1.000e-03 1.000e-03 1.000e-03 1.000e-03 1.000e-03 1.000e-03 1.000e-03 1.000e-03 1.000e-03 1.000e-03 1.000e-03 1.000e-03 1.000e-03 1.000e-03 1.000e-03 1.000e-03 1.000e-03 1.000e-03 1.000e-03 1.000e-03 1.000e-03 1.000e-03 1.000e-03 1.000e-03 1.000e-03 1.000e-03 1.000e-03 1.000e-03 1.000e-03 1.000e-03 1.000e-03 1.000e-03 1.000e-03 1.000e-03 1.000e-03 1.000e-03 1.000e-03 1.000e-03 1.000e-03 1.000e-03 1.000e-03 1.000e-03 1.000e-03 1.000e-03 1.000e-03 1.000e-03 1.000e-03 1.000e-03 1.000e-03 1.000e-03 1.000e-03 1.000e-03 1.000e-03 1.000e-03 1.000e-03 1.000e-03 1.000e-03 1.000e-03 1.000e-03 1.000e-03 1.000e-03 1.000e-03 1.000e-03 1.000e-03 1.000e-03 1.000e-03 1.000e-03 1.000e-03 1.000e-03 1.000e-03 1.000e-03 1.000e-03 1.000e-03 1.000e-03 1.000e-03 1.000e-03 1.000e-03 1.000e-03 1.000e-03 1.000e-03 1.000e-03 1.000e-03 1.000e-03 1.000e-03 1.000e-03 1.000e-03 1.000e-03 1.000e-03 1.000e-03 1.000e-03 1.000e-03 1.000e-03 1.000e-03 1.000e-03 1.000e-03 1.000e-03 1.000e-03 1.000e-03 1.000e-03 1.000e-03 1.000e-03 1.000e-03 1.000e-03 1.000e-03 1.000e-03 1.000e-03 1.000e-03 1.000e-03 1.000e-03 1.000e-03 1.000e-03 1.000e-03 1.000e-03 1.000e-03 1.000e-03 1.000e-03 1.000e-03 1.000e-03 1.000e-03 1.000e-03 1.000e-03 1.000e-03 1.000e-03 1.000e-03 1.000e-03 1.000e-03 1.000e-03 1.000e-03 1.000e-03 1.000e-03 1.000e-03 1.000e-03 1.000e-03 1.000e-03 1.000e-03 1.000e-03 1.000e-03 1.000e-03 1.000e-03 1.000e-03 1.000e-03 1.000e-03 1.000e-03 1.000e-03 1.000e-03 1.000e-03 1.000e-03 1.000e-03 1.000e-03 1.000e-03 1.000e-03 1.000e-03 1.000e-03 1.000e-03 1.000e-03 1.000e-03 1.000e-03 1.000e-03 1.000e-03 1.000e-03 1.000e-03 1.000e-03 1.000e-03 1.000e-03 1.000e-03 1.000e-03 1.000e-03 1.000e-03 1.000e-03 1.000e-03 1.000e-03 1.000e-03 1.000e-03 1.000e-03 1.000e-03 1.000e-03 1.000e-03 1.000e-03 1.000e-03 1.000e-03 1.000e-03 1.000e-03 1.000e-03 1.000e-03 1.000e-03 1.000e-03 1.000e-03 1.000e-03 1.000e-03 1.000e-03 1.000e-03 1.000e-03 1.000e-03 1.000e-03 1.000e-03 1.000e-03 1.000e-03 1.000e-03 1.000e-03 1.000e-03 1.000e-03 1.000e-03 1.000e-03 1.000e-03 1.000e-03 1.000e-03 1.000e-03 1.000e-03 1.000e-03 1.000e-03 1.000e-03 1.000e-03 1.000e-03 1.000e-03 1.000e-03 1.000e-03 1.000e-03 1.000e-03 1.000e-03 1.000e-03 1.000e-03 1.000e-03 1.000e-03 1.000e-03 1.000e-03 1.000e-03 1.000e-03 1.000e-03 1.000e-03 1.000e-03 1.000e-03 1.000e-03 1.000e-03 1.000e-03 1.000e-03 1.000e-03 1.000e-03 1.000e-03 1.000e-03 1.000e-03 1.000e-03 1.000e-03 1.000e-03 1.000e-03 1.000e-03 1.000e-03 1.000e-03 1.000e-03 1.000e-03 1.000e-03 1.000e-03 1.000e-03 1.000e-03 1.000e-03 1.000e-03 1.000e-03 1.000e-03 1.000e-03 1.000e-03 1.000e-03 1.000e-03 1.000e-03 1.000e-03 1.000e-03 1.000e-03 1.000e-03 1.000e-03 1.000e-03 1.000e-03 1.000e-03 1.000e-03 1.000e-03 1.000e-03 1.000e-03 1.000e-03 1.000e-03 1.000e-03 1.000e-03 1.000e-03 1.000e-03 1.000e-03 1.000e-03 1.000e-03 1.000e-03 1.000e-03 1.000e-03 1.000e-03 1.000e-03 1.000e-03 1.000e-03 1.000e-03 1.000e-03 1.000e-03 1.000e-03 1.000e-03 1.000e-03 1.000e-03 1.000e-03 1.000e-03 1.000e-03 1.000e-03 1.000e-03 1.000e-03 1.000e-03 1.000e-03 1.000e-03 1.000e-03 1.000e-03 1.000e-03 1.000e-03 1.000e-03 1.000e-03 1.000e-03 1.000e-03 1.000e-03 1.000e-03 1.000e-03 1.000e-03 1.000e-03 1.000e-03 1.000e-03 1.000e-03 1.000e-03 1.000e-03 1.000e-03 1.000e-03 1.000e-03 1.000e-03 1.000e-03 1.000e-03 1.000e-03 1.000e-03 1.000e-03 1.000e-03 1.000e-03 1.000e-03 1.000e-03 1.000e-03 1.000e-03 1.000e-03 1.000e-03 1.000e-03 1.000e-03 1.000e-03 1.000e-03 1.000e-03 1.000e-03 1.000e-03 1.000e-03 1.000e-03 1.000e-03 1.000e-03 1.000e-03 1.000e-03 1.000e-03 1.000e-03 1.000e-03 1.000e-03 1.000e-03 1.000e-03 1.000e-03 1.000e-03 1.000e-03 1.000e-03 1.000e-03 1.000e-03 1.000e-03 1.000e-03 1.000e-03 1.000e-03 1.000e-03 1.000e-03 1.000e-03 1.000e-03 1.000e-03 1.000e-03 1.000e-03 1.000e-03 1.000e-03 1.000e-03 1.000e-03 1.000e-03 1.000e-03 1.000e-03 1.000e-03 1.000e-03 1.000e-03 1.000e-03 1.000e-03 1.000e-03 1.000e-03 1.000e-03 1.000e-03 1.000e-03 1.000e-03 1.000e-03 1.000e-03 1.000e-03 1.000e-03 1.000e-03 1.000e-03 1.000e-03 1.000e-03 1.000e-03 1.000e-03 1.000e-03 1.000e-03 1.000e-03 1.000e-03 1.000e-03 1.000e-03 1.000e-03 1.000e-03 1.000e-03 1.000e-03 1.000e-03 1.000e-03 1.000e-03 1.000e-03 1.000e-03 1.000e-03 1.000e-03 1.000e-03 1.000e-03 1.000e-03 1.000e-03 1.000e-03 1.000e-03 1.000e-03 1.000e-03 1.000e-03 1.000e-03 1.000e-03 1.000e-03 1.000e-03 1.000e-03 1.000e-03 1.000e-03 1.000e-03 1.000e-03 1.000e-03 1.000e-03 1.000e-03 1.000e-03
           </DataArray>
           <DataArray type="Float32" Name="nitrate/Imax" NumberOfComponents="1" format="ascii">
 1.900e+00 1.900e+00 1.900e+00 1.900e+00 1.900e+00 1.900e+00 1.900e+00 1.900e+00 1.900e+00 1.900e+00 1.900e+00 1.900e+00 1.900e+00 1.900e+00 1.900e+00 1.900e+00 1.900e+00 1.900e+00 1.900e+00 1.900e+00 1.900e+00 1.900e+00 1.900e+00 1.900e+00 1.900e+00 1.900e+00 1.900e+00 1.900e+00 1.900e+00 1.900e+00 1.900e+00 1.900e+00 1.900e+00 1.900e+00 1.900e+00 1.900e+00 1.900e+00 1.900e+00 1.900e+00 1.900e+00 1.900e+00 1.900e+00 1.900e+00 1.900e+00 1.900e+00 1.900e+00 1.900e+00 1.900e+00 1.900e+00 1.900e+00 1.900e+00 1.900e+00 1.900e+00 1.900e+00 1.900e+00 1.900e+00 1.900e+00 1.900e+00 1.900e+00 1.900e+00 1.900e+00 1.900e+00 1.900e+00 1.900e+00 1.900e+00 1.900e+00 1.900e+00 1.900e+00 1.900e+00 1.900e+00 1.900e+00 1.900e+00 1.900e+00 1.900e+00 1.900e+00 1.900e+00 1.900e+00 1.900e+00 1.900e+00 1.900e+00 1.900e+00 1.900e+00 1.900e+00 1.900e+00 1.900e+00 1.900e+00 1.900e+00 1.900e+00 1.900e+00 1.900e+00 1.900e+00 1.900e+00 1.900e+00 1.900e+00 1.900e+00 1.900e+00 1.900e+00 1.900e+00 1.900e+00 1.900e+00 1.900e+00 1.900e+00 1.900e+00 1.900e+00 1.900e+00 1.900e+00 1.900e+00 1.900e+00 1.900e+00 1.900e+00 1.900e+00 1.900e+00 1.900e+00 1.900e+00 1.900e+00 1.900e+00 1.900e+00 1.900e+00 1.900e+00 1.900e+00 1.900e+00 1.900e+00 1.900e+00 1.900e+00 1.900e+00 1.900e+00 1.900e+00 1.900e+00 1.900e+00 1.900e+00 1.900e+00 1.900e+00 1.900e+00 1.900e+00 1.900e+00 1.900e+00 1.900e+00 1.900e+00 1.900e+00 1.900e+00 1.900e+00 1.900e+00 1.900e+00 1.900e+00 1.900e+00 1.900e+00 1.900e+00 1.900e+00 1.900e+00 1.900e+00 1.900e+00 1.900e+00 1.900e+00 1.900e+00 1.900e+00 1.900e+00 1.900e+00 1.900e+00 1.900e+00 1.900e+00 1.900e+00 1.900e+00 1.900e+00 1.900e+00 1.900e+00 1.900e+00 1.900e+00 1.900e+00 1.900e+00 1.900e+00 1.900e+00 1.900e+00 1.900e+00 1.900e+00 1.900e+00 1.900e+00 1.900e+00 1.900e+00 1.900e+00 1.900e+00 1.900e+00 1.900e+00 1.900e+00 1.900e+00 1.900e+00 1.900e+00 1.900e+00 1.900e+00 1.900e+00 1.900e+00 1.900e+00 1.900e+00 1.900e+00 1.900e+00 1.900e+00 1.900e+00 1.900e+00 1.900e+00 1.900e+00 1.900e+00 1.900e+00 1.900e+00 1.900e+00 1.900e+00 1.900e+00 1.900e+00 1.900e+00 1.900e+00 1.900e+00 1.900e+00 1.900e+00 1.900e+00 1.900e+00 1.900e+00 1.900e+00 1.900e+00 1.900e+00 1.900e+00 1.900e+00 1.900e+00 1.900e+00 1.900e+00 1.900e+00 1.900e+00 1.900e+00 1.900e+00 1.900e+00 1.900e+00 1.900e+00 1.900e+00 1.900e+00 1.900e+00 1.900e+00 1.900e+00 1.900e+00 1.900e+00 1.900e+00 1.900e+00 1.900e+00 1.900e+00 1.900e+00 1.900e+00 1.900e+00 1.900e+00 1.900e+00 1.900e+00 1.900e+00 1.900e+00 1.900e+00 1.900e+00 1.900e+00 1.900e+00 1.900e+00 1.900e+00 1.900e+00 1.900e+00 1.900e+00 1.900e+00 1.900e+00 1.900e+00 1.900e+00 1.900e+00 1.900e+00 1.900e+00 1.900e+00 1.900e+00 1.900e+00 1.900e+00 1.900e+00 1.900e+00 1.900e+00 1.900e+00 1.900e+00 1.900e+00 1.900e+00 1.900e+00 1.900e+00 1.900e+00 1.900e+00 1.900e+00 1.900e+00 1.900e+00 1.900e+00 1.900e+00 1.900e+00 1.900e+00 1.900e+00 1.900e+00 1.900e+00 1.900e+00 1.900e+00 1.900e+00 1.900e+00 1.900e+00 1.900e+00 1.900e+00 1.900e+00 1.900e+00 1.900e+00 1.900e+00 1.900e+00 1.900e+00 1.900e+00 1.900e+00 1.900e+00 1.900e+00 1.900e+00 1.900e+00 1.900e+00 1.900e+00 1.900e+00 1.900e+00 1.900e+00 1.900e+00 1.900e+00 1.900e+00 1.900e+00 1.900e+00 1.900e+00 1.900e+00 1.900e+00 1.900e+00 1.900e+00 1.900e+00 1.900e+00 1.900e+00 1.900e+00 1.900e+00 1.900e+00 1.900e+00 1.900e+00 1.900e+00 1.900e+00 1.900e+00 1.900e+00 1.900e+00 1.900e+00 1.900e+00 1.900e+00 1.900e+00 1.900e+00 1.900e+00 1.900e+00 1.900e+00 1.900e+00 1.900e+00 1.900e+00 1.900e+00 1.900e+00 1.900e+00 1.900e+00 1.900e+00 1.900e+00 1.900e+00 1.900e+00 1.900e+00 1.900e+00 1.900e+00 1.900e+00 1.900e+00 1.900e+00 1.900e+00 1.900e+00 1.900e+00 1.900e+00 1.900e+00 1.900e+00 1.900e+00 1.900e+00 1.900e+00 1.900e+00 1.900e+00 1.900e+00 1.900e+00 1.900e+00 1.900e+00 1.900e+00 1.900e+00 1.900e+00 1.900e+00 1.900e+00 1.900e+00 1.900e+00 1.900e+00 1.900e+00 1.900e+00 1.900e+00 1.900e+00 1.900e+00 1.900e+00 1.900e+00 1.900e+00 1.900e+00 1.900e+00 1.900e+00 1.900e+00 1.900e+00 1.900e+00 1.900e+00 1.900e+00 1.900e+00 1.900e+00 1.900e+00 1.900e+00 1.900e+00 1.900e+00 1.900e+00 1.900e+00 1.900e+00 1.900e+00 1.900e+00 1.900e+00 1.900e+00 1.900e+00 1.900e+00 1.900e+00 1.900e+00 1.900e+00 1.900e+00 1.900e+00 1.900e+00 1.900e+00 1.900e+00 1.900e+00 1.900e+00 1.900e+00 1.900e+00 1.900e+00 1.900e+00 1.900e+00 1.900e+00 1.900e+00 1.900e+00 1.900e+00 1.900e+00 1.900e+00 1.900e+00 1.900e+00 1.900e+00 1.900e+00 1.900e+00 1.900e+00 1.900e+00 1.900e+00 1.900e+00 1.900e+00 1.900e+00 1.900e+00 1.900e+00 1.900e+00 1.900e+00 1.900e+00 1.900e+00 1.900e+00 1.900e+00 1.900e+00 1.900e+00 1.900e+00 1.900e+00 1.900e+00 1.900e+00 1.900e+00 1.900e+00 1.900e+00 1.900e+00 1.900e+00 1.900e+00 1.900e+00 1.900e+00 1.900e+00 1.900e+00 1.900e+00 1.900e+00 1.900e+00 1.900e+00 1.900e+00 1.900e+00 1.900e+00 1.900e+00 1.900e+00 1.900e+00 1.900e+00 1.900e+00 1.900e+00 1.900e+00 1.900e+00 1.900e+00 1.900e+00 1.900e+00 1.900e+00 1.900e+00 1.900e+00 1.900e+00 1.900e+00 1.900e+00 1.900e+00 1.900e+00 1.900e+00 1.900e+00 1.900e+00 1.900e+00 1.900e+00 1.900e+00 1.900e+00 1.900e+00 1.900e+00 1.900e+00 1.900e+00 1.900e+00 1.900e+00 1.900e+00 1.900e+00 1.900e+00 1.900e+00 1.900e+00 1.900e+00 1.900e+00 1.900e+00 1.900e+00 1.900e+00 1.900e+00 1.900e+00 1.900e+00 1.900e+00 1.900e+00 1.900e+00 1.900e+00 1.900e+00 1.900e+00 1.900e+00 1.900e+00 1.900e+00 1.900e+00 1.900e+00 1.900e+00 1.900e+00 1.900e+00 1.900e+00 1.900e+00 1.900e+00 1.900e+00 1.900e+00 1.900e+00 1.900e+00 1.900e+00 1.900e+00 1.900e+00 1.900e+00 1.900e+00 1.900e+00 1.900e+00 1.900e+00 1.900e+00 1.900e+00 1.900e+00 1.900e+00 1.900e+00 1.900e+00 1.900e+00 1.900e+00 1.900e+00 1.900e+00 1.900e+00 1.900e+00 1.900e+00 1.900e+00 1.900e+00 1.900e+00 1.900e+00 1.900e+00 1.900e+00 1.900e+00 1.900e+00 1.900e+00 1.900e+00 1.900e+00 1.900e+00 1.900e+00 1.900e+00 1.900e+00 1.900e+00 1.900e+00 1.900e+00 1.900e+00 1.900e+00
           </DataArray>
           <DataArray type="Float32" Name="nitrate/Km" NumberOfComponents="1" format="ascii">