<?xml version="1.0"?>
<VTKFile type="UnstructuredGrid" version="0.1" byte_order="LittleEndian">
   <UnstructuredGrid>
      <Piece NumberOfPoints="1440" NumberOfCells="96">
         <Points>
            <DataArray type="Float32" Name="Position" NumberOfComponents="3" format="ascii">
0.028	-5.000	-0.017
0.031	-4.981	-0.011
0.022	-4.964	-0.000
0.006	-4.958	0.011
-0.014	-4.964	0.017
-0.027	-4.980	0.017
-0.031	-5.000	0.011
-0.022	-5.016	0.000
-0.005	-5.022	-0.010
0.014	-5.016	-0.017
0.346	-5.272	0.652
0.351	-5.254	0.661
0.343	-5.239	0.674
0.326	-5.234	0.686
0.307	-5.240	0.691
0.292	-5.255	0.689
0.288	-5.273	0.679
0.296	-5.288	0.667
0.312	-5.293	0.655
0.332	-5.287	0.650
0.647	-5.817	1.273
0.653	-5.802	1.287
0.646	-5.790	1.303
0.630	-5.786	1.315
0.610	-5.791	1.319
0.594	-5.804	1.313
0.588	-5.819	1.300
0.595	-5.830	1.284
0.611	-5.834	1.271
0.631	-5.829	1.267
0.789	-6.314	1.686
0.808	-6.304	1.686
0.829	-6.308	1.686
0.843	-6.322	1.686
0.847	-6.343	1.686
0.837	-6.362	1.686
0.819	-6.371	1.686
0.798	-6.368	1.686
0.783	-6.353	1.686
0.780	-6.333	1.686
0.003	-4.968	-0.025
0.013	-4.960	-0.008
0.018	-4.964	0.012
0.016	-4.977	0.027
0.008	-4.996	0.033
-0.003	-5.012	0.026
-0.013	-5.020	0.009
-0.018	-5.016	-0.011
-0.016	-5.003	-0.027
-0.008	-4.984	-0.032
0.670	-5.323	-0.257
0.681	-5.316	-0.240
0.686	-5.319	-0.220
0.682	-5.332	-0.204
0.671	-5.349	-0.197
0.658	-5.363	-0.204
0.646	-5.370	-0.220
0.642	-5.367	-0.240
0.646	-5.354	-0.257
0.656	-5.338	-0.263
1.251	-5.957	-0.472
1.264	-5.953	-0.456
1.268	-5.956	-0.436
1.261	-5.967	-0.419
1.247	-5.980	-0.412
1.230	-5.992	-0.417
1.217	-5.996	-0.433
1.213	-5.993	-0.453
1.219	-5.982	-0.470
1.234	-5.969	-0.477
1.607	-6.518	-0.650
1.620	-6.514	-0.634
1.624	-6.518	-0.614
1.617	-6.528	-0.597
1.602	-6.540	-0.590
1.584	-6.550	-0.595
1.570	-6.553	-0.611
1.566	-6.550	-0.631
1.573	-6.540	-0.648
1.589	-6.527	-0.655
-0.022	-4.965	-0.003
-0.005	-4.959	-0.013
0.014	-4.965	-0.019
0.028	-4.981	-0.017
0.031	-5.000	-0.009
0.023	-5.015	0.003
0.005	-5.021	0.014
-0.014	-5.015	0.019
-0.028	-4.999	0.017
-0.031	-4.980	0.009
-0.322	-5.303	-0.655
-0.307	-5.295	-0.668
-0.288	-5.298	-0.676
-0.271	-5.310	-0.675
-0.263	-5.327	-0.666
-0.266	-5.343	-0.652
-0.281	-5.351	-0.639
-0.300	-5.348	-0.631
-0.317	-5.336	-0.632
-0.325	-5.319	-0.641
-0.634	-5.908	-1.225
-0.618	-5.905	-1.238
-0.598	-5.911	-1.242
-0.582	-5.923	-1.236
-0.576	-5.938	-1.222
-0.583	-5.948	-1.205
-0.599	-5.951	-1.192
-0.618	-5.945	-1.187
-0.634	-5.933	-1.193
-0.640	-5.918	-1.208
-0.835	-6.441	-1.612
-0.822	-6.454	-1.602
-0.819	-6.466	-1.586
-0.829	-6.474	-1.569
-0.847	-6.474	-1.557
-0.866	-6.466	-1.556
-0.879	-6.453	-1.566
-0.882	-6.440	-1.582
-0.872	-6.432	-1.600
-0.855	-6.432	-1.611
0.017	-5.018	0.011
0.017	-5.004	0.027
0.010	-4.985	0.032
-0.001	-4.968	0.026
-0.011	-4.959	0.010
-0.017	-4.963	-0.010
-0.016	-4.976	-0.026
-0.010	-4.995	-0.032
0.001	-5.012	-0.025
0.011	-5.021	-0.009
-0.658	-5.338	0.267
-0.660	-5.326	0.284
-0.668	-5.308	0.292
-0.680	-5.291	0.287
-0.691	-5.282	0.272
-0.697	-5.284	0.252
-0.696	-5.296	0.235
-0.688	-5.314	0.227
-0.676	-5.331	0.232
-0.665	-5.340	0.247
-1.325	-5.856	0.502
-1.326	-5.847	0.521
-1.336	-5.833	0.533
-1.351	-5.818	0.532
-1.365	-5.808	0.520
-1.373	-5.807	0.501
-1.371	-5.816	0.482
-1.362	-5.830	0.470
-1.347	-5.845	0.470
-1.333	-5.855	0.482
-1.746	-6.370	0.650
-1.746	-6.364	0.670
-1.756	-6.352	0.684
-1.772	-6.338	0.686
-1.788	-6.329	0.676
-1.797	-6.326	0.657
-1.797	-6.333	0.637
-1.787	-6.345	0.623
-1.771	-6.359	0.621
-1.755	-6.368	0.631
-0.148	-5.001	0.149
-0.032	-5.002	0.208
0.096	-5.003	0.187
0.188	-5.002	0.095
0.207	-5.000	-0.034
0.148	-4.999	-0.149
0.032	-4.998	-0.208
-0.096	-4.997	-0.187
-0.188	-4.998	-0.095
-0.207	-5.000	0.034
-0.144	-4.251	0.156
-0.029	-4.252	0.214
0.098	-4.252	0.194
0.188	-4.252	0.103
0.208	-4.251	-0.024
0.149	-4.249	-0.139
0.034	-4.248	-0.197
-0.092	-4.248	-0.176
-0.183	-4.249	-0.085
-0.203	-4.250	0.042
-0.141	-3.560	0.160
-0.027	-3.561	0.218
0.099	-3.561	0.198
0.190	-3.561	0.108
0.209	-3.561	-0.019
0.151	-3.560	-0.133
0.038	-3.559	-0.191
-0.089	-3.559	-0.171
-0.179	-3.559	-0.080
-0.199	-3.559	0.046
-0.135	-2.400	0.160
-0.022	-2.400	0.218
0.103	-2.401	0.198
0.193	-2.401	0.109
0.213	-2.401	-0.017
0.156	-2.400	-0.130
0.043	-2.400	-0.188
-0.083	-2.400	-0.168
-0.173	-2.399	-0.078
-0.193	-2.399	0.047
-0.133	-1.800	0.160
-0.020	-1.800	0.218
0.105	-1.801	0.198
0.194	-1.801	0.109
0.214	-1.801	-0.016
0.157	-1.800	-0.129
0.044	-1.800	-0.187
-0.081	-1.800	-0.167
-0.171	-1.800	-0.077
-0.191	-1.800	0.048
-0.131	-1.200	0.162
-0.019	-1.201	0.219
0.106	-1.201	0.200
0.195	-1.201	0.110
0.215	-1.201	-0.014
0.158	-1.200	-0.127
0.045	-1.200	-0.184
-0.080	-1.199	-0.165
-0.169	-1.199	-0.075
-0.189	-1.200	0.049
-0.128	-0.300	0.164
-0.015	-0.300	0.221
0.109	-0.301	0.201
0.198	-0.301	0.113
0.218	-0.301	-0.012
0.161	-0.301	-0.124
0.049	-0.300	-0.181
-0.075	-0.299	-0.162
-0.165	-0.299	-0.073
-0.184	-0.299	0.051
-0.122	0.561	0.163
-0.010	0.560	0.221
0.114	0.560	0.201
0.203	0.559	0.113
0.223	0.559	-0.011
0.166	0.559	-0.123
0.055	0.559	-0.181
-0.069	0.560	-0.161
-0.158	0.561	-0.073
-0.178	0.561	0.051
-0.117	1.440	0.161
-0.006	1.440	0.218
0.118	1.440	0.199
0.206	1.440	0.111
0.226	1.439	-0.013
0.169	1.439	-0.125
0.058	1.439	-0.182
-0.066	1.440	-0.162
-0.154	1.440	-0.074
-0.174	1.440	0.050
-0.117	2.317	0.160
-0.006	2.317	0.216
0.117	2.316	0.197
0.205	2.316	0.109
0.225	2.316	-0.014
0.168	2.316	-0.125
0.058	2.316	-0.181
-0.065	2.316	-0.162
-0.153	2.316	-0.074
-0.173	2.316	0.049
-0.115	2.570	0.158
-0.005	2.570	0.214
0.117	2.570	0.195
0.204	2.570	0.108
0.224	2.569	-0.014
0.168	2.569	-0.124
0.058	2.569	-0.181
-0.064	2.569	-0.161
-0.152	2.570	-0.074
-0.171	2.570	0.048
0.013	-5.111	-0.002
0.018	-5.103	-0.002
0.016	-5.094	-0.002
0.010	-5.087	-0.002
0.001	-5.085	-0.003
-0.007	-5.089	-0.004
-0.012	-5.097	-0.004
-0.011	-5.106	-0.004
-0.004	-5.113	-0.004
0.005	-5.115	-0.003
-0.049	-5.114	0.812
-0.046	-5.106	0.811
-0.048	-5.097	0.810
-0.055	-5.091	0.811
-0.064	-5.090	0.813
-0.071	-5.095	0.816
-0.075	-5.103	0.817
-0.072	-5.112	0.818
-0.065	-5.118	0.817
-0.056	-5.119	0.815
0.253	-4.983	1.281
0.252	-4.974	1.278
0.248	-4.967	1.279
0.240	-4.963	1.283
0.233	-4.965	1.288
0.228	-4.971	1.293
0.228	-4.980	1.295
0.233	-4.988	1.294
0.241	-4.992	1.291
0.248	-4.990	1.285
0.005	-5.210	0.005
0.001	-5.203	0.008
-0.002	-5.194	0.006
-0.002	-5.188	-0.001
0.001	-5.186	-0.009
0.006	-5.189	-0.017
0.011	-5.197	-0.020
0.014	-5.205	-0.017
0.013	-5.212	-0.011
0.010	-5.214	-0.002
-0.765	-5.564	-0.357
-0.770	-5.557	-0.353
-0.773	-5.548	-0.354
-0.772	-5.541	-0.360
-0.768	-5.537	-0.367
-0.762	-5.539	-0.374
-0.756	-5.546	-0.378
-0.754	-5.555	-0.376
-0.754	-5.562	-0.371
-0.759	-5.566	-0.363
-0.953	-5.612	-0.585
-0.953	-5.608	-0.576
-0.953	-5.609	-0.567
-0.953	-5.616	-0.561
-0.953	-5.625	-0.559
-0.953	-5.633	-0.563
-0.953	-5.638	-0.572
-0.953	-5.636	-0.581
-0.953	-5.630	-0.587
-0.953	-5.620	-0.589
0.017	-6.087	0.033
0.023	-6.084	0.040
0.027	-6.087	0.048
0.027	-6.094	0.054
0.024	-6.102	0.056
0.019	-6.109	0.054
0.013	-6.112	0.047
0.009	-6.109	0.039
0.008	-6.103	0.033
0.012	-6.094	0.030
0.669	-6.439	-0.401
0.677	-6.438	-0.396
0.681	-6.441	-0.389
0.682	-6.448	-0.382
0.677	-6.455	-0.379
0.670	-6.460	-0.380
0.662	-6.462	-0.386
0.657	-6.458	-0.393
0.657	-6.452	-0.399
0.662	-6.444	-0.402
0.707	-6.551	-0.511
0.715	-6.551	-0.507
0.721	-6.556	-0.501
0.720	-6.562	-0.494
0.715	-6.568	-0.490
0.706	-6.572	-0.489
0.698	-6.571	-0.493
0.693	-6.567	-0.499
0.693	-6.560	-0.506
0.698	-6.554	-0.510
0.030	-6.208	0.049
0.034	-6.201	0.054
0.031	-6.192	0.057
0.025	-6.186	0.057
0.016	-6.184	0.055
0.008	-6.188	0.051
0.005	-6.195	0.047
0.007	-6.204	0.044
0.014	-6.210	0.043
0.023	-6.212	0.045
-0.213	-6.544	0.810
-0.210	-6.537	0.815
-0.212	-6.530	0.820
-0.220	-6.525	0.822
-0.229	-6.524	0.820
-0.236	-6.527	0.816
-0.239	-6.534	0.811
-0.236	-6.542	0.806
-0.229	-6.547	0.804
-0.220	-6.548	0.805
-0.221	-6.664	0.928
-0.219	-6.658	0.935
-0.222	-6.651	0.941
-0.229	-6.647	0.944
-0.238	-6.647	0.944
-0.246	-6.651	0.940
-0.249	-6.657	0.933
-0.246	-6.663	0.927
-0.238	-6.667	0.924
-0.229	-6.667	0.924
0.028	-6.310	0.063
0.032	-6.302	0.066
0.032	-6.293	0.066
0.028	-6.285	0.064
0.020	-6.283	0.059
0.013	-6.285	0.054
0.009	-6.293	0.050
0.009	-6.302	0.050
0.013	-6.310	0.053
0.021	-6.313	0.058
-0.453	-6.329	0.771
-0.448	-6.321	0.774
-0.446	-6.312	0.773
-0.449	-6.305	0.768
-0.455	-6.302	0.762
-0.462	-6.304	0.756
-0.467	-6.312	0.754
-0.469	-6.321	0.755
-0.466	-6.328	0.759
-0.460	-6.331	0.766
-0.516	-6.298	0.820
-0.516	-6.289	0.825
-0.516	-6.280	0.823
-0.516	-6.274	0.817
-0.516	-6.272	0.807
-0.516	-6.276	0.799
-0.516	-6.285	0.795
-0.516	-6.294	0.796
-0.516	-6.300	0.803
-0.516	-6.302	0.812
0.028	-6.409	0.073
0.035	-6.404	0.070
0.037	-6.396	0.066
0.033	-6.389	0.062
0.025	-6.384	0.060
0.016	-6.385	0.060
0.009	-6.390	0.063
0.007	-6.398	0.067
0.010	-6.406	0.071
0.018	-6.410	0.073
0.025	-6.081	0.694
0.032	-6.076	0.691
0.034	-6.068	0.687
0.030	-6.061	0.683
0.022	-6.056	0.681
0.013	-6.057	0.681
0.006	-6.062	0.684
0.004	-6.070	0.688
0.007	-6.078	0.692
0.015	-6.082	0.694
0.007	-6.490	0.076
0.013	-6.483	0.074
0.022	-6.482	0.071
0.029	-6.487	0.068
0.033	-6.495	0.067
0.031	-6.504	0.067
0.024	-6.511	0.069
0.016	-6.512	0.072
0.008	-6.507	0.075
0.005	-6.499	0.076
-0.265	-6.442	-0.700
-0.258	-6.435	-0.702
-0.250	-6.434	-0.705
-0.242	-6.439	-0.708
-0.239	-6.447	-0.710
-0.241	-6.456	-0.710
-0.247	-6.463	-0.708
-0.256	-6.464	-0.705
-0.263	-6.459	-0.702
-0.267	-6.451	-0.700
0.018	-6.609	0.085
0.020	-6.601	0.089
0.021	-6.592	0.089
0.019	-6.584	0.083
0.016	-6.582	0.075
0.012	-6.585	0.067
0.010	-6.593	0.062
0.010	-6.602	0.063
0.011	-6.609	0.069
0.014	-6.612	0.077
-0.613	-6.566	0.334
-0.611	-6.558	0.339
-0.610	-6.549	0.338
-0.612	-6.542	0.332
-0.615	-6.539	0.324
-0.619	-6.543	0.316
-0.621	-6.550	0.312
-0.621	-6.560	0.312
-0.620	-6.567	0.318
-0.616	-6.569	0.326
0.011	-6.686	0.071
0.013	-6.682	0.080
0.014	-6.684	0.089
0.014	-6.690	0.095
0.014	-6.700	0.096
0.012	-6.708	0.092
0.011	-6.711	0.084
0.010	-6.710	0.075
0.009	-6.703	0.068
0.010	-6.694	0.067
[...]
         <CellData>
           <DataArray type="Float32" Name="combinedRootClassID" NumberOfComponents="1" format="ascii">
 -5.000e+00 -5.000e+00 -5.000e+00 -5.000e+00 -5.000e+00 -5.000e+00 -5.000e+00 -5.000e+00 -5.000e+00 -5.000e+00 -5.000e+00 -5.000e+00 -2.000e+00 -2.000e+00 -2.000e+00 -2.000e+00 -2.000e+00 -2.000e+00 -2.000e+00 -2.000e+00 -2.000e+00 -2.000e+00 -7.000e+00 -7.000e+00 -7.000e+00 -7.000e+00 -7.000e+00 -7.000e+00 -7.000e+00 -7.000e+00 -7.000e+00 -7.000e+00 -7.000e+00 -7.000e+00 -7.000e+00 -7.000e+00 -7.000e+00 -7.000e+00 -7.000e+00 -7.000e+00 -7.000e+00 -7.000e+00 -7.000e+00 -7.000e+00 -7.000e+00 -7.000e+00 -7.000e+00 -7.000e+00 -7.000e+00 -7.000e+00 -7.000e+00 -7.000e+00 -7.000e+00 -7.000e+00 -7.000e+00 -7.000e+00 -7.000e+00 -7.000e+00 -7.000e+00 -7.000e+00 -7.000e+00 -7.000e+00 -7.000e+00 -7.000e+00 -7.000e+00 -7.000e+00 -7.000e+00 -7.000e+00 -7.000e+00 -7.000e+00 -7.000e+00 -7.000e+00 -7.000e+00 -7.000e+00 -7.000e+00 -9.000e+00 -4.000e+00 -4.000e+00 -4.000e+00 -4.000e+00 -4.000e+00 -4.000e+00 -4.000e+00 -4.000e+00 -4.000e+00 -4.000e+00 -4.000e+00 -4.000e+00 -4.000e+00 -4.000e+00 -4.000e+00 -4.000e+00 -4.000e+00 -4.000e+00 -4.000e+00 -4.000e+00
           </DataArray>
           <DataArray type="Float32" Name="nitrate/Cmin" NumberOfComponents="1" format="ascii">
 1.000e-03 1.000e-03 1.000e-03 1.000e-03 1.000e-03 1.000e-03 1.000e-03 1.000e-03 1.000e-03 1.000e-03 1.000e-03 1.000e-03 1.000e-03 1.000e-03 1.000e-03 1.000e-03 1.000e-03 1.000e-03 1.000e-03 1.000e-03 1.000e-03 1.000e-03 1.000e-03 1.000e-03 1.000e-03 1.000e-03 1.000e-03 1.000e-03 1.000e-03 1.000e-03 1.000e-03 1.000e-03 1.000e-03 1.000e-03 1.000e-03 1.000e-03 1.000e-03 1.000e-03 1.000e-03 1.000e-03 1.000e-03 1.000e-03 1.000e-03 1.000e-03 1.000e-03 1.000e-03 1.000e-03 1.000e-03 1.000e-03 1.000e-03 1.000e-03 1.000e-03 1.000e-03 1.000e-03 1.000e-03 1.000e-03 1.000e-03 1.000e-03 1.000e-03 1.000e-03 1.000e-03 1.000e-03 1.000e-03 1.000e-03 1.000e-03 1.000e-03 1.000e-03 1.000e-03 1.000e-03 1.000e-03 1.000e-03 1.000e-03 1.000e-03 1.000e-03 1.000e-03 1.000e-03 1.000e-03 1.000e-03 1.000e-03 1.000e-03 1.000e-03 1.000e-03 1.000e-03 1.000e-03 1.000e-03 1.000e-03 1.000e-03 1.000e-03 1.000e-03 1.000e-03 1.000e-03 1.000e-03 1.000e-03 1.000e-03 1.000e-03 1.000e-03
           </DataArray>
           <DataArray type="Float32" Name="nitrate/Imax" NumberOfComponents="1" format="ascii">
 1.900e+00 1.900e+00 1.900e+00 1.900e+00 1.900e+00 1.900e+00 1.900e+00 1.900e+00 1.900e+00 1.900e+00 1.900e+00 1.900e+00 1.900e+00 1.900e+00 1.900e+00 1.900e+00 1.900e+00 1.900e+00 1.900e+00 1.900e+00 1.900e+00 1.900e+00 1.900e+00 1.900e+00 1.900e+00 1.900e+00 1.900e+00 1.900e+00 1.900e+00 1.900e+00 1.900e+00 1.900e+00 1.900e+00 1.900e+00 1.900e+00 1.900e+00 1.900e+00 1.900e+00 1.900e+00 1.900e+00 1.900e+00 1.900e+00 1.900e+00 1.900e+00 1.900e+00 1.900e+00 1.900e+00 1.900e+00 1.900e+00 1.900e+00 1.900e+00 1.900e+00 1.900e+00 1.900e+00 1.900e+00 1.900e+00 1.900e+00 1.900e+00 1.900e+00 1.900e+00 1.900e+00 1.900e+00 1.900e+00 1.900e+00 1.900e+00 1.900e+00 1.900e+00 1.900e+00 1.900e+00 1.900e+00 1.900e+00 1.900e+00 1.900e+00 1.900e+00 1.900e+00 1.900e+00 1.900e+00 1.900e+00 1.900e+00 1.900e+00 1.900e+00 1.900e+00 1.900e+00 1.900e+00 1.900e+00 1.900e+00 1.900e+00 1.900e+00 1.900e+00 1.900e+00 1.900e+00 1.900e+00 1.900e+00 1.900e+00 1.900e+00 1.900e+00
           </DataArray>
           <DataArray type="Float32" Name="nitrate/Km" NumberOfComponents="1" format="ascii">
 1.610e-02 1.610e-02 1.610e-02 1.610e-02 1.610e-02 1.610e-02 1.610e-02 1.610e-02 1.610e-02 1.610e-02 1.610e-02 1.610e-02 1.610e-02 1.610e-02 1.610e-02 1.610e-02 1.610e-02 1.610e-02 1.610e-02 1.610e-02 1.610e-02 1.610e-02 1.610e-02 1.610e-02 1.610e-02 1.610e-02 1.610e-02 1.610e-02 1.610e-02 1.610e-02 1.610e-02 1.610e-02 1.610e-02 1.610e-02 1.610e-02 1.610e-02 1.610e-02 1.610e-02 1.610e-02 1.610e-02 1.610e-02 1.610e-02 1.610e-02 1.610e-02 1.610e-02 1.610e-02 1.610e-02 1.610e-02 1.610e-02 1.610e-02 1.610e-02 1.610e-02 1.610e-02 1.610e-02 1.610e-02 1.610e-02 1.610e-02 1.610e-02 1.610e-02 1.610e-02 1.610e-02 1.610e-02 1.610e-02 1.610e-02 1.610e-02 1.610e-02 1.610e-02 1.610e-02 1.610e-02 1.610e-02 1.610e-02 1.610e-02 1.610e-02 1.610e-02 1.610e-02 1.610e-02 1.610e-02 1.610e-02 1.610e-02 1.610e-02 1.610e-02 1.610e-02 1.610e-02 1.610e-02 1.610e-02 1.610e-02 1.610e-02 1.610e-02 1.610e-02 1.610e-02 1.610e-02 1.610e-02 1.610e-02 1.610e-02 1.610e-02 1.610e-02
           </DataArray>
           <DataArray type="Float32" Name="nitrate/minimalNutrientConcentration" NumberOfComponents="1" format="ascii">
 6.000e+02 6.000e+02 6.000e+02 6.000e+02 6.000e+02 6.000e+02 6.000e+02 6.000e+02 6.000e+02 6.000e+02 6.000e+02 6.000e+02 6.000e+02 6.000e+02 6.000e+02 6.000e+02 6.000e+02 6.000e+02 6.000e+02 6.000e+02 6.000e+02 6.000e+02 6.000e+02 6.000e+02 6.000e+02 6.000e+02 6.000e+02 6.000e+02 6.000e+02 6.000e+02 6.000e+02 6.000e+02 6.000e+02 6.000e+02 6.000e+02 6.000e+02 6.000e+02 6.000e+02 6.000e+02 6.000e+02 6.000e+02 6.000e+02 6.000e+02 6.000e+02 6.000e+02 6.000e+02 6.000e+02 6.000e+02 6.000e+02 6.000e+02 6.000e+02 6.000e+02 6.000e+02 6.000e+02 6.000e+02 6.000e+02 6.000e+02 6.000e+02 6.000e+02 6.000e+02 6.000e+02 6.000e+02 6.000e+02 6.000e+02 6.000e+02 6.000e+02 6.000e+02 6.000e+02 6.000e+02 6.000e+02 6.000e+02 6.000e+02 6.000e+02 6.000e+02 6.000e+02 6.000e+02 6.000e+02 6.000e+02 6.000e+02 6.000e+02 6.000e+02 6.000e+02 6.000e+02 6.000e+02 6.000e+02 6.000e+02 6.000e+02 6.000e+02 6.000e+02 6.000e+02 6.000e+02 6.000e+02 6.000e+02 6.000e+02 6.000e+02 6.000e+02
           </DataArray>
           <DataArray type="Float32" Name="nitrate/nutrientConcentrationAtTheRootSurface" NumberOfComponents="1" format="ascii">
 3.376e-01 3.439e-01 4.684e-01 3.376e-01 3.816e-01 4.154e-01 3.376e-01 3.880e-01 4.692e-01 3.376e-01 3.634e-01 4.448e-01 3.376e-01 3.376e-01 3.323e-01 2.929e-01 2.652e-01 2.443e-01 2.008e-01 0.000e+00 0.000e+00 0.000e+00 3.386e-01 3.500e-01 3.408e-01 3.995e-01 3.657e-01 4.221e-01 3.698e-01 4.260e-01 3.793e-01 4.161e-01 3.846e-01 3.903e-01 3.951e-01 3.979e-01 3.992e-01 4.017e-01 4.024e-01 3.467e-01 3.904e-01 4.036e-01 4.049e-01 4.066e-01 4.125e-01 4.133e-01 4.112e-01 4.038e-01 3.978e-01 3.934e-01 3.904e-01 3.501e-01 3.938e-01 3.914e-01 3.962e-01 3.974e-01 4.005e-01 4.051e-01 3.951e-01 3.850e-01 3.770e-01 3.700e-01 3.639e-01 3.537e-01 4.025e-01 3.683e-01 3.569e-01 3.941e-01 3.591e-01 4.025e-01 3.599e-01 4.009e-01 3.634e-01 3.644e-01 3.873e-01 4.007e-01 3.376e-01 3.593e-01 3.854e-01 4.038e-01 3.981e-01 4.036e-01 3.778e-01 3.695e-01 4.020e-01 3.996e-01 3.704e-01 3.684e-01 3.820e-01 3.599e-01 3.759e-01 3.978e-01 3.892e-01 3.945e-01 4.032e-01 4.105e-01
           </DataArray>
           <DataArray type="Float32" Name="nitrate/optimalNutrientConcentration" NumberOfComponents="1" format="ascii">
 1.200e+03 1.200e+03 1.200e+03 1.200e+03 1.200e+03 1.200e+03 1.200e+03 1.200e+03 1.200e+03 1.200e+03 1.200e+03 1.200e+03 1.200e+03 1.200e+03 1.200e+03 1.200e+03 1.200e+03 1.200e+03 1.200e+03 1.200e+03 1.200e+03 1.200e+03 1.200e+03 1.200e+03 1.200e+03 1.200e+03 1.200e+03 1.200e+03 1.200e+03 1.200e+03 1.200e+03 1.200e+03 1.200e+03 1.200e+03 1.200e+03 1.200e+03 1.200e+03 1.200e+03 1.200e+03 1.200e+03 1.200e+03 1.200e+03 1.200e+03 1.200e+03 1.200e+03 1.200e+03 1.200e+03 1.200e+03 1.200e+03 1.200e+03 1.200e+03 1.200e+03 1.200e+03 1.200e+03 1.200e+03 1.200e+03 1.200e+03 1.200e+03 1.200e+03 1.200e+03 1.200e+03 1.200e+03 1.200e+03 1.200e+03 1.200e+03 1.200e+03 1.200e+03 1.200e+03 1.200e+03 1.200e+03 1.200e+03 1.200e+03 1.200e+03 1.200e+03 1.200e+03 1.200e+03 1.200e+03 1.200e+03 1.200e+03 1.200e+03 1.200e+03 1.200e+03 1.200e+03 1.200e+03 1.200e+03 1.200e+03 1.200e+03 1.200e+03 1.200e+03 1.200e+03 1.200e+03 1.200e+03 1.200e+03 1.200e+03 1.200e+03 1.200e+03
           </DataArray>
           <DataArray type="Float32" Name="nitrate/rootSegmentMinimalNutrientContent" NumberOfComponents="1" format="ascii">
 1.632e-01 1.811e-01 1.406e-01 1.632e-01 1.811e-01 1.406e-01 1.632e-01 1.811e-01 1.406e-01 1.632e-01 1.811e-01 1.406e-01 5.806e+00 5.260e+00 8.735e+00 4.488e+00 4.462e+00 6.659e+00 6.322e+00 6.436e+00 6.333e+00 1.809e+00 3.444e-02 2.373e-02 3.719e-02 1.168e-02 3.539e-02 6.486e-03 3.623e-02 6.908e-03 3.534e-02 3.194e-03 3.309e-02 3.523e-02 2.872e-02 3.622e-02 3.061e-02 2.968e-02 2.428e-02 3.332e-02 1.939e-02 2.761e-02 2.499e-02 2.515e-02 1.997e-02 1.832e-02 2.263e-02 1.865e-02 1.573e-02 1.586e-02 1.598e-02 3.506e-02 8.160e-03 1.261e-02 1.203e-02 1.095e-02 8.376e-03 6.672e-03 7.099e-03 5.761e-03 5.035e-03 2.616e-03 1.869e-03 3.670e-02 1.281e-02 4.845e-04 3.722e-02 5.708e-03 3.489e-02 9.012e-03 3.609e-02 5.922e-03 3.372e-02 3.542e-02 1.028e-02 1.615e-02 3.227e-01 3.135e-01 3.050e-01 2.972e-01 2.901e-01 2.842e-01 2.794e-01 2.756e-01 2.723e-01 2.693e-01 2.666e-01 2.641e-01 2.619e-01 2.600e-01 2.583e-01 2.569e-01 2.557e-01 2.549e-01 2.542e-01 2.538e-01
           </DataArray>
           <DataArray type="Float32" Name="nitrate/rootSegmentNutrientUptake" NumberOfComponents="1" format="ascii">
 0.000e+00 9.331e-02 4.161e-02 0.000e+00 1.019e-01 3.784e-02 0.000e+00 1.032e-01 4.185e-02 0.000e+00 9.747e-02 4.012e-02 0.000e+00 4.805e-01 4.353e-01 3.446e-01 2.946e-01 2.451e-01 1.763e-01 0.000e+00 0.000e+00 0.000e+00 0.000e+00 4.078e-02 0.000e+00 1.261e-02 0.000e+00 4.203e-03 0.000e+00 4.478e-03 0.000e+00 1.377e-03 0.000e+00 0.000e+00 0.000e+00 0.000e+00 0.000e+00 0.000e+00 0.000e+00 0.000e+00 2.929e-02 0.000e+00 0.000e+00 0.000e+00 0.000e+00 0.000e+00 0.000e+00 0.000e+00 0.000e+00 0.000e+00 0.000e+00 0.000e+00 7.041e-03 0.000e+00 0.000e+00 0.000e+00 0.000e+00 0.000e+00 0.000e+00 0.000e+00 0.000e+00 0.000e+00 0.000e+00 0.000e+00 1.384e-02 0.000e+00 0.000e+00 3.692e-03 0.000e+00 7.783e-03 0.000e+00 3.832e-03 0.000e+00 0.000e+00 8.867e-03 0.000e+00 0.000e+00 5.481e-01 5.509e-01 5.386e-01 5.291e-01 5.317e-01 4.991e-01 4.797e-01 4.807e-01 4.469e-01 3.927e-01 3.590e-01 3.285e-01 2.777e-01 2.504e-01 2.191e-01 1.721e-01 1.300e-01 8.672e-02 4.168e-02
           </DataArray>
           <DataArray type="Float32" Name="nitrate/rootSegmentOptimalNutrientContent" NumberOfComponents="1" format="ascii">
 3.265e-01 3.621e-01 2.812e-01 3.265e-01 3.621e-01 2.812e-01 3.265e-01 3.621e-01 2.812e-01 3.265e-01 3.621e-01 2.812e-01 1.161e+01 1.052e+01 1.747e+01 8.976e+00 8.924e+00 1.332e+01 1.264e+01 1.287e+01 1.267e+01 3.619e+00 6.888e-02 4.746e-02 7.438e-02 2.336e-02 7.079e-02 1.297e-02 7.245e-02 1.382e-02 7.067e-02 6.388e-03 6.617e-02 7.046e-02 5.744e-02 7.245e-02 6.122e-02 5.937e-02 4.856e-02 6.663e-02 3.878e-02 5.523e-02 4.998e-02 5.030e-02 3.994e-02 3.663e-02 4.525e-02 3.729e-02 3.145e-02 3.172e-02 3.196e-02 7.012e-02 1.632e-02 2.523e-02 2.405e-02 2.191e-02 1.675e-02 1.334e-02 1.420e-02 1.152e-02 1.007e-02 5.231e-03 3.739e-03 7.341e-02 2.562e-02 9.690e-04 7.444e-02 1.142e-02 6.977e-02 1.802e-02 7.219e-02 1.184e-02 6.744e-02 7.083e-02 2.056e-02 3.229e-02 6.454e-01 6.270e-01 6.100e-01 5.944e-01 5.802e-01 5.683e-01 5.587e-01 5.512e-01 5.446e-01 5.386e-01 5.331e-01 5.282e-01 5.238e-01 5.199e-01 5.166e-01 5.138e-01 5.115e-01 5.097e-01 5.084e-01 5.077e-01
           </DataArray>
           <DataArray type="Float32" Name="parentRootClassID" NumberOfComponents="1" format="ascii">
 -2.000e+00 -2.000e+00 -2.000e+00 -2.000e+00 -2.000e+00 -2.000e+00 -2.000e+00 -2.000e+00 -2.000e+00 -2.000e+00 -2.000e+00 -2.000e+00 -3.000e+00 -3.000e+00 -3.000e+00 -3.000e+00 -3.000e+00 -3.000e+00 -3.000e+00 -3.000e+00 -3.000e+00 -3.000e+00 -4.000e+00 -4.000e+00 -4.000e+00 -4.000e+00 -4.000e+00 -4.000e+00 -4.000e+00 -4.000e+00 -4.000e+00 -4.000e+00 -4.000e+00 -4.000e+00 -4.000e+00 -4.000e+00 -4.000e+00 -4.000e+00 -4.000e+00 -4.000e+00 -4.000e+00 -4.000e+00 -4.000e+00 -4.000e+00 -4.000e+00 -4.000e+00 -4.000e+00 -4.000e+00 -4.000e+00 -4.000e+00 -4.000e+00 -4.000e+00 -4.000e+00 -4.000e+00 -4.000e+00 -4.000e+00 -4.000e+00 -4.000e+00 -4.000e+00 -4.000e+00 -4.000e+00 -4.000e+00 -4.000e+00 -4.000e+00 -4.000e+00 -4.000e+00 -4.000e+00 -4.000e+00 -4.000e+00 -4.000e+00 -4.000e+00 -4.000e+00 -4.000e+00 -4.000e+00 -4.000e+00 -4.000e+00 -3.000e+00 -3.000e+00 -3.000e+00 -3.000e+00 -3.000e+00 -3.000e+00 -3.000e+00 -3.000e+00 -3.000e+00 -3.000e+00 -3.000e+00 -3.000e+00 -3.000e+00 -3.000e+00 -3.000e+00 -3.000e+00 -3.000e+00 -3.000e+00 -3.000e+00 -3.000e+00
           </DataArray>
           <DataArray type="Float32" Name="plantID" NumberOfComponents="1" format="ascii">
 7.000e+00 7.000e+00 7.000e+00 7.000e+00 7.000e+00 7.000e+00 7.000e+00 7.000e+00 7.000e+00 7.000e+00 7.000e+00 7.000e+00 7.000e+00 7.000e+00 7.000e+00 7.000e+00 7.000e+00 7.000e+00 7.000e+00 7.000e+00 7.000e+00 7.000e+00 7.000e+00 7.000e+00 7.000e+00 7.000e+00 7.000e+00 7.000e+00 7.000e+00 7.000e+00 7.000e+00 7.000e+00 7.000e+00 7.000e+00 7.000e+00 7.000e+00 7.000e+00 7.000e+00 7.000e+00 7.000e+00 7.000e+00 7.000e+00 7.000e+00 7.000e+00 7.000e+00 7.000e+00 7.000e+00 7.000e+00 7.000e+00 7.000e+00 7.000e+00 7.000e+00 7.000e+00 7.000e+00 7.000e+00 7.000e+00 7.000e+00 7.000e+00 7.000e+00 7.000e+00 7.000e+00 7.000e+00 7.000e+00 7.000e+00 7.000e+00 7.000e+00 7.000e+00 7.000e+00 7.000e+00 7.000e+00 7.000e+00 7.000e+00 7.000e+00 7.000e+00 7.000e+00 7.000e+00 7.000e+00 7.000e+00 7.000e+00 7.000e+00 7.000e+00 7.000e+00 7.000e+00 7.000e+00 7.000e+00 7.000e+00 7.000e+00 7.000e+00 7.000e+00 7.000e+00 7.000e+00 7.000e+00 7.000e+00 7.000e+00 7.000e+00 7.000e+00
           </DataArray>
           <DataArray type="Float32" Name="plantTypeID" NumberOfComponents="1" format="ascii">
 0.000e+00 0.000e+00 0.000e+00 0.000e+00 0.000e+00 0.000e+00 0.000e+00 0.000e+00 0.000e+00 0.000e+00 0.000e+00 0.000e+00 0.000e+00 0.000e+00 0.000e+00 0.000e+00 0.000e+00 0.000e+00 0.000e+00 0.000e+00 0.000e+00 0.000e+00 0.000e+00 0.000e+00 0.000e+00 0.000e+00 0.000e+00 0.000e+00 0.000e+00 0.000e+00 0.000e+00 0.000e+00 0.000e+00 0.000e+00 0.000e+00 0.000e+00 0.000e+00 0.000e+00 0.000e+00 0.000e+00 0.000e+00 0.000e+00 0.000e+00 0.000e+00 0.000e+00 0.000e+00 0.000e+00 0.000e+00 0.000e+00 0.000e+00 0.000e+00 0.000e+00 0.000e+00 0.000e+00 0.000e+00 0.000e+00 0.000e+00 0.000e+00 0.000e+00 0.000e+00 0.000e+00 0.000e+00 0.000e+00 0.000e+00 0.000e+00 0.000e+00 0.000e+00 0.000e+00 0.000e+00 0.000e+00 0.000e+00 0.000e+00 0.000e+00 0.000e+00 0.000e+00 0.000e+00 0.000e+00 0.000e+00 0.000e+00 0.000e+00 0.000e+00 0.000e+00 0.000e+00 0.000e+00 0.000e+00 0.000e+00 0.000e+00 0.000e+00 0.000e+00 0.000e+00 0.000e+00 0.000e+00 0.000e+00 0.000e+00 0.000e+00 0.000e+00
           </DataArray>
           <DataArray type="Float32" Name="rootCircumference" NumberOfComponents="1" format="ascii">
 2.136e-01 2.136e-01 2.136e-01 2.136e-01 2.136e-01 2.136e-01 2.136e-01 2.136e-01 2.136e-01 2.136e-01 2.136e-01 2.136e-01 1.320e+00 1.307e+00 1.300e+00 1.291e+00 1.287e+00 1.284e+00 1.280e+00 1.276e+00 1.273e+00 1.265e+00 9.431e-02 9.426e-02 9.430e-02 9.425e-02 9.428e-02 9.425e-02 9.428e-02 9.425e-02 9.428e-02 9.425e-02 9.427e-02 9.427e-02 9.427e-02 9.427e-02 9.427e-02 9.427e-02 9.426e-02 9.430e-02 9.425e-02 9.426e-02 9.426e-02 9.426e-02 9.426e-02 9.426e-02 9.426e-02 9.426e-02 9.425e-02 9.425e-02 9.425e-02 9.430e-02 9.425e-02 9.425e-02 9.425e-02 9.425e-02 9.425e-02 9.425e-02 9.425e-02 9.425e-02 9.425e-02 9.425e-02 9.425e-02 9.429e-02 9.425e-02 9.425e-02 9.429e-02 9.425e-02 9.429e-02 9.425e-02 9.429e-02 9.425e-02 9.428e-02 9.428e-02 9.425e-02 9.425e-02 3.189e-01 3.143e-01 3.100e-01 3.060e-01 3.023e-01 2.992e-01 2.967e-01 2.947e-01 2.929e-01 2.913e-01 2.898e-01 2.885e-01 2.873e-01 2.862e-01 2.853e-01 2.845e-01 2.839e-01 2.834e-01 2.830e-01 2.828e-01
           </DataArray>
           <DataArray type="Float32" Name="rootClassID" NumberOfComponents="1" format="ascii">
 9.900e+01 9.900e+01 9.900e+01 9.900e+01 9.900e+01 9.900e+01 9.900e+01 9.900e+01 9.900e+01 9.900e+01 9.900e+01 9.900e+01 -2.000e+00 -2.000e+00 -2.000e+00 -2.000e+00 -2.000e+00 -2.000e+00 -2.000e+00 -2.000e+00 -2.000e+00 -2.000e+00 9.700e+01 9.700e+01 9.700e+01 9.700e+01 9.700e+01 9.700e+01 9.700e+01 9.700e+01 9.700e+01 9.700e+01 9.700e+01 9.700e+01 9.700e+01 9.700e+01 9.700e+01 9.700e+01 9.700e+01 9.700e+01 9.700e+01 9.700e+01 9.700e+01 9.700e+01 9.700e+01 9.700e+01 9.700e+01 9.700e+01 9.700e+01 9.700e+01 9.700e+01 9.700e+01 9.700e+01 9.700e+01 9.700e+01 9.700e+01 9.700e+01 9.700e+01 9.700e+01 9.700e+01 9.700e+01 9.700e+01 9.700e+01 9.700e+01 9.700e+01 9.700e+01 9.700e+01 9.700e+01 9.700e+01 9.700e+01 9.700e+01 9.700e+01 9.700e+01 9.700e+01 9.700e+01 9.700e+01 -4.000e+00 -4.000e+00 -4.000e+00 -4.000e+00 -4.000e+00 -4.000e+00 -4.000e+00 -4.000e+00 -4.000e+00 -4.000e+00 -4.000e+00 -4.000e+00 -4.000e+00 -4.000e+00 -4.000e+00 -4.000e+00 -4.000e+00 -4.000e+00 -4.000e+00 -4.000e+00
           </DataArray>
           <DataArray type="Float32" Name="rootDiameter" NumberOfComponents="1" format="ascii">
 6.800e-02 6.800e-02 6.800e-02 6.800e-02 6.800e-02 6.800e-02 6.800e-02 6.800e-02 6.800e-02 6.800e-02 6.800e-02 6.800e-02 4.201e-01 4.160e-01 4.137e-01 4.109e-01 4.097e-01 4.087e-01 4.074e-01 4.063e-01 4.051e-01 4.027e-01 3.002e-02 3.000e-02 3.002e-02 3.000e-02 3.001e-02 3.000e-02 3.001e-02 3.000e-02 3.001e-02 3.000e-02 3.001e-02 3.001e-02 3.001e-02 3.001e-02 3.001e-02 3.001e-02 3.001e-02 3.002e-02 3.000e-02 3.000e-02 3.000e-02 3.000e-02 3.000e-02 3.000e-02 3.000e-02 3.000e-02 3.000e-02 3.000e-02 3.000e-02 3.002e-02 3.000e-02 3.000e-02 3.000e-02 3.000e-02 3.000e-02 3.000e-02 3.000e-02 3.000e-02 3.000e-02 3.000e-02 3.000e-02 3.001e-02 3.000e-02 3.000e-02 3.001e-02 3.000e-02 3.001e-02 3.000e-02 3.001e-02 3.000e-02 3.001e-02 3.001e-02 3.000e-02 3.000e-02 1.015e-01 1.000e-01 9.868e-02 9.741e-02 9.624e-02 9.525e-02 9.444e-02 9.380e-02 9.324e-02 9.272e-02 9.225e-02 9.182e-02 9.144e-02 9.110e-02 9.081e-02 9.056e-02 9.036e-02 9.020e-02 9.009e-02 9.002e-02
           </DataArray>
           <DataArray type="Float32" Name="rootHairDensity" NumberOfComponents="1" format="ascii">
 2.000e+03 2.000e+03 2.000e+03 2.000e+03 2.000e+03 2.000e+03 2.000e+03 2.000e+03 2.000e+03 2.000e+03 2.000e+03 2.000e+03 0.000e+00 0.000e+00 0.000e+00 0.000e+00 0.000e+00 0.000e+00 0.000e+00 0.000e+00 0.000e+00 0.000e+00 2.000e+03 2.000e+03 2.000e+03 2.000e+03 2.000e+03 2.000e+03 2.000e+03 2.000e+03 2.000e+03 2.000e+03 2.000e+03 2.000e+03 2.000e+03 2.000e+03 2.000e+03 2.000e+03 2.000e+03 2.000e+03 2.000e+03 2.000e+03 2.000e+03 2.000e+03 2.000e+03 2.000e+03 2.000e+03 2.000e+03 2.000e+03 2.000e+03 2.000e+03 2.000e+03 2.000e+03 2.000e+03 2.000e+03 2.000e+03 2.000e+03 2.000e+03 2.000e+03 2.000e+03 2.000e+03 2.000e+03 2.000e+03 2.000e+03 2.000e+03 2.000e+03 2.000e+03 2.000e+03 2.000e+03 2.000e+03 2.000e+03 2.000e+03 2.000e+03 2.000e+03 2.000e+03 3.000e+03 2.000e+03 2.000e+03 2.000e+03 2.000e+03 2.000e+03 2.000e+03 2.000e+03 2.000e+03 2.000e+03 2.000e+03 2.000e+03 2.000e+03 2.000e+03 2.000e+03 2.000e+03 2.000e+03 2.000e+03 2.000e+03 2.000e+03 2.000e+03
           </DataArray>
           <DataArray type="Float32" Name="rootHairDiameter" NumberOfComponents="1" format="ascii">
 5.000e-04 5.000e-04 5.000e-04 5.000e-04 5.000e-04 5.000e-04 5.000e-04 5.000e-04 5.000e-04 5.000e-04 5.000e-04 5.000e-04 5.000e-04 5.000e-04 5.000e-04 5.000e-04 5.000e-04 5.000e-04 5.000e-04 5.000e-04 5.000e-04 5.000e-04 5.000e-04 5.000e-04 5.000e-04 5.000e-04 5.000e-04 5.000e-04 5.000e-04 5.000e-04 5.000e-04 5.000e-04 5.000e-04 5.000e-04 5.000e-04 5.000e-04 5.000e-04 5.000e-04 5.000e-04 5.000e-04 5.000e-04 5.000e-04 5.000e-04 5.000e-04 5.000e-04 5.000e-04 5.000e-04 5.000e-04 5.000e-04 5.000e-04 5.000e-04 5.000e-04 5.000e-04 5.000e-04 5.000e-04 5.000e-04 5.000e-04 5.000e-04 5.000e-04 5.000e-04 5.000e-04 5.000e-04 5.000e-04 5.000e-04 5.000e-04 5.000e-04 5.000e-04 5.000e-04 5.000e-04 5.000e-04 5.000e-04 5.000e-04 5.000e-04 5.000e-04 5.000e-04 5.000e-04 5.000e-04 5.000e-04 5.000e-04 5.000e-04 5.000e-04 5.000e-04 5.000e-04 5.000e-04 5.000e-04 5.000e-04 5.000e-04 5.000e-04 5.000e-04 5.000e-04 5.000e-04 5.000e-04 5.000e-04 5.000e-04 5.000e-04 5.000e-04
           </DataArray>
           <DataArray type="Float32" Name="rootHairLength" NumberOfComponents="1" format="ascii">