<?xml version="1.0"?>
<VTKFile type="UnstructuredGrid" version="0.1" byte_order="LittleEndian">
   <UnstructuredGrid>
      <Piece NumberOfPoints="2540" NumberOfCells="179">
         <Points>
            <DataArray type="Float32" Name="Position" NumberOfComponents="3" format="ascii">
0.028	-5.000	-0.017
0.031	-4.981	-0.011
0.023	-4.964	-0.000
0.006	-4.958	0.011
-0.014	-4.964	0.017
-0.027	-4.980	0.017
-0.031	-5.000	0.011
-0.022	-5.016	0.000
-0.005	-5.022	-0.010
0.014	-5.016	-0.017
0.346	-5.272	0.652
0.351	-5.254	0.661
0.343	-5.239	0.674
0.326	-5.234	0.686
0.307	-5.240	0.691
0.292	-5.255	0.689
0.288	-5.273	0.679
0.296	-5.288	0.667
0.312	-5.293	0.655
0.332	-5.287	0.650
0.647	-5.817	1.273
0.653	-5.802	1.287
0.646	-5.790	1.303
0.630	-5.786	1.315
0.610	-5.791	1.319
0.594	-5.804	1.313
0.588	-5.819	1.300
0.595	-5.830	1.284
0.611	-5.834	1.271
0.631	-5.829	1.267
0.840	-6.344	1.666
0.846	-6.331	1.681
0.840	-6.321	1.699
0.824	-6.317	1.711
0.803	-6.322	1.714
0.787	-6.332	1.707
0.780	-6.345	1.691
0.786	-6.355	1.674
0.803	-6.358	1.661
0.823	-6.354	1.658
1.021	-7.008	2.076
1.028	-6.997	2.093
1.023	-6.988	2.111
1.006	-6.985	2.124
0.986	-6.989	2.127
0.969	-6.998	2.119
0.962	-7.009	2.102
0.968	-7.018	2.084
0.984	-7.021	2.071
1.004	-7.017	2.068
1.156	-7.530	2.340
1.163	-7.519	2.357
1.157	-7.511	2.376
1.141	-7.508	2.389
1.121	-7.512	2.392
1.104	-7.520	2.383
1.096	-7.531	2.366
1.102	-7.539	2.348
1.118	-7.542	2.334
1.138	-7.538	2.332
1.288	-8.098	2.635
1.295	-8.088	2.652
1.289	-8.080	2.671
1.273	-8.076	2.684
1.252	-8.079	2.686
1.235	-8.087	2.677
1.228	-8.097	2.660
1.234	-8.105	2.641
1.250	-8.108	2.628
1.271	-8.106	2.626
1.382	-8.727	2.936
1.390	-8.718	2.953
1.384	-8.711	2.972
1.368	-8.708	2.985
1.347	-8.710	2.987
1.330	-8.717	2.978
1.323	-8.726	2.960
1.328	-8.733	2.942
1.344	-8.736	2.928
1.365	-8.734	2.926
1.416	-9.038	3.070
1.416	-9.029	3.088
1.416	-9.032	3.109
1.416	-9.047	3.124
1.416	-9.068	3.127
1.416	-9.087	3.118
1.416	-9.096	3.099
1.416	-9.093	3.078
1.416	-9.078	3.063
1.416	-9.057	3.060
0.003	-4.968	-0.025
0.013	-4.960	-0.008
0.018	-4.964	0.012
0.016	-4.977	0.027
0.008	-4.996	0.033
-0.003	-5.012	0.026
-0.013	-5.020	0.009
-0.018	-5.017	-0.011
-0.016	-5.003	-0.027
-0.008	-4.984	-0.032
0.670	-5.323	-0.257
0.681	-5.316	-0.240
0.686	-5.319	-0.220
0.682	-5.332	-0.204
0.671	-5.349	-0.197
0.658	-5.363	-0.204
0.646	-5.370	-0.220
0.642	-5.367	-0.240
0.646	-5.354	-0.257
0.656	-5.338	-0.263
1.251	-5.957	-0.472
1.264	-5.953	-0.456
1.268	-5.956	-0.436
1.261	-5.967	-0.419
1.247	-5.980	-0.412
1.230	-5.992	-0.417
1.217	-5.996	-0.433
1.213	-5.993	-0.453
1.219	-5.982	-0.470
1.234	-5.969	-0.477
1.608	-6.519	-0.650
1.621	-6.516	-0.634
1.625	-6.519	-0.614
1.617	-6.529	-0.597
1.601	-6.540	-0.590
1.582	-6.549	-0.595
1.569	-6.552	-0.611
1.566	-6.548	-0.631
1.573	-6.539	-0.648
1.590	-6.528	-0.656
1.969	-7.218	-0.824
1.982	-7.215	-0.807
1.985	-7.218	-0.787
1.976	-7.227	-0.770
1.959	-7.236	-0.762
1.940	-7.244	-0.768
1.927	-7.247	-0.784
1.924	-7.243	-0.805
1.933	-7.235	-0.822
1.950	-7.225	-0.829
2.206	-7.761	-0.930
2.219	-7.758	-0.913
2.221	-7.761	-0.893
2.211	-7.769	-0.876
2.193	-7.777	-0.869
2.174	-7.784	-0.875
2.161	-7.786	-0.891
2.160	-7.783	-0.912
2.170	-7.776	-0.929
2.187	-7.767	-0.936
2.439	-8.364	-1.028
2.451	-8.362	-1.011
2.453	-8.365	-0.990
2.442	-8.371	-0.973
2.424	-8.379	-0.967
2.405	-8.385	-0.973
2.392	-8.387	-0.990
2.391	-8.384	-1.010
2.401	-8.378	-1.027
2.420	-8.370	-1.034
2.655	-9.029	-1.126
2.668	-9.028	-1.110
2.669	-9.030	-1.089
2.657	-9.036	-1.072
2.638	-9.042	-1.065
2.619	-9.047	-1.072
2.606	-9.048	-1.089
2.606	-9.045	-1.109
2.617	-9.040	-1.126
2.636	-9.033	-1.133
2.745	-9.387	-1.177
2.758	-9.386	-1.160
2.758	-9.389	-1.139
2.747	-9.394	-1.122
2.728	-9.400	-1.116
2.708	-9.404	-1.123
2.696	-9.404	-1.140
2.695	-9.402	-1.160
2.707	-9.396	-1.177
2.726	-9.391	-1.183
-0.022	-4.965	-0.003
-0.005	-4.959	-0.013
0.014	-4.965	-0.019
0.028	-4.981	-0.017
0.031	-5.000	-0.009
0.023	-5.015	0.003
0.005	-5.021	0.014
-0.014	-5.015	0.019
-0.028	-4.999	0.017
-0.031	-4.980	0.009
-0.322	-5.303	-0.655
-0.307	-5.295	-0.668
-0.288	-5.298	-0.676
-0.271	-5.310	-0.675
-0.263	-5.327	-0.666
-0.266	-5.343	-0.652
-0.281	-5.351	-0.639
-0.300	-5.348	-0.631
-0.317	-5.336	-0.632
-0.325	-5.319	-0.641
-0.634	-5.908	-1.225
-0.618	-5.905	-1.238
-0.598	-5.911	-1.242
-0.582	-5.923	-1.236
-0.576	-5.938	-1.222
-0.583	-5.948	-1.205
-0.599	-5.951	-1.192
-0.618	-5.945	-1.187
-0.634	-5.933	-1.193
-0.640	-5.918	-1.208
-0.872	-6.433	-1.602
-0.853	-6.434	-1.612
-0.834	-6.442	-1.612
-0.821	-6.454	-1.601
-0.819	-6.466	-1.583
-0.830	-6.473	-1.566
-0.848	-6.472	-1.556
-0.867	-6.464	-1.556
-0.880	-6.452	-1.568
-0.882	-6.440	-1.585
-1.098	-7.103	-1.989
-1.079	-7.104	-1.997
-1.060	-7.111	-1.995
-1.047	-7.122	-1.982
-1.047	-7.133	-1.964
-1.058	-7.138	-1.947
-1.077	-7.137	-1.938
-1.096	-7.129	-1.941
-1.109	-7.118	-1.953
-1.110	-7.108	-1.972
-1.250	-7.623	-2.252
-1.231	-7.624	-2.260
-1.211	-7.631	-2.256
-1.199	-7.641	-2.242
-1.199	-7.650	-2.223
-1.211	-7.655	-2.207
-1.231	-7.653	-2.199
-1.250	-7.646	-2.203
-1.262	-7.636	-2.217
-1.262	-7.627	-2.236
-1.386	-8.210	-2.508
-1.366	-8.212	-2.515
-1.347	-8.218	-2.510
-1.336	-8.227	-2.494
-1.336	-8.235	-2.475
-1.349	-8.238	-2.459
-1.369	-8.236	-2.452
-1.388	-8.230	-2.457
-1.400	-8.221	-2.472
-1.399	-8.213	-2.492
-1.540	-8.855	-2.751
-1.520	-8.857	-2.756
-1.501	-8.864	-2.750
-1.491	-8.871	-2.733
-1.493	-8.877	-2.713
-1.506	-8.880	-2.697
-1.527	-8.877	-2.692
-1.545	-8.871	-2.698
-1.556	-8.863	-2.715
-1.554	-8.857	-2.735
-1.568	-9.216	-2.849
-1.558	-9.223	-2.832
-1.560	-9.228	-2.812
-1.574	-9.230	-2.796
-1.594	-9.228	-2.791
-1.613	-9.222	-2.798
-1.623	-9.215	-2.815
-1.621	-9.210	-2.836
-1.607	-9.208	-2.851
-1.587	-9.211	-2.856
0.017	-5.018	0.011
0.017	-5.004	0.027
0.010	-4.985	0.032
-0.001	-4.968	0.026
-0.011	-4.959	0.010
-0.017	-4.962	-0.010
-0.016	-4.976	-0.026
-0.010	-4.995	-0.032
0.001	-5.012	-0.025
0.011	-5.021	-0.009
-0.658	-5.338	0.267
-0.660	-5.326	0.284
-0.668	-5.308	0.292
-0.680	-5.291	0.287
-0.691	-5.282	0.272
-0.697	-5.284	0.252
-0.696	-5.296	0.235
-0.688	-5.314	0.227
-0.676	-5.331	0.232
-0.665	-5.340	0.247
-1.325	-5.856	0.502
-1.326	-5.847	0.521
-1.336	-5.833	0.533
-1.351	-5.818	0.532
-1.365	-5.808	0.520
-1.373	-5.807	0.501
-1.371	-5.816	0.482
-1.362	-5.830	0.470
-1.347	-5.845	0.470
-1.333	-5.855	0.482
-1.745	-6.369	0.648
-1.745	-6.364	0.668
-1.755	-6.353	0.683
-1.771	-6.340	0.687
-1.788	-6.331	0.678
-1.798	-6.328	0.660
-1.798	-6.333	0.639
-1.788	-6.344	0.624
-1.772	-6.357	0.621
-1.755	-6.366	0.630
-2.163	-7.035	0.797
-2.162	-7.031	0.818
-2.171	-7.021	0.834
-2.188	-7.010	0.839
-2.206	-7.001	0.832
-2.218	-6.998	0.815
-2.219	-7.002	0.794
-2.209	-7.012	0.778
-2.193	-7.023	0.773
-2.175	-7.032	0.780
-2.453	-7.545	0.914
-2.451	-7.542	0.934
-2.460	-7.534	0.951
-2.477	-7.524	0.958
-2.495	-7.516	0.953
-2.508	-7.512	0.936
-2.510	-7.515	0.916
-2.501	-7.523	0.898
-2.484	-7.533	0.891
-2.466	-7.541	0.897
-2.721	-8.130	0.995
-2.718	-8.129	1.016
-2.727	-8.123	1.034
-2.744	-8.115	1.043
-2.763	-8.107	1.039
-2.777	-8.103	1.023
-2.780	-8.104	1.002
-2.771	-8.110	0.984
-2.754	-8.118	0.976
-2.735	-8.126	0.980
-2.992	-8.777	1.054
-2.989	-8.777	1.075
-2.998	-8.772	1.093
-3.015	-8.764	1.102
-3.034	-8.756	1.099
-3.048	-8.751	1.084
-3.051	-8.752	1.063
-3.043	-8.757	1.044
-3.026	-8.765	1.035
-3.006	-8.773	1.039
-3.136	-9.119	1.081
-3.133	-9.119	1.101
-3.141	-9.114	1.120
-3.159	-9.106	1.129
-3.178	-9.098	1.126
-3.192	-9.093	1.111
-3.195	-9.094	1.090
-3.186	-9.099	1.071
-3.169	-9.107	1.062
-3.150	-9.114	1.066
0.029	-4.720	-0.002
0.036	-4.701	0.003
0.030	-4.682	0.008
0.014	-4.669	0.012
-0.007	-4.668	0.013
-0.024	-4.680	0.011
-0.032	-4.699	0.006
-0.026	-4.718	0.001
-0.010	-4.731	-0.003
0.011	-4.732	-0.004
0.046	-4.826	0.425
0.053	-4.806	0.429
0.048	-4.787	0.434
0.031	-4.774	0.438
0.010	-4.773	0.439
-0.007	-4.785	0.437
-0.015	-4.804	0.432
-0.009	-4.824	0.427
0.007	-4.836	0.424
0.028	-4.837	0.423
0.008	-4.679	-0.022
0.010	-4.668	-0.004
0.010	-4.669	0.017
0.006	-4.682	0.033
0.001	-4.702	0.038
-0.004	-4.721	0.031
-0.006	-4.732	0.013
-0.005	-4.731	-0.008
-0.002	-4.718	-0.024
0.003	-4.698	-0.029
0.434	-4.786	-0.016
0.436	-4.775	0.002
0.436	-4.776	0.023
0.432	-4.789	0.039
0.427	-4.808	0.045
0.423	-4.827	0.037
0.420	-4.839	0.019
0.421	-4.837	-0.002
0.424	-4.825	-0.018
0.429	-4.805	-0.023
-0.021	-4.675	0.003
-0.002	-4.666	0.002
0.019	-4.670	0.001
0.033	-4.686	0.002
0.035	-4.707	0.004
0.025	-4.725	0.006
0.006	-4.734	0.007
-0.014	-4.730	0.008
-0.029	-4.714	0.007
-0.031	-4.693	0.005
-0.033	-4.715	-0.436
-0.014	-4.707	-0.437
0.007	-4.711	-0.437
0.021	-4.726	-0.436
0.024	-4.747	-0.434
0.014	-4.765	-0.432
-0.005	-4.774	-0.431
-0.026	-4.770	-0.431
-0.040	-4.754	-0.432
-0.043	-4.734	-0.434
0.005	-4.726	0.027
0.001	-4.708	0.038
-0.003	-4.688	0.036
-0.005	-4.672	0.022
-0.004	-4.667	0.002
-0.001	-4.674	-0.018
0.003	-4.692	-0.028
0.007	-4.713	-0.027
0.009	-4.728	-0.013
0.008	-4.733	0.007
-0.424	-4.809	-0.003
-0.429	-4.792	0.008
-0.432	-4.771	0.007
-0.435	-4.755	-0.007
-0.434	-4.750	-0.028
-0.431	-4.758	-0.047
-0.427	-4.775	-0.058
-0.423	-4.796	-0.056
-0.421	-4.812	-0.042
-0.422	-4.817	-0.022
-0.151	-5.001	0.153
-0.033	-5.002	0.212
0.098	-5.003	0.191
0.192	-5.002	0.097
0.212	-5.000	-0.035
0.151	-4.999	-0.153
0.033	-4.998	-0.212
-0.098	-4.997	-0.191
-0.192	-4.998	-0.097
-0.212	-5.000	0.035
-0.147	-4.251	0.159
-0.030	-4.252	0.219
0.100	-4.252	0.198
0.192	-4.252	0.105
0.212	-4.251	-0.025
0.152	-4.249	-0.142
0.035	-4.248	-0.201
-0.094	-4.248	-0.180
-0.187	-4.248	-0.087
-0.207	-4.250	0.043
-0.144	-3.560	0.163
-0.028	-3.561	0.222
0.101	-3.561	0.202
0.193	-3.561	0.109
0.214	-3.561	-0.019
0.154	-3.560	-0.135
0.038	-3.559	-0.195
-0.091	-3.559	-0.174
-0.183	-3.559	-0.082
-0.203	-3.559	0.047
-0.138	-2.400	0.163
-0.023	-2.400	0.222
0.105	-2.401	0.202
0.197	-2.401	0.110
0.217	-2.401	-0.017
0.158	-2.400	-0.133
0.043	-2.400	-0.191
-0.085	-2.400	-0.171
-0.176	-2.399	-0.080
-0.196	-2.399	0.048
-0.136	-1.800	0.163
-0.021	-1.800	0.221
0.106	-1.801	0.201
0.197	-1.801	0.110
0.218	-1.801	-0.017
0.159	-1.800	-0.132
[...]
         <CellData>
           <DataArray type="Float32" Name="combinedRootClassID" NumberOfComponents="1" format="ascii">
 -5.000e+00 -5.000e+00 -5.000e+00 -5.000e+00 -5.000e+00 -5.000e+00 -5.000e+00 -5.000e+00 -5.000e+00 -5.000e+00 -5.000e+00 -5.000e+00 -5.000e+00 -5.000e+00 -5.000e+00 -5.000e+00 -5.000e+00 -5.000e+00 -5.000e+00 -5.000e+00 -5.000e+00 -5.000e+00 -5.000e+00 -5.000e+00 -5.000e+00 -5.000e+00 -5.000e+00 -5.000e+00 -5.000e+00 -5.000e+00 -5.000e+00 -5.000e+00 -1.100e+01 -1.100e+01 -1.100e+01 -1.100e+01 -2.000e+00 -2.000e+00 -2.000e+00 -2.000e+00 -2.000e+00 -2.000e+00 -2.000e+00 -2.000e+00 -2.000e+00 -2.000e+00 -7.000e+00 -7.000e+00 -7.000e+00 -7.000e+00 -7.000e+00 -7.000e+00 -7.000e+00 -7.000e+00 -7.000e+00 -7.000e+00 -7.000e+00 -7.000e+00 -7.000e+00 -7.000e+00 -7.000e+00 -7.000e+00 -7.000e+00 -7.000e+00 -7.000e+00 -7.000e+00 -7.000e+00 -7.000e+00 -7.000e+00 -7.000e+00 -7.000e+00 -7.000e+00 -7.000e+00 -7.000e+00 -7.000e+00 -7.000e+00 -7.000e+00 -7.000e+00 -7.000e+00 -7.000e+00 -7.000e+00 -7.000e+00 -7.000e+00 -7.000e+00 -7.000e+00 -7.000e+00 -7.000e+00 -7.000e+00 -7.000e+00 -7.000e+00 -7.000e+00 -7.000e+00 -7.000e+00 -7.000e+00 -7.000e+00 -7.000e+00 -7.000e+00 -7.000e+00 -7.000e+00 -7.000e+00 -7.000e+00 -7.000e+00 -7.000e+00 -7.000e+00 -7.000e+00 -7.000e+00 -7.000e+00 -7.000e+00 -7.000e+00 -7.000e+00 -7.000e+00 -7.000e+00 -7.000e+00 -7.000e+00 -7.000e+00 -7.000e+00 -7.000e+00 -7.000e+00 -7.000e+00 -7.000e+00 -7.000e+00 -7.000e+00 -7.000e+00 -7.000e+00 -7.000e+00 -7.000e+00 -7.000e+00 -7.000e+00 -7.000e+00 -7.000e+00 -7.000e+00 -7.000e+00 -7.000e+00 -7.000e+00 -7.000e+00 -7.000e+00 -7.000e+00 -7.000e+00 -7.000e+00 -7.000e+00 -7.000e+00 -7.000e+00 -7.000e+00 -7.000e+00 -7.000e+00 -7.000e+00 -7.000e+00 -7.000e+00 -7.000e+00 -7.000e+00 -7.000e+00 -7.000e+00 -7.000e+00 -9.000e+00 -9.000e+00 -4.000e+00 -4.000e+00 -4.000e+00 -4.000e+00 -4.000e+00 -4.000e+00 -4.000e+00 -4.000e+00 -4.000e+00 -4.000e+00 -4.000e+00 -4.000e+00 -4.000e+00 -4.000e+00 -4.000e+00 -4.000e+00 -4.000e+00 -4.000e+00 -4.000e+00 -4.000e+00 -4.000e+00 -4.000e+00 -4.000e+00 -4.000e+00
           </DataArray>
           <DataArray type="Float32" Name="nitrate/Cmin" NumberOfComponents="1" format="ascii">
 1.000e-03 1.000e-03 1.000e-03 1.000e-03 1.000e-03 1.000e-03 1.000e-03 1.000e-03 1.000e-03 1.000e-03 1.000e-03 1.000e-03 1.000e-03 1.000e-03 1.000e-03 1.000e-03 1.000e-03 1.000e-03 1.000e-03 1.000e-03 1.000e-03 1.000e-03 1.000e-03 1.000e-03 1.000e-03 1.000e-03 1.000e-03 1.000e-03 1.000e-03 1.000e-03 1.000e-03 1.000e-03 1.000e-03 1.000e-03 1.000e-03 1.000e-03 1.000e-03 1.000e-03 1.000e-03 1.000e-03 1.000e-03 1.000e-03 1.000e-03 1.000e-03 1.000e-03 1.000e-03 1.000e-03 1.000e-03 1.000e-03 1.000e-03 1.000e-03 1.000e-03 1.000e-03 1.000e-03 1.000e-03 1.000e-03 1.000e-03 1.000e-03 1.000e-03 1.000e-03 1.000e-03 1.000e-03 1.000e-03 1.000e-03 1.000e-03 1.000e-03 1.000e-03 1.000e-03 1.000e-03 1.000e-03 1.000e-03 1.000e-03 1.000e-03 1.000e-03 1.000e-03 1.000e-03 1.000e-03 1.000e-03 1.000e-03 1.000e-03 1.000e-03 1.000e-03 1.000e-03 1.000e-03 1.000e-03 1.000e-03 1.000e-03 1.000e-03 1.000e-03 1.000e-03 1.000e-03 1.000e-03 1.000e-03 1.000e-03 1.000e-03 1.000e-03 1.000e-03 1.000e-03 1.000e-03 1.000e-03 1.000e-03 1.000e-03 1.000e-03 1.000e-03 1.000e-03 1.000e-03 1.000e-03 1.000e-03 1.000e-03 1.000e-03 1.000e-03 1.000e-03 1.000e-03 1.000e-03 1.000e-03 1.000e-03 1.000e-03 1.000e-03 1.000e-03 1.000e-03 1.000e-03 1.000e-03 1.000e-03 1.000e-03 1.000e-03 1.000e-03 1.000e-03 1.000e-03 1.000e-03 1.000e-03 1.000e-03 1.000e-03 1.000e-03 1.000e-03 1.000e-03 1.000e-03 1.000e-03 1.000e-03 1.000e-03 1.000e-03 1.000e-03 1.000e-03 1.000e-03 1.000e-03 1.000e-03 1.000e-03 1.000e-03 1.000e-03 1.000e-03 1.000e-03 1.000e-03 1.000e-03 1.000e-03 1.000e-03 1.000e-03 1.000e-03 1.000e-03 1.000e-03 1.000e-03 1.000e-03 1.000e-03 1.000e-03 1.000e-03 1.000e-03 1.000e-03 1.000e-03 1.000e-03 1.000e-03 1.000e-03 1.000e-03 1.000e-03 1.000e-03 1.000e-03 1.000e-03 1.000e-03 1.000e-03 1.000e-03 1.000e-03 1.000e-03
           </DataArray>
           <DataArray type="Float32" Name="nitrate/Imax" NumberOfComponents="1" format="ascii">
 1.900e+00 1.900e+00 1.900e+00 1.900e+00 1.900e+00 1.900e+00 1.900e+00 1.900e+00 1.900e+00 1.900e+00 1.900e+00 1.900e+00 1.900e+00 1.900e+00 1.900e+00 1.900e+00 1.900e+00 1.900e+00 1.900e+00 1.900e+00 1.900e+00 1.900e+00 1.900e+00 1.900e+00 1.900e+00 1.900e+00 1.900e+00 1.900e+00 1.900e+00 1.900e+00 1.900e+00 1.900e+00 1.900e+00 1.900e+00 1.900e+00 1.900e+00 1.900e+00 1.900e+00 1.900e+00 1.900e+00 1.900e+00 1.900e+00 1.900e+00 1.900e+00 1.900e+00 1.900e+00 1.900e+00 1.900e+00 1.900e+00 1.900e+00 1.900e+00 1.900e+00 1.900e+00 1.900e+00 1.900e+00 1.900e+00 1.900e+00 1.900e+00 1.900e+00 1.900e+00 1.900e+00 1.900e+00 1.900e+00 1.900e+00 1.900e+00 1.900e+00 1.900e+00 1.900e+00 1.900e+00 1.900e+00 1.900e+00 1.900e+00 1.900e+00 1.900e+00 1.900e+00 1.900e+00 1.900e+00 1.900e+00 1.900e+00 1.900e+00 1.900e+00 1.900e+00 1.900e+00 1.900e+00 1.900e+00 1.900e+00 1.900e+00 1.900e+00 1.900e+00 1.900e+00 1.900e+00 1.900e+00 1.900e+00 1.900e+00 1.900e+00 1.900e+00 1.900e+00 1.900e+00 1.900e+00 1.900e+00 1.900e+00 1.900e+00 1.900e+00 1.900e+00 1.900e+00 1.900e+00 1.900e+00 1.900e+00 1.900e+00 1.900e+00 1.900e+00 1.900e+00 1.900e+00 1.900e+00 1.900e+00 1.900e+00 1.900e+00 1.900e+00 1.900e+00 1.900e+00 1.900e+00 1.900e+00 1.900e+00 1.900e+00 1.900e+00 1.900e+00 1.900e+00 1.900e+00 1.900e+00 1.900e+00 1.900e+00 1.900e+00 1.900e+00 1.900e+00 1.900e+00 1.900e+00 1.900e+00 1.900e+00 1.900e+00 1.900e+00 1.900e+00 1.900e+00 1.900e+00 1.900e+00 1.900e+00 1.900e+00 1.900e+00 1.900e+00 1.900e+00 1.900e+00 1.900e+00 1.900e+00 1.900e+00 1.900e+00 1.900e+00 1.900e+00 1.900e+00 1.900e+00 1.900e+00 1.900e+00 1.900e+00 1.900e+00 1.900e+00 1.900e+00 1.900e+00 1.900e+00 1.900e+00 1.900e+00 1.900e+00 1.900e+00 1.900e+00 1.900e+00 1.900e+00 1.900e+00 1.900e+00 1.900e+00 1.900e+00 1.900e+00 1.900e+00
           </DataArray>
           <DataArray type="Float32" Name="nitrate/Km" NumberOfComponents="1" format="ascii">
 1.610e-02 1.610e-02 1.610e-02 1.610e-02 1.610e-02 1.610e-02 1.610e-02 1.610e-02 1.610e-02 1.610e-02 1.610e-02 1.610e-02 1.610e-02 1.610e-02 1.610e-02 1.610e-02 1.610e-02 1.610e-02 1.610e-02 1.610e-02 1.610e-02 1.610e-02 1.610e-02 1.610e-02 1.610e-02 1.610e-02 1.610e-02 1.610e-02 1.610e-02 1.610e-02 1.610e-02 1.610e-02 1.610e-02 1.610e-02 1.610e-02 1.610e-02 1.610e-02 1.610e-02 1.610e-02 1.610e-02 1.610e-02 1.610e-02 1.610e-02 1.610e-02 1.610e-02 1.610e-02 1.610e-02 1.610e-02 1.610e-02 1.610e-02 1.610e-02 1.610e-02 1.610e-02 1.610e-02 1.610e-02 1.610e-02 1.610e-02 1.610e-02 1.610e-02 1.610e-02 1.610e-02 1.610e-02 1.610e-02 1.610e-02 1.610e-02 1.610e-02 1.610e-02 1.610e-02 1.610e-02 1.610e-02 1.610e-02 1.610e-02 1.610e-02 1.610e-02 1.610e-02 1.610e-02 1.610e-02 1.610e-02 1.610e-02 1.610e-02 1.610e-02 1.610e-02 1.610e-02 1.610e-02 1.610e-02 1.610e-02 1.610e-02 1.610e-02 1.610e-02 1.610e-02 1.610e-02 1.610e-02 1.610e-02 1.610e-02 1.610e-02 1.610e-02 1.610e-02 1.610e-02 1.610e-02 1.610e-02 1.610e-02 1.610e-02 1.610e-02 1.610e-02 1.610e-02 1.610e-02 1.610e-02 1.610e-02 1.610e-02 1.610e-02 1.610e-02 1.610e-02 1.610e-02 1.610e-02 1.610e-02 1.610e-02 1.610e-02 1.610e-02 1.610e-02 1.610e-02 1.610e-02 1.610e-02 1.610e-02 1.610e-02 1.610e-02 1.610e-02 1.610e-02 1.610e-02 1.610e-02 1.610e-02 1.610e-02 1.610e-02 1.610e-02 1.610e-02 1.610e-02 1.610e-02 1.610e-02 1.610e-02 1.610e-02 1.610e-02 1.610e-02 1.610e-02 1.610e-02 1.610e-02 1.610e-02 1.610e-02 1.610e-02 1.610e-02 1.610e-02 1.610e-02 1.610e-02 1.610e-02 1.610e-02 1.610e-02 1.610e-02 1.610e-02 1.610e-02 1.610e-02 1.610e-02 1.610e-02 1.610e-02 1.610e-02 1.610e-02 1.610e-02 1.610e-02 1.610e-02 1.610e-02 1.610e-02 1.610e-02 1.610e-02 1.610e-02 1.610e-02 1.610e-02 1.610e-02 1.610e-02 1.610e-02 1.610e-02 1.610e-02 1.610e-02
           </DataArray>
           <DataArray type="Float32" Name="nitrate/minimalNutrientConcentration" NumberOfComponents="1" format="ascii">
 6.000e+02 6.000e+02 6.000e+02 6.000e+02 6.000e+02 6.000e+02 6.000e+02 6.000e+02 6.000e+02 6.000e+02 6.000e+02 6.000e+02 6.000e+02 6.000e+02 6.000e+02 6.000e+02 6.000e+02 6.000e+02 6.000e+02 6.000e+02 6.000e+02 6.000e+02 6.000e+02 6.000e+02 6.000e+02 6.000e+02 6.000e+02 6.000e+02 6.000e+02 6.000e+02 6.000e+02 6.000e+02 6.000e+02 6.000e+02 6.000e+02 6.000e+02 6.000e+02 6.000e+02 6.000e+02 6.000e+02 6.000e+02 6.000e+02 6.000e+02 6.000e+02 6.000e+02 6.000e+02 6.000e+02 6.000e+02 6.000e+02 6.000e+02 6.000e+02 6.000e+02 6.000e+02 6.000e+02 6.000e+02 6.000e+02 6.000e+02 6.000e+02 6.000e+02 6.000e+02 6.000e+02 6.000e+02 6.000e+02 6.000e+02 6.000e+02 6.000e+02 6.000e+02 6.000e+02 6.000e+02 6.000e+02 6.000e+02 6.000e+02 6.000e+02 6.000e+02 6.000e+02 6.000e+02 6.000e+02 6.000e+02 6.000e+02 6.000e+02 6.000e+02 6.000e+02 6.000e+02 6.000e+02 6.000e+02 6.000e+02 6.000e+02 6.000e+02 6.000e+02 6.000e+02 6.000e+02 6.000e+02 6.000e+02 6.000e+02 6.000e+02 6.000e+02 6.000e+02 6.000e+02 6.000e+02 6.000e+02 6.000e+02 6.000e+02 6.000e+02 6.000e+02 6.000e+02 6.000e+02 6.000e+02 6.000e+02 6.000e+02 6.000e+02 6.000e+02 6.000e+02 6.000e+02 6.000e+02 6.000e+02 6.000e+02 6.000e+02 6.000e+02 6.000e+02 6.000e+02 6.000e+02 6.000e+02 6.000e+02 6.000e+02 6.000e+02 6.000e+02 6.000e+02 6.000e+02 6.000e+02 6.000e+02 6.000e+02 6.000e+02 6.000e+02 6.000e+02 6.000e+02 6.000e+02 6.000e+02 6.000e+02 6.000e+02 6.000e+02 6.000e+02 6.000e+02 6.000e+02 6.000e+02 6.000e+02 6.000e+02 6.000e+02 6.000e+02 6.000e+02 6.000e+02 6.000e+02 6.000e+02 6.000e+02 6.000e+02 6.000e+02 6.000e+02 6.000e+02 6.000e+02 6.000e+02 6.000e+02 6.000e+02 6.000e+02 6.000e+02 6.000e+02 6.000e+02 6.000e+02 6.000e+02 6.000e+02 6.000e+02 6.000e+02 6.000e+02 6.000e+02 6.000e+02 6.000e+02 6.000e+02 6.000e+02 6.000e+02 6.000e+02 6.000e+02
           </DataArray>
           <DataArray type="Float32" Name="nitrate/nutrientConcentrationAtTheRootSurface" NumberOfComponents="1" format="ascii">
 2.585e-01 2.689e-01 3.523e-01 4.104e-01 4.625e-01 4.973e-01 5.043e-01 6.087e-01 2.585e-01 2.801e-01 2.977e-01 3.807e-01 4.431e-01 4.951e-01 5.547e-01 6.170e-01 2.585e-01 2.760e-01 3.354e-01 3.763e-01 4.553e-01 5.148e-01 5.601e-01 6.224e-01 2.585e-01 2.740e-01 3.103e-01 3.572e-01 4.229e-01 4.995e-01 5.498e-01 6.122e-01 2.666e-01 2.666e-01 2.666e-01 2.666e-01 2.584e-01 2.751e-01 2.650e-01 2.041e-01 1.688e-01 1.243e-01 7.589e-02 0.000e+00 0.000e+00 0.000e+00 2.574e-01 2.740e-01 3.457e-01 2.550e-01 2.641e-01 3.471e-01 2.317e-01 2.800e-01 3.969e-01 2.318e-01 2.915e-01 3.840e-01 2.373e-01 2.769e-01 2.415e-01 2.334e-01 2.464e-01 2.780e-01 2.512e-01 2.629e-01 2.558e-01 3.162e-01 2.587e-01 2.634e-01 2.662e-01 2.766e-01 2.701e-01 3.008e-01 2.518e-01 2.907e-01 3.351e-01 2.733e-01 3.004e-01 2.781e-01 3.648e-01 2.842e-01 3.652e-01 2.967e-01 3.437e-01 3.079e-01 3.611e-01 3.187e-01 3.762e-01 3.284e-01 3.573e-01 3.336e-01 3.677e-01 3.414e-01 3.895e-01 3.424e-01 3.943e-01 2.487e-01 2.711e-01 3.479e-01 3.829e-01 3.567e-01 4.384e-01 3.637e-01 4.486e-01 3.758e-01 3.941e-01 4.074e-01 4.655e-01 4.164e-01 4.220e-01 4.586e-01 4.252e-01 4.263e-01 2.447e-01 2.493e-01 3.519e-01 4.303e-01 4.347e-01 4.453e-01 4.550e-01 4.659e-01 4.799e-01 4.877e-01 4.889e-01 4.887e-01 4.890e-01 2.405e-01 2.657e-01 4.915e-01 4.969e-01 5.052e-01 5.107e-01 5.201e-01 5.215e-01 5.240e-01 5.214e-01 5.182e-01 5.170e-01 2.367e-01 2.459e-01 2.656e-01 5.188e-01 5.220e-01 5.296e-01 5.353e-01 2.308e-01 2.674e-01 2.315e-01 2.539e-01 2.312e-01 2.402e-01 3.328e-01 3.830e-01 4.595e-01 2.584e-01 2.365e-01 2.422e-01 2.739e-01 3.384e-01 3.990e-01 4.398e-01 4.888e-01 5.246e-01 5.333e-01 5.254e-01 5.272e-01 5.350e-01 5.186e-01 5.211e-01 5.273e-01 5.109e-01 4.944e-01 4.733e-01 4.569e-01 4.330e-01 4.402e-01 4.474e-01 4.505e-01
           </DataArray>
           <DataArray type="Float32" Name="nitrate/optimalNutrientConcentration" NumberOfComponents="1" format="ascii">
 1.200e+03 1.200e+03 1.200e+03 1.200e+03 1.200e+03 1.200e+03 1.200e+03 1.200e+03 1.200e+03 1.200e+03 1.200e+03 1.200e+03 1.200e+03 1.200e+03 1.200e+03 1.200e+03 1.200e+03 1.200e+03 1.200e+03 1.200e+03 1.200e+03 1.200e+03 1.200e+03 1.200e+03 1.200e+03 1.200e+03 1.200e+03 1.200e+03 1.200e+03 1.200e+03 1.200e+03 1.200e+03 1.200e+03 1.200e+03 1.200e+03 1.200e+03 1.200e+03 1.200e+03 1.200e+03 1.200e+03 1.200e+03 1.200e+03 1.200e+03 1.200e+03 1.200e+03 1.200e+03 1.200e+03 1.200e+03 1.200e+03 1.200e+03 1.200e+03 1.200e+03 1.200e+03 1.200e+03 1.200e+03 1.200e+03 1.200e+03 1.200e+03 1.200e+03 1.200e+03 1.200e+03 1.200e+03 1.200e+03 1.200e+03 1.200e+03 1.200e+03 1.200e+03 1.200e+03 1.200e+03 1.200e+03 1.200e+03 1.200e+03 1.200e+03 1.200e+03 1.200e+03 1.200e+03 1.200e+03 1.200e+03 1.200e+03 1.200e+03 1.200e+03 1.200e+03 1.200e+03 1.200e+03 1.200e+03 1.200e+03 1.200e+03 1.200e+03 1.200e+03 1.200e+03 1.200e+03 1.200e+03 1.200e+03 1.200e+03 1.200e+03 1.200e+03 1.200e+03 1.200e+03 1.200e+03 1.200e+03 1.200e+03 1.200e+03 1.200e+03 1.200e+03 1.200e+03 1.200e+03 1.200e+03 1.200e+03 1.200e+03 1.200e+03 1.200e+03 1.200e+03 1.200e+03 1.200e+03 1.200e+03 1.200e+03 1.200e+03 1.200e+03 1.200e+03 1.200e+03 1.200e+03 1.200e+03 1.200e+03 1.200e+03 1.200e+03 1.200e+03 1.200e+03 1.200e+03 1.200e+03 1.200e+03 1.200e+03 1.200e+03 1.200e+03 1.200e+03 1.200e+03 1.200e+03 1.200e+03 1.200e+03 1.200e+03 1.200e+03 1.200e+03 1.200e+03 1.200e+03 1.200e+03 1.200e+03 1.200e+03 1.200e+03 1.200e+03 1.200e+03 1.200e+03 1.200e+03 1.200e+03 1.200e+03 1.200e+03 1.200e+03 1.200e+03 1.200e+03 1.200e+03 1.200e+03 1.200e+03 1.200e+03 1.200e+03 1.200e+03 1.200e+03 1.200e+03 1.200e+03 1.200e+03 1.200e+03 1.200e+03 1.200e+03 1.200e+03 1.200e+03 1.200e+03 1.200e+03 1.200e+03 1.200e+03 1.200e+03 1.200e+03 1.200e+03
           </DataArray>
           <DataArray type="Float32" Name="nitrate/rootSegmentMinimalNutrientContent" NumberOfComponents="1" format="ascii">
 1.635e-01 1.811e-01 1.406e-01 1.646e-01 1.230e-01 1.337e-01 1.443e-01 7.615e-02 1.635e-01 1.811e-01 1.406e-01 1.646e-01 1.230e-01 1.337e-01 1.443e-01 7.615e-02 1.635e-01 1.811e-01 1.406e-01 1.646e-01 1.230e-01 1.337e-01 1.443e-01 7.615e-02 1.635e-01 1.811e-01 1.406e-01 1.646e-01 1.230e-01 1.337e-01 1.443e-01 7.615e-02 9.025e-02 9.025e-02 9.025e-02 9.025e-02 6.064e+00 5.477e+00 9.071e+00 4.653e+00 4.616e+00 6.835e+00 6.464e+00 6.546e+00 6.432e+00 1.821e+00 3.450e-02 3.733e-02 2.034e-02 3.726e-02 3.506e-02 5.839e-03 3.545e-02 3.569e-02 3.243e-03 3.628e-02 3.456e-02 6.908e-03 3.539e-02 3.515e-02 3.313e-02 2.844e-02 3.528e-02 3.142e-02 3.543e-02 1.997e-02 3.627e-02 3.496e-02 3.528e-02 2.618e-02 3.441e-02 2.652e-02 3.500e-02 1.603e-02 3.338e-02 3.558e-02 1.616e-02 3.562e-02 2.390e-02 3.717e-02 1.820e-02 3.484e-02 2.253e-02 3.622e-02 1.081e-02 3.412e-02 1.052e-02 3.649e-02 2.075e-02 3.697e-02 1.219e-02 3.509e-02 8.285e-03 3.394e-02 1.204e-02 3.580e-02 1.319e-02 3.512e-02 3.538e-02 3.547e-02 5.706e-03 3.612e-02 6.017e-03 3.551e-02 6.133e-03 3.501e-02 3.119e-02 3.490e-02 3.087e-03 3.650e-02 3.281e-02 6.940e-03 2.810e-02 3.291e-02 3.677e-02 3.525e-02 9.606e-03 2.769e-02 3.001e-02 2.901e-02 2.410e-02 2.270e-02 2.510e-02 2.418e-02 2.237e-02 1.798e-02 2.292e-02 3.728e-02 3.427e-02 1.903e-02 1.528e-02 1.520e-02 1.404e-02 1.173e-02 1.100e-02 1.004e-02 7.669e-03 7.659e-03 6.547e-03 3.494e-02 3.307e-02 6.008e-03 5.616e-03 4.495e-03 2.422e-03 1.486e-03 3.615e-02 3.555e-02 3.377e-02 2.450e-02 3.547e-02 3.428e-02 1.028e-02 3.827e-02 3.308e-02 3.586e-01 3.469e-01 3.360e-01 3.259e-01 3.165e-01 3.078e-01 2.997e-01 2.923e-01 2.860e-01 2.808e-01 2.768e-01 2.734e-01 2.703e-01 2.674e-01 2.649e-01 2.626e-01 2.606e-01 2.588e-01 2.573e-01 2.561e-01 2.551e-01 2.544e-01 2.539e-01 8.457e-02
           </DataArray>
           <DataArray type="Float32" Name="nitrate/rootSegmentNutrientUptake" NumberOfComponents="1" format="ascii">
 0.000e+00 2.153e-01 1.958e-01 1.642e-01 1.249e-01 9.216e-02 5.281e-02 1.464e-02 0.000e+00 2.298e-01 1.739e-01 1.584e-01 1.205e-01 9.137e-02 5.626e-02 1.468e-02 0.000e+00 2.302e-01 1.917e-01 1.567e-01 1.225e-01 9.384e-02 5.670e-02 1.468e-02 0.000e+00 2.223e-01 1.818e-01 1.510e-01 1.167e-01 9.173e-02 5.593e-02 1.467e-02 0.000e+00 0.000e+00 0.000e+00 0.000e+00 0.000e+00 6.018e-01 5.523e-01 4.396e-01 3.759e-01 3.073e-01 2.128e-01 0.000e+00 0.000e+00 0.000e+00 0.000e+00 1.631e-01 3.063e-02 0.000e+00 1.135e-01 3.752e-03 0.000e+00 9.735e-02 1.383e-03 0.000e+00 1.029e-01 4.458e-03 0.000e+00 8.382e-02 0.000e+00 6.275e-02 0.000e+00 7.090e-02 0.000e+00 3.609e-02 0.000e+00 7.927e-02 0.000e+00 5.236e-02 0.000e+00 5.326e-02 0.000e+00 2.405e-02 0.000e+00 1.514e-01 2.082e-02 0.000e+00 4.345e-02 0.000e+00 2.750e-02 0.000e+00 3.892e-02 0.000e+00 1.162e-02 0.000e+00 1.133e-02 0.000e+00 3.139e-02 0.000e+00 1.313e-02 0.000e+00 7.144e-03 0.000e+00 1.301e-02 0.000e+00 1.426e-02 0.000e+00 9.742e-02 0.000e+00 3.691e-03 0.000e+00 3.907e-03 0.000e+00 3.985e-03 0.000e+00 0.000e+00 0.000e+00 1.336e-03 0.000e+00 0.000e+00 4.517e-03 0.000e+00 0.000e+00 0.000e+00 1.170e-01 8.251e-03 0.000e+00 0.000e+00 0.000e+00 0.000e+00 0.000e+00 0.000e+00 0.000e+00 0.000e+00 0.000e+00 0.000e+00 0.000e+00 8.771e-02 0.000e+00 0.000e+00 0.000e+00 0.000e+00 0.000e+00 0.000e+00 0.000e+00 0.000e+00 0.000e+00 0.000e+00 0.000e+00 1.009e-01 3.828e-03 0.000e+00 0.000e+00 0.000e+00 0.000e+00 0.000e+00 9.003e-02 0.000e+00 5.708e-02 0.000e+00 1.067e-01 8.812e-03 0.000e+00 5.033e-02 0.000e+00 6.631e-01 6.734e-01 6.737e-01 6.833e-01 6.989e-01 6.716e-01 6.568e-01 6.663e-01 6.329e-01 5.721e-01 5.370e-01 5.085e-01 4.502e-01 4.233e-01 3.946e-01 3.419e-01 2.954e-01 2.472e-01 1.986e-01 1.505e-01 1.094e-01 6.192e-02 1.222e-02
           </DataArray>
           <DataArray type="Float32" Name="nitrate/rootSegmentOptimalNutrientContent" NumberOfComponents="1" format="ascii">
 3.270e-01 3.621e-01 2.812e-01 3.291e-01 2.460e-01 2.673e-01 2.886e-01 1.523e-01 3.270e-01 3.621e-01 2.812e-01 3.291e-01 2.460e-01 2.673e-01 2.886e-01 1.523e-01 3.270e-01 3.621e-01 2.812e-01 3.291e-01 2.460e-01 2.673e-01 2.886e-01 1.523e-01 3.270e-01 3.621e-01 2.812e-01 3.291e-01 2.460e-01 2.673e-01 2.886e-01 1.523e-01 1.805e-01 1.805e-01 1.805e-01 1.805e-01 1.213e+01 1.095e+01 1.814e+01 9.306e+00 9.233e+00 1.367e+01 1.293e+01 1.309e+01 1.286e+01 3.643e+00 6.901e-02 7.465e-02 4.068e-02 7.452e-02 7.012e-02 1.168e-02 7.089e-02 7.139e-02 6.486e-03 7.256e-02 6.912e-02 1.382e-02 7.077e-02 7.030e-02 6.626e-02 5.687e-02 7.055e-02 6.285e-02 7.085e-02 3.994e-02 7.254e-02 6.992e-02 7.055e-02 5.237e-02 6.881e-02 5.305e-02 7.001e-02 3.205e-02 6.675e-02 7.116e-02 3.231e-02 7.125e-02 4.781e-02 7.433e-02 3.639e-02 6.969e-02 4.505e-02 7.243e-02 2.161e-02 6.825e-02 2.103e-02 7.299e-02 4.150e-02 7.393e-02 2.438e-02 7.018e-02 1.657e-02 6.789e-02 2.408e-02 7.159e-02 2.638e-02 7.024e-02 7.077e-02 7.093e-02 1.141e-02 7.225e-02 1.203e-02 7.102e-02 1.227e-02 7.001e-02 6.237e-02 6.981e-02 6.174e-03 7.301e-02 6.562e-02 1.388e-02 5.621e-02 6.583e-02 7.353e-02 7.050e-02 1.921e-02 5.537e-02 6.001e-02 5.801e-02 4.819e-02 4.540e-02 5.019e-02 4.835e-02 4.473e-02 3.597e-02 4.583e-02 7.456e-02 6.854e-02 3.807e-02 3.057e-02 3.041e-02 2.809e-02 2.345e-02 2.200e-02 2.009e-02 1.534e-02 1.532e-02 1.309e-02 6.989e-02 6.613e-02 1.202e-02 1.123e-02 8.991e-03 4.844e-03 2.971e-03 7.230e-02 7.111e-02 6.754e-02 4.901e-02 7.094e-02 6.857e-02 2.056e-02 7.654e-02 6.616e-02 7.172e-01 6.939e-01 6.721e-01 6.518e-01 6.330e-01 6.155e-01 5.994e-01 5.847e-01 5.720e-01 5.617e-01 5.535e-01 5.467e-01 5.405e-01 5.349e-01 5.298e-01 5.252e-01 5.212e-01 5.176e-01 5.147e-01 5.122e-01 5.102e-01 5.088e-01 5.079e-01 1.691e-01
           </DataArray>
           <DataArray type="Float32" Name="parentRootClassID" NumberOfComponents="1" format="ascii">