<?xml version="1.0"?>
<VTKFile type="UnstructuredGrid" version="0.1" byte_order="LittleEndian">
   <UnstructuredGrid>
      <Piece NumberOfPoints="210" NumberOfCells="19">
         <Points>
            <DataArray type="Float32" Name="Position" NumberOfComponents="3" format="ascii">
-0.142	-5.001	0.143
-0.031	-5.002	0.200
0.092	-5.002	0.180
0.180	-5.002	0.091
0.199	-5.000	-0.032
0.142	-4.999	-0.143
0.031	-4.998	-0.200
-0.092	-4.998	-0.180
-0.180	-4.998	-0.091
-0.199	-5.000	0.032
-0.139	-4.251	0.152
-0.028	-4.252	0.208
0.095	-4.252	0.188
0.182	-4.252	0.100
0.201	-4.250	-0.023
0.145	-4.249	-0.134
0.033	-4.248	-0.190
-0.089	-4.248	-0.170
-0.177	-4.249	-0.082
-0.196	-4.250	0.041
-0.137	-3.560	0.156
-0.026	-3.561	0.212
0.096	-3.561	0.193
0.184	-3.561	0.105
0.204	-3.561	-0.018
0.147	-3.560	-0.128
0.037	-3.559	-0.185
-0.086	-3.559	-0.165
-0.174	-3.559	-0.078
-0.193	-3.559	0.045
-0.132	-2.400	0.157
-0.021	-2.400	0.213
0.101	-2.401	0.194
0.189	-2.401	0.106
0.209	-2.401	-0.016
0.152	-2.400	-0.127
0.042	-2.400	-0.183
-0.081	-2.400	-0.164
-0.168	-2.399	-0.076
-0.188	-2.399	0.046
-0.130	-1.800	0.157
-0.020	-1.800	0.214
0.103	-1.801	0.194
0.190	-1.801	0.107
0.210	-1.801	-0.016
0.154	-1.800	-0.126
0.043	-1.800	-0.182
-0.079	-1.800	-0.163
-0.167	-1.800	-0.075
-0.186	-1.800	0.047
-0.129	-1.200	0.159
-0.018	-1.201	0.215
0.104	-1.201	0.196
0.192	-1.201	0.109
0.211	-1.201	-0.014
0.155	-1.200	-0.124
0.044	-1.200	-0.180
-0.078	-1.199	-0.161
-0.166	-1.199	-0.074
-0.185	-1.200	0.049
-0.125	-0.300	0.161
-0.015	-0.300	0.218
0.107	-0.301	0.198
0.195	-0.301	0.111
0.215	-0.301	-0.011
0.159	-0.301	-0.122
0.048	-0.300	-0.178
-0.074	-0.299	-0.159
-0.161	-0.299	-0.071
-0.181	-0.299	0.051
-0.120	0.561	0.161
-0.010	0.560	0.218
0.113	0.560	0.199
0.200	0.559	0.111
0.220	0.559	-0.011
0.164	0.559	-0.121
0.054	0.559	-0.178
-0.068	0.560	-0.159
-0.156	0.561	-0.071
-0.175	0.561	0.051
-0.116	1.440	0.159
-0.006	1.440	0.216
0.117	1.440	0.197
0.204	1.440	0.109
0.224	1.439	-0.013
0.168	1.439	-0.123
0.058	1.440	-0.179
-0.065	1.440	-0.160
-0.152	1.440	-0.073
-0.172	1.440	0.049
-0.115	2.000	0.160
-0.005	2.000	0.216
0.117	2.000	0.196
0.204	2.000	0.109
0.224	2.000	-0.013
0.167	2.000	-0.123
0.057	2.000	-0.179
-0.065	2.000	-0.160
-0.152	2.000	-0.073
-0.172	2.000	0.050
0.033	-5.000	-0.033
0.046	-4.999	-0.007
0.041	-4.999	0.021
0.021	-4.999	0.041
-0.007	-4.999	0.046
-0.033	-5.000	0.033
-0.046	-5.001	0.007
-0.041	-5.001	-0.021
-0.021	-5.001	-0.041
0.007	-5.001	-0.046
0.046	-5.707	-0.016
0.059	-5.706	0.009
0.054	-5.705	0.037
0.033	-5.704	0.057
0.005	-5.704	0.061
-0.020	-5.705	0.048
-0.032	-5.707	0.022
-0.027	-5.708	-0.006
-0.007	-5.709	-0.025
0.021	-5.708	-0.029
0.055	-6.414	0.037
0.067	-6.412	0.062
0.062	-6.410	0.090
0.041	-6.409	0.109
0.013	-6.408	0.113
-0.011	-6.409	0.099
-0.023	-6.411	0.073
-0.018	-6.413	0.046
0.003	-6.414	0.026
0.031	-6.414	0.023
0.042	-7.120	0.083
0.053	-7.118	0.108
0.048	-7.116	0.136
0.027	-7.114	0.155
-0.001	-7.113	0.158
-0.026	-7.113	0.144
-0.037	-7.115	0.118
-0.031	-7.118	0.091
-0.011	-7.120	0.072
0.017	-7.121	0.069
0.025	-7.823	0.153
0.037	-7.821	0.179
0.031	-7.818	0.206
0.011	-7.816	0.225
-0.017	-7.816	0.228
-0.042	-7.817	0.214
-0.053	-7.819	0.189
-0.048	-7.822	0.162
-0.027	-7.823	0.143
0.001	-7.824	0.140
0.032	-8.528	0.214
0.043	-8.526	0.239
0.038	-8.523	0.267
0.017	-8.521	0.285
-0.011	-8.520	0.288
-0.035	-8.520	0.274
-0.047	-8.522	0.248
-0.041	-8.525	0.221
-0.020	-8.528	0.203
0.008	-8.529	0.200
-0.012	-9.229	0.288
-0.001	-9.228	0.313
-0.007	-9.226	0.340
-0.028	-9.224	0.359
-0.055	-9.222	0.362
-0.079	-9.222	0.348
-0.091	-9.223	0.322
-0.085	-9.225	0.295
-0.064	-9.227	0.276
-0.037	-9.229	0.274
-0.030	-9.934	0.305
-0.018	-9.934	0.330
-0.024	-9.933	0.358
-0.044	-9.931	0.377
-0.072	-9.930	0.380
-0.096	-9.929	0.366
-0.108	-9.929	0.341
-0.102	-9.931	0.313
-0.082	-9.932	0.295
-0.054	-9.934	0.291
-0.081	-10.639	0.336
-0.070	-10.639	0.361
-0.075	-10.637	0.388
-0.096	-10.635	0.407
-0.124	-10.633	0.410
-0.148	-10.633	0.396
-0.159	-10.634	0.370
-0.153	-10.635	0.343
-0.133	-10.637	0.325
-0.105	-10.639	0.322
-0.100	-11.344	0.383
-0.088	-11.342	0.408
-0.094	-11.340	0.436
-0.114	-11.338	0.454
-0.142	-11.338	0.457
-0.166	-11.339	0.444
-0.177	-11.340	0.419
-0.172	-11.342	0.391
-0.152	-11.344	0.373
-0.124	-11.345	0.369
-0.132	-12.014	0.440
-0.132	-12.001	0.465
-0.132	-12.005	0.492
-0.132	-12.025	0.512
-0.132	-12.052	0.516
-0.132	-12.077	0.503
-0.132	-12.090	0.479
-0.132	-12.086	0.451
-0.132	-12.066	0.432
-0.132	-12.038	0.427
		    </DataArray>
         </Points>
         <Cells>
            <DataArray type="Int32" Name="connectivity" NumberOfComponents="1" format="ascii">
 0 10 1 11 2 12 3 13 4 14 5 15 6 16 7 17 8 18 9 19 0 10
 10 20 11 21 12 22 13 23 14 24 15 25 16 26 17 27 18 28 19 29 10 20
 20 30 21 31 22 32 23 33 24 34 25 35 26 36 27 37 28 38 29 39 20 30
 30 40 31 41 32 42 33 43 34 44 35 45 36 46 37 47 38 48 39 49 30 40
 40 50 41 51 42 52 43 53 44 54 45 55 46 56 47 57 48 58 49 59 40 50
 50 60 51 61 52 62 53 63 54 64 55 65 56 66 57 67 58 68 59 69 50 60
 60 70 61 71 62 72 63 73 64 74 65 75 66 76 67 77 68 78 69 79 60 70
 70 80 71 81 72 82 73 83 74 84 75 85 76 86 77 87 78 88 79 89 70 80
 80 90 81 91 82 92 83 93 84 94 85 95 86 96 87 97 88 98 89 99 80 90
 100 110 101 111 102 112 103 113 104 114 105 115 106 116 107 117 108 118 109 119 100 110
 110 120 111 121 112 122 113 123 114 124 115 125 116 126 117 127 118 128 119 129 110 120
 120 130 121 131 122 132 123 133 124 134 125 135 126 136 127 137 128 138 129 139 120 130
 130 140 131 141 132 142 133 143 134 144 135 145 136 146 137 147 138 148 139 149 130 140
 140 150 141 151 142 152 143 153 144 154 145 155 146 156 147 157 148 158 149 159 140 150
 150 160 151 161 152 162 153 163 154 164 155 165 156 166 157 167 158 168 159 169 150 160
 160 170 161 171 162 172 163 173 164 174 165 175 166 176 167 177 168 178 169 179 160 170
 170 180 171 181 172 182 173 183 174 184 175 185 176 186 177 187 178 188 179 189 170 180
 180 190 181 191 182 192 183 193 184 194 185 195 186 196 187 197 188 198 189 199 180 190
 190 200 191 201 192 202 193 203 194 204 195 205 196 206 197 207 198 208 199 209 190 200

            </DataArray>
            <DataArray type="Int32" Name="offsets" NumberOfComponents="1" format="ascii">
 22 44 66 88 110 132 154 176 198 220 242 264 286 308 330 352 374 396 418
            </DataArray>
            <DataArray type="UInt8"  Name="types" NumberOfComponents="1" format="ascii">
6 6 6 6 6 6 6 6 6 6 6 6 6 6 6 6 6 6 6
            </DataArray>
         </Cells>
         <CellData>
           <DataArray type="Float32" Name="combinedRootClassID" NumberOfComponents="1" format="ascii">
 -2.000e+00 -2.000e+00 -2.000e+00 -2.000e+00 -2.000e+00 -2.000e+00 -2.000e+00 -2.000e+00 -2.000e+00 -4.000e+00 -4.000e+00 -4.000e+00 -4.000e+00 -4.000e+00 -4.000e+00 -4.000e+00 -4.000e+00 -4.000e+00 -4.000e+00
           </DataArray>
           <DataArray type="Float32" Name="nitrate/Cmin" NumberOfComponents="1" format="ascii">
 1.000e-03 1.000e-03 1.000e-03 1.000e-03 1.000e-03 1.000e-03 1.000e-03 1.000e-03 1.000e-03 1.000e-03 1.000e-03 1.000e-03 1.000e-03 1.000e-03 1.000e-03 1.000e-03 1.000e-03 1.000e-03 1.000e-03
           </DataArray>
           <DataArray type="Float32" Name="nitrate/Imax" NumberOfComponents="1" format="ascii">
 1.900e+00 1.900e+00 1.900e+00 1.900e+00 1.900e+00 1.900e+00 1.900e+00 1.900e+00 1.900e+00 1.900e+00 1.900e+00 1.900e+00 1.900e+00 1.900e+00 1.900e+00 1.900e+00 1.900e+00 1.900e+00 1.900e+00
           </DataArray>
           <DataArray type="Float32" Name="nitrate/Km" NumberOfComponents="1" format="ascii">
 1.610e-02 1.610e-02 1.610e-02 1.610e-02 1.610e-02 1.610e-02 1.610e-02 1.610e-02 1.610e-02 1.610e-02 1.610e-02 1.610e-02 1.610e-02 1.610e-02 1.610e-02 1.610e-02 1.610e-02 1.610e-02 1.610e-02
           </DataArray>
           <DataArray type="Float32" Name="nitrate/minimalNutrientConcentration" NumberOfComponents="1" format="ascii">
 6.000e+02 6.000e+02 6.000e+02 6.000e+02 6.000e+02 6.000e+02 6.000e+02 6.000e+02 6.000e+02 6.000e+02 6.000e+02 6.000e+02 6.000e+02 6.000e+02 6.000e+02 6.000e+02 6.000e+02 6.000e+02 6.000e+02
           </DataArray>
           <DataArray type="Float32" Name="nitrate/nutrientConcentrationAtTheRootSurface" NumberOfComponents="1" format="ascii">
 2.267e-01 1.966e-01 1.695e-01 1.200e-01 9.849e-02 7.289e-02 4.465e-02 0.000e+00 0.000e+00 2.267e-01 2.502e-01 2.679e-01 2.812e-01 2.950e-01 3.064e-01 3.093e-01 3.172e-01 3.327e-01 3.399e-01
           </DataArray>
           <DataArray type="Float32" Name="nitrate/optimalNutrientConcentration" NumberOfComponents="1" format="ascii">
 1.200e+03 1.200e+03 1.200e+03 1.200e+03 1.200e+03 1.200e+03 1.200e+03 1.200e+03 1.200e+03 1.200e+03 1.200e+03 1.200e+03 1.200e+03 1.200e+03 1.200e+03 1.200e+03 1.200e+03 1.200e+03 1.200e+03
           </DataArray>
           <DataArray type="Float32" Name="nitrate/rootSegmentMinimalNutrientContent" NumberOfComponents="1" format="ascii">
 5.421e+00 4.957e+00 8.309e+00 4.283e+00 4.276e+00 6.406e+00 6.111e+00 6.246e+00 3.970e+00 2.666e-01 2.641e-01 2.619e-01 2.600e-01 2.583e-01 2.569e-01 2.557e-01 2.549e-01 2.542e-01 2.538e-01
           </DataArray>
           <DataArray type="Float32" Name="nitrate/rootSegmentNutrientUptake" NumberOfComponents="1" format="ascii">
 0.000e+00 1.821e-01 1.628e-01 1.246e-01 1.018e-01 7.508e-02 3.258e-02 0.000e+00 0.000e+00 0.000e+00 2.001e-01 1.927e-01 1.804e-01 1.675e-01 1.539e-01 1.296e-01 1.049e-01 7.631e-02 3.955e-02
           </DataArray>
           <DataArray type="Float32" Name="nitrate/rootSegmentOptimalNutrientContent" NumberOfComponents="1" format="ascii">
 1.084e+01 9.915e+00 1.662e+01 8.565e+00 8.553e+00 1.281e+01 1.222e+01 1.249e+01 7.941e+00 5.331e-01 5.282e-01 5.238e-01 5.199e-01 5.166e-01 5.138e-01 5.115e-01 5.097e-01 5.084e-01 5.077e-01
           </DataArray>
           <DataArray type="Float32" Name="parentRootClassID" NumberOfComponents="1" format="ascii">
 -3.000e+00 -3.000e+00 -3.000e+00 -3.000e+00 -3.000e+00 -3.000e+00 -3.000e+00 -3.000e+00 -3.000e+00 -3.000e+00 -3.000e+00 -3.000e+00 -3.000e+00 -3.000e+00 -3.000e+00 -3.000e+00 -3.000e+00 -3.000e+00 -3.000e+00
           </DataArray>
           <DataArray type="Float32" Name="plantID" NumberOfComponents="1" format="ascii">
 4.000e+00 4.000e+00 4.000e+00 4.000e+00 4.000e+00 4.000e+00 4.000e+00 4.000e+00 4.000e+00 4.000e+00 4.000e+00 4.000e+00 4.000e+00 4.000e+00 4.000e+00 4.000e+00 4.000e+00 4.000e+00 4.000e+00
           </DataArray>
           <DataArray type="Float32" Name="plantTypeID" NumberOfComponents="1" format="ascii">
 0.000e+00 0.000e+00 0.000e+00 0.000e+00 0.000e+00 0.000e+00 0.000e+00 0.000e+00 0.000e+00 0.000e+00 0.000e+00 0.000e+00 0.000e+00 0.000e+00 0.000e+00 0.000e+00 0.000e+00 0.000e+00 0.000e+00
           </DataArray>
           <DataArray type="Float32" Name="rootCircumference" NumberOfComponents="1" format="ascii">
 1.269e+00 1.265e+00 1.263e+00 1.261e+00 1.260e+00 1.259e+00 1.258e+00 1.258e+00 1.257e+00 2.898e-01 2.885e-01 2.873e-01 2.862e-01 2.853e-01 2.845e-01 2.839e-01 2.834e-01 2.830e-01 2.828e-01
           </DataArray>
           <DataArray type="Float32" Name="rootClassID" NumberOfComponents="1" format="ascii">
 -2.000e+00 -2.000e+00 -2.000e+00 -2.000e+00 -2.000e+00 -2.000e+00 -2.000e+00 -2.000e+00 -2.000e+00 -4.000e+00 -4.000e+00 -4.000e+00 -4.000e+00 -4.000e+00 -4.000e+00 -4.000e+00 -4.000e+00 -4.000e+00 -4.000e+00
           </DataArray>
           <DataArray type="Float32" Name="rootDiameter" NumberOfComponents="1" format="ascii">
 4.039e-01 4.027e-01 4.021e-01 4.014e-01 4.011e-01 4.009e-01 4.005e-01 4.003e-01 4.001e-01 9.225e-02 9.182e-02 9.144e-02 9.110e-02 9.081e-02 9.056e-02 9.036e-02 9.020e-02 9.009e-02 9.002e-02
           </DataArray>
           <DataArray type="Float32" Name="rootHairDensity" NumberOfComponents="1" format="ascii">
 0.000e+00 0.000e+00 0.000e+00 0.000e+00 0.000e+00 0.000e+00 0.000e+00 0.000e+00 0.000e+00 2.000e+03 2.000e+03 2.000e+03 2.000e+03 2.000e+03 2.000e+03 2.000e+03 2.000e+03 2.000e+03 2.000e+03
           </DataArray>
           <DataArray type="Float32" Name="rootHairDiameter" NumberOfComponents="1" format="ascii">
 5.000e-04 5.000e-04 5.000e-04 5.000e-04 5.000e-04 5.000e-04 5.000e-04 5.000e-04 5.000e-04 5.000e-04 5.000e-04 5.000e-04 5.000e-04 5.000e-04 5.000e-04 5.000e-04 5.000e-04 5.000e-04 5.000e-04
           </DataArray>
           <DataArray type="Float32" Name="rootHairLength" NumberOfComponents="1" format="ascii">
 3.000e-02 3.000e-02 3.000e-02 2.400e-02 1.800e-02 1.200e-02 3.000e-03 0.000e+00 0.000e+00 3.000e-02 3.000e-02 3.000e-02 3.000e-02 2.400e-02 1.500e-02 6.000e-03 0.000e+00 0.000e+00 0.000e+00
           </DataArray>
           <DataArray type="Float32" Name="rootHairSurfaceArea" NumberOfComponents="1" format="ascii">
 0.000e+00 0.000e+00 0.000e+00 0.000e+00 0.000e+00 0.000e+00 0.000e+00 0.000e+00 0.000e+00 9.425e-02 9.425e-02 9.425e-02 9.425e-02 7.540e-02 4.712e-02 1.885e-02 0.000e+00 0.000e+00 0.000e+00
           </DataArray>
           <DataArray type="Float32" Name="rootLength2Base" NumberOfComponents="1" format="ascii">
 0.000e+00 7.500e-01 1.440e+00 2.600e+00 3.200e+00 3.800e+00 4.700e+00 5.560e+00 6.440e+00 0.000e+00 7.071e-01 1.414e+00 2.121e+00 2.828e+00 3.535e+00 4.243e+00 4.950e+00 5.657e+00 6.364e+00
           </DataArray>
           <DataArray type="Float32" Name="rootPotentialSecondaryGrowth" NumberOfComponents="1" format="ascii">
 4.039e-01 4.027e-01 4.021e-01 4.014e-01 4.011e-01 4.009e-01 4.005e-01 4.003e-01 4.001e-01 9.225e-02 9.182e-02 9.144e-02 9.110e-02 9.081e-02 9.056e-02 9.036e-02 9.020e-02 9.009e-02 9.002e-02
           </DataArray>
           <DataArray type="Float32" Name="rootSegmentAge" NumberOfComponents="1" format="ascii">
 3.000e+00 2.500e+00 2.200e+00 1.800e+00 1.600e+00 1.400e+00 1.100e+00 8.000e-01 4.000e-01 3.000e+00 2.700e+00 2.400e+00 2.100e+00 1.800e+00 1.500e+00 1.200e+00 9.000e-01 6.000e-01 3.000e-01
           </DataArray>
           <DataArray type="Float32" Name="rootSegmentCarbonCostOfExudates" NumberOfComponents="1" format="ascii">
 0.000e+00 0.000e+00 0.000e+00 0.000e+00 0.000e+00 0.000e+00 0.000e+00 0.000e+00 0.000e+00 3.343e-05 2.983e-05 2.646e-05 2.305e-05 1.987e-05 1.652e-05 1.317e-05 9.537e-06 5.904e-06 1.984e-06
           </DataArray>
           <DataArray type="Float32" Name="rootSegmentDryWeight" NumberOfComponents="1" format="ascii">
 9.035e-03 8.262e-03 1.385e-02 7.138e-03 7.127e-03 1.068e-02 1.019e-02 1.041e-02 6.617e-03 4.443e-04 4.401e-04 4.365e-04 4.333e-04 4.305e-04 4.281e-04 4.262e-04 4.248e-04 4.237e-04 4.231e-04
           </DataArray>
           <DataArray type="Float32" Name="rootSegmentLength" NumberOfComponents="1" format="ascii">
 7.500e-01 6.900e-01 1.160e+00 6.000e-01 6.000e-01 9.000e-01 8.600e-01 8.800e-01 5.600e-01 7.071e-01 7.071e-01 7.071e-01 7.071e-01 7.071e-01 7.071e-01 7.071e-01 7.071e-01 7.071e-01 7.071e-01
           </DataArray>
           <DataArray type="Float32" Name="rootSegmentLengthDuration" NumberOfComponents="1" format="ascii">
 2.045e+00 1.621e+00 2.315e+00 1.020e+00 9.000e-01 1.130e+00 8.247e-01 5.387e-01 1.227e-01 2.019e+00 1.807e+00 1.595e+00 1.383e+00 1.171e+00 9.585e-01 7.464e-01 5.343e-01 3.221e-01 1.139e-01
           </DataArray>
           <DataArray type="Float32" Name="rootSegmentRespiration" NumberOfComponents="1" format="ascii">
 3.614e-04 3.305e-04 5.539e-04 3.212e-04 3.564e-04 5.872e-04 6.366e-04 7.287e-04 5.294e-04 1.777e-05 1.761e-05 1.746e-05 1.733e-05 1.937e-05 2.248e-05 2.557e-05 2.867e-05 3.178e-05 3.490e-05
           </DataArray>
           <DataArray type="Float32" Name="rootSegmentSecondaryPotentialCarbonSinkForGrowth" NumberOfComponents="1" format="ascii">
 6.642e-05 4.452e-05 5.427e-05 2.022e-05 1.574e-05 1.645e-05 9.113e-06 3.846e-06 3.721e-07 8.705e-06 6.954e-06 5.404e-06 4.053e-06 2.900e-06 1.941e-06 1.176e-06 6.033e-07 2.221e-07 3.172e-08
           </DataArray>
           <DataArray type="Float32" Name="rootSegmentSurfaceArea" NumberOfComponents="1" format="ascii">
 9.518e-01 8.730e-01 1.465e+00 7.567e-01 7.561e-01 1.133e+00 1.082e+00 1.107e+00 7.038e-01 2.049e-01 2.040e-01 2.031e-01 2.024e-01 2.017e-01 2.012e-01 2.007e-01 2.004e-01 2.001e-01 2.000e-01
           </DataArray>
           <DataArray type="Float32" Name="rootSegmentVolume" NumberOfComponents="1" format="ascii">
 9.611e-02 8.790e-02 1.473e-01 7.593e-02 7.582e-02 1.136e-01 1.084e-01 1.107e-01 7.040e-02 4.726e-03 4.682e-03 4.643e-03 4.609e-03 4.580e-03 4.555e-03 4.534e-03 4.519e-03 4.507e-03 4.501e-03
           </DataArray>
           <DataArray type="Float32" Name="rootSegmentWaterUptake" NumberOfComponents="1" format="ascii">
 4.431e-03 4.077e-03 6.853e-03 3.545e-03 3.545e-03 5.317e-03 5.065e-03 0.000e+00 0.000e+00 4.178e-03 4.178e-03 4.178e-03 4.178e-03 4.178e-03 4.178e-03 4.178e-03 4.038e-03 3.351e-03 1.437e-03
           </DataArray>
           <DataArray type="Float32" Name="spatialRootDensity" NumberOfComponents="1" format="ascii">
 3.376e-01 1.688e-01 0.000e+00 0.000e+00 0.000e+00 0.000e+00 0.000e+00 0.000e+00 0.000e+00 3.438e-01 1.790e-01 0.000e+00 0.000e+00 0.000e+00 0.000e+00 0.000e+00 0.000e+00 0.000e+00 0.000e+00
           </DataArray>
           <DataArray type="Float32" Name="volumetricWaterContentAtTheRootSurface" NumberOfComponents="1" format="ascii">
 2.034e-01 2.035e-01 2.036e-01 2.038e-01 2.039e-01 2.041e-01 2.042e-01 0.000e+00 0.000e+00 2.034e-01 2.032e-01 2.031e-01 2.030e-01 2.029e-01 2.028e-01 2.027e-01 2.025e-01 2.024e-01 2.023e-01
           </DataArray>
         </CellData>
      </Piece>
   </UnstructuredGrid>
</VTKFile>
