<?xml version="1.0"?>
<VTKFile type="UnstructuredGrid" version="0.1" byte_order="LittleEndian">
   <UnstructuredGrid>
      <Piece NumberOfPoints="8450" NumberOfCells="576">
         <Points>
            <DataArray type="Float32" Name="Position" NumberOfComponents="3" format="ascii">
0.067	-5.026	0.141
0.070	-5.018	0.146
0.069	-5.009	0.147
0.065	-5.002	0.143
0.059	-4.999	0.137
0.053	-5.001	0.130
0.050	-5.009	0.125
0.051	-5.018	0.124
0.055	-5.025	0.128
0.061	-5.028	0.134
-0.568	-5.132	0.691
-0.565	-5.125	0.695
-0.566	-5.115	0.696
-0.570	-5.108	0.693
-0.576	-5.105	0.687
-0.582	-5.107	0.680
-0.585	-5.115	0.675
-0.584	-5.124	0.674
-0.580	-5.132	0.677
-0.574	-5.135	0.684
0.131	-5.063	0.261
0.132	-5.054	0.261
0.129	-5.046	0.264
0.121	-5.042	0.267
0.113	-5.044	0.271
0.106	-5.050	0.272
0.105	-5.060	0.272
0.109	-5.068	0.269
0.116	-5.072	0.266
0.125	-5.070	0.262
0.405	-5.149	0.939
0.407	-5.140	0.939
0.403	-5.132	0.942
0.395	-5.128	0.945
0.387	-5.129	0.949
0.380	-5.136	0.950
0.379	-5.145	0.950
0.383	-5.153	0.947
0.390	-5.157	0.944
0.399	-5.155	0.940
0.619	-5.801	1.278
0.622	-5.794	1.283
0.620	-5.784	1.284
0.616	-5.777	1.281
0.609	-5.774	1.275
0.603	-5.777	1.269
0.600	-5.784	1.264
0.602	-5.793	1.262
0.606	-5.800	1.265
0.613	-5.803	1.271
0.192	-5.921	1.686
0.196	-5.913	1.686
0.195	-5.903	1.686
0.188	-5.897	1.686
0.179	-5.895	1.686
0.171	-5.900	1.686
0.167	-5.908	1.686
0.168	-5.917	1.686
0.175	-5.924	1.686
0.184	-5.925	1.686
0.669	-5.900	1.357
0.669	-5.891	1.358
0.664	-5.884	1.363
0.657	-5.882	1.368
0.649	-5.886	1.373
0.645	-5.894	1.375
0.645	-5.903	1.373
0.650	-5.910	1.369
0.657	-5.912	1.364
0.665	-5.908	1.359
1.007	-5.959	1.835
1.006	-5.950	1.837
1.002	-5.943	1.841
0.994	-5.941	1.846
0.987	-5.945	1.851
0.983	-5.953	1.853
0.983	-5.962	1.852
0.988	-5.969	1.847
0.995	-5.971	1.842
1.002	-5.967	1.837
0.714	-6.013	1.447
0.714	-6.004	1.448
0.710	-5.996	1.451
0.702	-5.994	1.456
0.695	-5.997	1.461
0.690	-6.005	1.463
0.690	-6.014	1.462
0.695	-6.022	1.458
0.702	-6.024	1.453
0.710	-6.021	1.449
1.022	-6.057	1.922
1.022	-6.048	1.923
1.018	-6.041	1.927
1.010	-6.038	1.932
1.003	-6.042	1.936
0.998	-6.049	1.938
0.998	-6.059	1.938
1.003	-6.066	1.934
1.010	-6.068	1.929
1.018	-6.065	1.924
0.750	-6.116	1.528
0.757	-6.121	1.530
0.761	-6.128	1.536
0.758	-6.133	1.543
0.752	-6.135	1.549
0.743	-6.133	1.551
0.736	-6.128	1.549
0.732	-6.122	1.543
0.735	-6.116	1.536
0.741	-6.114	1.530
0.558	-6.536	1.175
0.566	-6.541	1.177
0.569	-6.547	1.183
0.567	-6.552	1.190
0.560	-6.554	1.196
0.551	-6.552	1.198
0.544	-6.547	1.196
0.541	-6.541	1.190
0.543	-6.536	1.183
0.550	-6.534	1.177
0.791	-6.256	1.628
0.793	-6.249	1.633
0.792	-6.240	1.634
0.788	-6.232	1.631
0.783	-6.229	1.624
0.778	-6.232	1.616
0.776	-6.239	1.611
0.777	-6.248	1.610
0.781	-6.256	1.613
0.786	-6.259	1.620
0.400	-6.330	1.887
0.403	-6.323	1.892
0.402	-6.314	1.893
0.398	-6.306	1.890
0.392	-6.303	1.883
0.388	-6.306	1.875
0.386	-6.313	1.870
0.387	-6.322	1.869
0.391	-6.330	1.872
0.396	-6.333	1.879
0.824	-6.356	1.692
0.825	-6.351	1.700
0.825	-6.351	1.709
0.823	-6.356	1.716
0.821	-6.365	1.719
0.818	-6.373	1.716
0.816	-6.378	1.708
0.817	-6.378	1.699
0.818	-6.372	1.691
0.821	-6.364	1.689
1.168	-6.470	1.694
1.170	-6.465	1.702
1.170	-6.466	1.711
1.168	-6.471	1.719
1.165	-6.479	1.721
1.162	-6.488	1.718
1.161	-6.493	1.710
1.161	-6.492	1.701
1.163	-6.487	1.694
1.166	-6.478	1.691
0.869	-6.492	1.778
0.869	-6.482	1.778
0.865	-6.474	1.781
0.858	-6.471	1.785
0.850	-6.473	1.789
0.844	-6.480	1.791
0.843	-6.489	1.791
0.847	-6.497	1.788
0.855	-6.501	1.784
0.863	-6.499	1.781
1.078	-6.518	2.207
1.079	-6.509	2.207
1.075	-6.501	2.209
1.067	-6.497	2.213
1.059	-6.499	2.217
1.054	-6.506	2.220
1.053	-6.515	2.219
1.057	-6.523	2.217
1.064	-6.527	2.213
1.072	-6.525	2.209
0.899	-6.605	1.853
0.903	-6.611	1.858
0.903	-6.616	1.866
0.897	-6.618	1.873
0.889	-6.616	1.877
0.882	-6.611	1.877
0.877	-6.604	1.871
0.878	-6.599	1.864
0.884	-6.597	1.856
0.892	-6.600	1.852
0.702	-6.887	1.660
0.710	-6.882	1.660
0.719	-6.884	1.660
0.726	-6.890	1.660
0.727	-6.899	1.660
0.723	-6.908	1.660
0.715	-6.912	1.660
0.706	-6.910	1.660
0.699	-6.904	1.660
0.698	-6.895	1.660
0.936	-6.738	1.940
0.937	-6.728	1.939
0.934	-6.720	1.941
0.926	-6.716	1.944
0.918	-6.717	1.947
0.911	-6.723	1.950
0.909	-6.732	1.950
0.913	-6.740	1.949
0.921	-6.745	1.946
0.929	-6.744	1.942
1.072	-6.746	2.292
1.074	-6.737	2.292
1.070	-6.728	2.293
1.063	-6.724	2.296
1.054	-6.725	2.300
1.048	-6.731	2.302
1.046	-6.740	2.302
1.050	-6.749	2.301
1.057	-6.753	2.298
1.066	-6.752	2.294
0.957	-6.847	2.007
0.966	-6.851	2.007
0.970	-6.858	2.011
0.970	-6.864	2.018
0.965	-6.868	2.025
0.956	-6.867	2.029
0.948	-6.863	2.028
0.943	-6.856	2.024
0.944	-6.850	2.017
0.949	-6.846	2.011
0.848	-7.073	1.787
0.856	-7.077	1.787
0.861	-7.084	1.792
0.861	-7.090	1.798
0.855	-7.094	1.805
0.847	-7.094	1.809
0.839	-7.089	1.808
0.834	-7.083	1.804
0.834	-7.076	1.797
0.840	-7.073	1.791
0.191	-5.115	0.387
0.191	-5.106	0.387
0.187	-5.098	0.389
0.180	-5.095	0.393
0.172	-5.097	0.398
0.166	-5.104	0.400
0.166	-5.114	0.400
0.170	-5.121	0.397
0.177	-5.125	0.393
0.185	-5.122	0.389
0.568	-5.149	1.097
0.569	-5.140	1.097
0.565	-5.132	1.100
0.557	-5.128	1.104
0.549	-5.131	1.108
0.544	-5.138	1.110
0.543	-5.147	1.110
0.547	-5.155	1.108
0.555	-5.158	1.104
0.563	-5.156	1.099
0.996	-6.997	2.094
0.998	-6.990	2.100
0.996	-6.981	2.101
0.993	-6.974	2.097
0.988	-6.970	2.090
0.985	-6.973	2.081
0.983	-6.980	2.076
0.985	-6.989	2.075
0.988	-6.997	2.079
0.993	-7.000	2.086
0.723	-7.056	2.228
0.724	-7.049	2.234
0.723	-7.039	2.235
0.719	-7.032	2.231
0.715	-7.029	2.223
0.712	-7.031	2.215
0.710	-7.038	2.209
0.712	-7.048	2.208
0.715	-7.055	2.212
0.720	-7.058	2.220
1.026	-7.104	2.143
1.030	-7.101	2.151
1.033	-7.103	2.160
1.033	-7.109	2.166
1.031	-7.118	2.168
1.027	-7.126	2.164
1.023	-7.129	2.156
1.021	-7.127	2.148
1.021	-7.121	2.141
1.023	-7.112	2.140
1.318	-7.194	2.042
1.321	-7.191	2.049
1.324	-7.193	2.058
1.324	-7.199	2.064
1.322	-7.208	2.066
1.318	-7.216	2.062
1.314	-7.219	2.055
1.312	-7.217	2.046
1.312	-7.211	2.040
1.314	-7.202	2.038
1.071	-7.257	2.223
1.073	-7.250	2.229
1.072	-7.241	2.230
1.067	-7.234	2.228
1.061	-7.231	2.221
1.056	-7.233	2.214
1.054	-7.240	2.209
1.055	-7.249	2.207
1.060	-7.257	2.210
1.066	-7.260	2.216
0.769	-7.323	2.451
0.778	-7.318	2.451
0.787	-7.320	2.451
0.793	-7.326	2.451
0.795	-7.336	2.451
0.791	-7.344	2.451
0.782	-7.348	2.451
0.773	-7.347	2.451
0.767	-7.340	2.451
0.765	-7.331	2.451
1.102	-7.388	2.290
1.104	-7.381	2.296
1.102	-7.372	2.298
1.097	-7.365	2.295
1.092	-7.361	2.288
1.087	-7.364	2.280
1.086	-7.371	2.275
1.087	-7.379	2.273
1.092	-7.387	2.276
1.097	-7.390	2.282
0.911	-7.422	2.401
0.919	-7.418	2.401
0.928	-7.419	2.401
0.935	-7.426	2.401
0.936	-7.435	2.401
0.932	-7.443	2.401
0.924	-7.447	2.401
0.914	-7.446	2.401
0.908	-7.439	2.401
0.906	-7.430	2.401
1.131	-7.519	2.359
1.134	-7.511	2.363
1.133	-7.502	2.364
1.130	-7.495	2.360
1.124	-7.492	2.353
1.119	-7.494	2.346
1.116	-7.502	2.341
1.117	-7.511	2.340
1.121	-7.519	2.344
1.126	-7.522	2.351
0.924	-7.537	2.512
0.927	-7.529	2.516
0.926	-7.520	2.517
0.923	-7.513	2.513
0.917	-7.510	2.506
0.912	-7.512	2.499
0.909	-7.520	2.494
0.910	-7.529	2.494
0.913	-7.537	2.498
0.919	-7.540	2.504
1.150	-7.625	2.412
1.159	-7.627	2.409
1.166	-7.632	2.410
1.169	-7.640	2.415
1.167	-7.646	2.421
1.160	-7.650	2.426
1.151	-7.648	2.429
1.144	-7.643	2.427
1.141	-7.635	2.423
1.143	-7.629	2.417
1.089	-7.740	2.260
1.097	-7.741	2.258
1.105	-7.747	2.259
1.108	-7.754	2.263
1.105	-7.761	2.269
1.099	-7.764	2.274
1.090	-7.763	2.277
1.082	-7.757	2.276
1.079	-7.750	2.271
1.082	-7.743	2.265
1.181	-7.757	2.477
1.190	-7.759	2.476
1.197	-7.764	2.479
1.199	-7.772	2.484
1.195	-7.778	2.490
1.187	-7.780	2.494
1.178	-7.779	2.495
1.172	-7.773	2.492
1.170	-7.766	2.487
1.173	-7.759	2.481
1.134	-7.897	2.304
1.143	-7.898	2.303
1.150	-7.904	2.306
1.152	-7.911	2.311
1.148	-7.918	2.317
1.140	-7.920	2.321
1.131	-7.918	2.322
1.124	-7.913	2.319
1.123	-7.905	2.314
1.126	-7.899	2.308
1.227	-7.904	2.546
1.228	-7.895	2.547
1.223	-7.887	2.550
1.216	-7.884	2.554
1.208	-7.886	2.558
1.203	-7.894	2.561
1.202	-7.903	2.561
1.207	-7.911	2.558
1.214	-7.914	2.553
1.222	-7.911	2.549
1.322	-7.911	2.712
1.322	-7.902	2.713
1.318	-7.894	2.716
1.310	-7.891	2.720
1.303	-7.893	2.724
1.298	-7.901	2.727
1.297	-7.910	2.727
1.302	-7.918	2.724
1.309	-7.921	2.719
1.317	-7.918	2.715
1.258	-8.035	2.616
1.259	-8.025	2.616
1.255	-8.017	2.618
1.248	-8.014	2.622
1.240	-8.015	2.626
1.234	-8.022	2.628
1.233	-8.032	2.629
1.237	-8.040	2.626
1.245	-8.043	2.623
1.253	-8.042	2.619
1.343	-8.037	2.789
1.344	-8.028	2.789
1.340	-8.020	2.791
1.332	-8.016	2.794
1.324	-8.018	2.798
1.319	-8.025	2.801
1.318	-8.034	2.801
1.322	-8.042	2.799
1.329	-8.046	2.795
1.338	-8.044	2.791
1.286	-8.166	2.684
1.287	-8.157	2.683
1.283	-8.149	2.685
1.275	-8.145	2.689
1.267	-8.146	2.693
1.261	-8.153	2.695
1.260	-8.162	2.696
1.264	-8.171	2.694
1.272	-8.175	2.690
1.280	-8.173	2.686
1.358	-8.167	2.836
1.359	-8.158	2.835
1.355	-8.150	2.837
1.347	-8.146	2.841
1.339	-8.148	2.845
1.333	-8.155	2.848
1.332	-8.164	2.848
1.336	-8.172	2.846
1.344	-8.176	2.842
1.352	-8.174	2.839
0.247	-5.184	0.521
0.250	-5.176	0.526
0.249	-5.167	0.526
0.246	-5.159	0.523
0.240	-5.156	0.516
0.234	-5.159	0.509
0.231	-5.166	0.505
0.231	-5.176	0.504
0.235	-5.183	0.508
0.241	-5.186	0.514
-0.405	-5.253	1.077
-0.402	-5.246	1.082
-0.402	-5.237	1.083
-0.406	-5.229	1.079
-0.412	-5.226	1.072
-0.417	-5.229	1.065
-0.420	-5.236	1.061
-0.420	-5.245	1.060
-0.416	-5.253	1.064
-0.410	-5.256	1.070
-0.464	-5.261	1.125
-0.461	-5.254	1.130
-0.462	-5.244	1.131
-0.466	-5.237	1.127
-0.472	-5.234	1.120
-0.477	-5.237	1.113
-0.480	-5.244	1.109
-0.479	-5.253	1.108
-0.475	-5.261	1.111
-0.470	-5.264	1.118
1.302	-8.285	2.744
1.309	-8.290	2.747
1.311	-8.295	2.754
1.308	-8.300	2.762
1.301	-8.301	2.767
1.292	-8.299	2.768
1.285	-8.295	2.765
1.282	-8.289	2.758
1.285	-8.284	2.750
1.293	-8.283	2.745
1.271	-8.386	2.671
1.278	-8.391	2.675
1.280	-8.397	2.682
1.277	-8.401	2.690
1.270	-8.403	2.695
1.261	-8.401	2.696
1.254	-8.396	2.692
1.251	-8.390	2.685
1.254	-8.386	2.678
[...]
         <CellData>
           <DataArray type="Float32" Name="combinedRootClassID" NumberOfComponents="1" format="ascii">
 -1.300e+01 -1.300e+01 -1.300e+01 -1.300e+01 -1.300e+01 -1.300e+01 -1.300e+01 -1.300e+01 -1.300e+01 -1.300e+01 -1.300e+01 -1.300e+01 -1.300e+01 -1.300e+01 -1.300e+01 -1.300e+01 -1.300e+01 -1.300e+01 -1.300e+01 -1.300e+01 -1.300e+01 -1.300e+01 -1.300e+01 -1.300e+01 -1.300e+01 -1.300e+01 -1.300e+01 -1.300e+01 -1.300e+01 -1.300e+01 -1.300e+01 -1.300e+01 -1.300e+01 -1.300e+01 -1.300e+01 -1.300e+01 -1.300e+01 -5.000e+00 -5.000e+00 -5.000e+00 -5.000e+00 -5.000e+00 -5.000e+00 -5.000e+00 -5.000e+00 -5.000e+00 -5.000e+00 -5.000e+00 -5.000e+00 -5.000e+00 -5.000e+00 -5.000e+00 -5.000e+00 -5.000e+00 -5.000e+00 -1.300e+01 -1.300e+01 -1.300e+01 -1.300e+01 -1.300e+01 -1.300e+01 -1.300e+01 -1.300e+01 -1.300e+01 -1.300e+01 -1.300e+01 -1.300e+01 -1.300e+01 -1.300e+01 -1.300e+01 -1.300e+01 -1.300e+01 -1.300e+01 -1.300e+01 -1.300e+01 -1.300e+01 -1.300e+01 -1.300e+01 -1.300e+01 -1.300e+01 -1.300e+01 -1.300e+01 -1.300e+01 -1.300e+01 -1.300e+01 -1.300e+01 -1.300e+01 -1.300e+01 -1.300e+01 -1.300e+01 -1.300e+01 -1.300e+01 -5.000e+00 -5.000e+00 -5.000e+00 -5.000e+00 -5.000e+00 -5.000e+00 -5.000e+00 -5.000e+00 -5.000e+00 -5.000e+00 -5.000e+00 -5.000e+00 -5.000e+00 -5.000e+00 -5.000e+00 -5.000e+00 -5.000e+00 -5.000e+00 -1.300e+01 -1.300e+01 -1.300e+01 -1.300e+01 -1.300e+01 -1.300e+01 -1.300e+01 -1.300e+01 -1.300e+01 -1.300e+01 -1.300e+01 -1.300e+01 -1.300e+01 -1.300e+01 -1.300e+01 -1.300e+01 -1.300e+01 -1.300e+01 -1.300e+01 -1.300e+01 -1.300e+01 -1.300e+01 -1.300e+01 -1.300e+01 -1.300e+01 -1.300e+01 -1.300e+01 -1.300e+01 -1.300e+01 -1.300e+01 -1.300e+01 -1.300e+01 -1.300e+01 -1.300e+01 -1.300e+01 -1.300e+01 -1.300e+01 -5.000e+00 -5.000e+00 -5.000e+00 -5.000e+00 -5.000e+00 -5.000e+00 -5.000e+00 -5.000e+00 -5.000e+00 -5.000e+00 -5.000e+00 -5.000e+00 -5.000e+00 -5.000e+00 -5.000e+00 -5.000e+00 -5.000e+00 -5.000e+00 -1.300e+01 -1.300e+01 -1.300e+01 -1.300e+01 -1.300e+01 -1.300e+01 -1.300e+01 -1.300e+01 -1.300e+01 -1.300e+01 -1.300e+01 -1.300e+01 -1.300e+01 -1.300e+01 -1.300e+01 -1.300e+01 -1.300e+01 -1.300e+01 -1.300e+01 -1.300e+01 -1.300e+01 -1.300e+01 -1.300e+01 -1.300e+01 -1.300e+01 -1.300e+01 -1.300e+01 -1.300e+01 -1.300e+01 -1.300e+01 -1.300e+01 -1.300e+01 -1.300e+01 -1.300e+01 -1.300e+01 -1.300e+01 -1.300e+01 -5.000e+00 -5.000e+00 -5.000e+00 -5.000e+00 -5.000e+00 -5.000e+00 -5.000e+00 -5.000e+00 -5.000e+00 -5.000e+00 -5.000e+00 -5.000e+00 -5.000e+00 -5.000e+00 -5.000e+00 -5.000e+00 -5.000e+00 -5.000e+00 -1.100e+01 -1.100e+01 -1.100e+01 -1.100e+01 -1.100e+01 -1.100e+01 -1.100e+01 -1.100e+01 -1.100e+01 -1.100e+01 -1.100e+01 -1.100e+01 -1.100e+01 -1.100e+01 -1.100e+01 -1.100e+01 -1.100e+01 -1.100e+01 -1.100e+01 -1.100e+01 -1.100e+01 -1.100e+01 -1.100e+01 -1.100e+01 -1.100e+01 -1.100e+01 -1.100e+01 -1.100e+01 -2.000e+00 -2.000e+00 -2.000e+00 -2.000e+00 -2.000e+00 -2.000e+00 -2.000e+00 -2.000e+00 -2.000e+00 -2.000e+00 -7.000e+00 -7.000e+00 -7.000e+00 -7.000e+00 -7.000e+00 -7.000e+00 -7.000e+00 -7.000e+00 -7.000e+00 -7.000e+00 -7.000e+00 -7.000e+00 -7.000e+00 -7.000e+00 -7.000e+00 -7.000e+00 -7.000e+00 -7.000e+00 -7.000e+00 -7.000e+00 -7.000e+00 -7.000e+00 -7.000e+00 -7.000e+00 -7.000e+00 -7.000e+00 -7.000e+00 -7.000e+00 -7.000e+00 -7.000e+00 -7.000e+00 -7.000e+00 -7.000e+00 -7.000e+00 -7.000e+00 -7.000e+00 -7.000e+00 -7.000e+00 -7.000e+00 -7.000e+00 -7.000e+00 -7.000e+00 -7.000e+00 -7.000e+00 -7.000e+00 -7.000e+00 -7.000e+00 -7.000e+00 -7.000e+00 -7.000e+00 -7.000e+00 -7.000e+00 -7.000e+00 -7.000e+00 -7.000e+00 -7.000e+00 -7.000e+00 -7.000e+00 -7.000e+00 -7.000e+00 -7.000e+00 -7.000e+00 -7.000e+00 -7.000e+00 -7.000e+00 -7.000e+00 -7.000e+00 -7.000e+00 -7.000e+00 -7.000e+00 -7.000e+00 -7.000e+00 -7.000e+00 -7.000e+00 -7.000e+00 -7.000e+00 -7.000e+00 -7.000e+00 -7.000e+00 -7.000e+00 -7.000e+00 -7.000e+00 -7.000e+00 -7.000e+00 -7.000e+00 -7.000e+00 -7.000e+00 -7.000e+00 -7.000e+00 -7.000e+00 -7.000e+00 -7.000e+00 -7.000e+00 -7.000e+00 -7.000e+00 -7.000e+00 -7.000e+00 -7.000e+00 -7.000e+00 -7.000e+00 -7.000e+00 -7.000e+00 -7.000e+00 -7.000e+00 -7.000e+00 -7.000e+00 -7.000e+00 -7.000e+00 -7.000e+00 -7.000e+00 -7.000e+00 -7.000e+00 -7.000e+00 -7.000e+00 -7.000e+00 -7.000e+00 -7.000e+00 -7.000e+00 -7.000e+00 -7.000e+00 -7.000e+00 -7.000e+00 -7.000e+00 -7.000e+00 -7.000e+00 -7.000e+00 -7.000e+00 -7.000e+00 -7.000e+00 -7.000e+00 -7.000e+00 -7.000e+00 -7.000e+00 -7.000e+00 -7.000e+00 -7.000e+00 -7.000e+00 -7.000e+00 -7.000e+00 -7.000e+00 -7.000e+00 -7.000e+00 -7.000e+00 -7.000e+00 -7.000e+00 -7.000e+00 -7.000e+00 -7.000e+00 -7.000e+00 -7.000e+00 -7.000e+00 -7.000e+00 -7.000e+00 -7.000e+00 -7.000e+00 -7.000e+00 -7.000e+00 -7.000e+00 -7.000e+00 -7.000e+00 -7.000e+00 -7.000e+00 -7.000e+00 -7.000e+00 -7.000e+00 -7.000e+00 -7.000e+00 -7.000e+00 -7.000e+00 -7.000e+00 -7.000e+00 -7.000e+00 -7.000e+00 -7.000e+00 -7.000e+00 -7.000e+00 -7.000e+00 -7.000e+00 -7.000e+00 -7.000e+00 -7.000e+00 -7.000e+00 -7.000e+00 -7.000e+00 -7.000e+00 -7.000e+00 -7.000e+00 -7.000e+00 -7.000e+00 -7.000e+00 -7.000e+00 -7.000e+00 -7.000e+00 -7.000e+00 -7.000e+00 -7.000e+00 -7.000e+00 -7.000e+00 -7.000e+00 -7.000e+00 -7.000e+00 -7.000e+00 -7.000e+00 -7.000e+00 -7.000e+00 -7.000e+00 -7.000e+00 -7.000e+00 -7.000e+00 -7.000e+00 -7.000e+00 -7.000e+00 -7.000e+00 -7.000e+00 -7.000e+00 -7.000e+00 -7.000e+00 -7.000e+00 -7.000e+00 -7.000e+00 -7.000e+00 -7.000e+00 -7.000e+00 -7.000e+00 -7.000e+00 -7.000e+00 -7.000e+00 -7.000e+00 -7.000e+00 -7.000e+00 -7.000e+00 -7.000e+00 -7.000e+00 -7.000e+00 -7.000e+00 -7.000e+00 -7.000e+00 -7.000e+00 -7.000e+00 -7.000e+00 -7.000e+00 -7.000e+00 -7.000e+00 -7.000e+00 -7.000e+00 -7.000e+00 -7.000e+00 -7.000e+00 -7.000e+00 -7.000e+00 -7.000e+00 -7.000e+00 -7.000e+00 -7.000e+00 -7.000e+00 -7.000e+00 -7.000e+00 -7.000e+00 -7.000e+00 -7.000e+00 -7.000e+00 -7.000e+00 -7.000e+00 -7.000e+00 -7.000e+00 -7.000e+00 -7.000e+00 -7.000e+00 -7.000e+00 -7.000e+00 -7.000e+00 -7.000e+00 -7.000e+00 -7.000e+00 -7.000e+00 -7.000e+00 -7.000e+00 -7.000e+00 -1.500e+01 -9.000e+00 -9.000e+00 -9.000e+00 -9.000e+00 -9.000e+00 -9.000e+00 -9.000e+00 -9.000e+00 -9.000e+00 -4.000e+00 -4.000e+00 -4.000e+00 -4.000e+00 -4.000e+00 -4.000e+00 -4.000e+00 -4.000e+00 -4.000e+00 -4.000e+00 -4.000e+00 -4.000e+00 -4.000e+00 -4.000e+00 -4.000e+00 -4.000e+00 -4.000e+00 -4.000e+00 -4.000e+00 -4.000e+00 -4.000e+00 -4.000e+00 -4.000e+00 -4.000e+00 -4.000e+00 -4.000e+00 -4.000e+00 -4.000e+00 -4.000e+00 -4.000e+00
           </DataArray>
           <DataArray type="Float32" Name="nitrate/Cmin" NumberOfComponents="1" format="ascii">
 1.000e-03 1.000e-03 1.000e-03 1.000e-03 1.000e-03 1.000e-03 1.000e-03 1.000e-03 1.000e-03 1.000e-03 1.000e-03 1.000e-03 1.000e-03 1.000e-03 1.000e-03 1.000e-03 1.000e-03 1.000e-03 1.000e-03 1.000e-03 1.000e-03 1.000e-03 1.000e-03 1.000e-03 1.000e-03 1.000e-03 1.000e-03 1.000e-03 1.000e-03 1.000e-03 1.000e-03 1.000e-03 1.000e-03 1.000e-03 1.000e-03 1.000e-03 1.000e-03 1.000e-03 1.000e-03 1.000e-03 1.000e-03 1.000e-03 1.000e-03 1.000e-03 1.000e-03 1.000e-03 1.000e-03 1.000e-03 1.000e-03 1.000e-03 1.000e-03 1.000e-03 1.000e-03 1.000e-03 1.000e-03 1.000e-03 1.000e-03 1.000e-03 1.000e-03 1.000e-03 1.000e-03 1.000e-03 1.000e-03 1.000e-03 1.000e-03 1.000e-03 1.000e-03 1.000e-03 1.000e-03 1.000e-03 1.000e-03 1.000e-03 1.000e-03 1.000e-03 1.000e-03 1.000e-03 1.000e-03 1.000e-03 1.000e-03 1.000e-03 1.000e-03 1.000e-03 1.000e-03 1.000e-03 1.000e-03 1.000e-03 1.000e-03 1.000e-03 1.000e-03 1.000e-03 1.000e-03 1.000e-03 1.000e-03 1.000e-03 1.000e-03 1.000e-03 1.000e-03 1.000e-03 1.000e-03 1.000e-03 1.000e-03 1.000e-03 1.000e-03 1.000e-03 1.000e-03 1.000e-03 1.000e-03 1.000e-03 1.000e-03 1.000e-03 1.000e-03 1.000e-03 1.000e-03 1.000e-03 1.000e-03 1.000e-03 1.000e-03 1.000e-03 1.000e-03 1.000e-03 1.000e-03 1.000e-03 1.000e-03 1.000e-03 1.000e-03 1.000e-03 1.000e-03 1.000e-03 1.000e-03 1.000e-03 1.000e-03 1.000e-03 1.000e-03 1.000e-03 1.000e-03 1.000e-03 1.000e-03 1.000e-03 1.000e-03 1.000e-03 1.000e-03 1.000e-03 1.000e-03 1.000e-03 1.000e-03 1.000e-03 1.000e-03 1.000e-03 1.000e-03 1.000e-03 1.000e-03 1.000e-03 1.000e-03 1.000e-03 1.000e-03 1.000e-03 1.000e-03 1.000e-03 1.000e-03 1.000e-03 1.000e-03 1.000e-03 1.000e-03 1.000e-03 1.000e-03 1.000e-03 1.000e-03 1.000e-03 1.000e-03 1.000e-03 1.000e-03 1.000e-03 1.000e-03 1.000e-03 1.000e-03 1.000e-03 1.000e-03 1.000e-03 1.000e-03 1.000e-03 1.000e-03 1.000e-03 1.000e-03 1.000e-03 1.000e-03 1.000e-03 1.000e-03 1.000e-03 1.000e-03 1.000e-03 1.000e-03 1.000e-03 1.000e-03 1.000e-03 1.000e-03 1.000e-03 1.000e-03 1.000e-03 1.000e-03 1.000e-03 1.000e-03 1.000e-03 1.000e-03 1.000e-03 1.000e-03 1.000e-03 1.000e-03 1.000e-03 1.000e-03 1.000e-03 1.000e-03 1.000e-03 1.000e-03 1.000e-03 1.000e-03 1.000e-03 1.000e-03 1.000e-03 1.000e-03 1.000e-03 1.000e-03 1.000e-03 1.000e-03 1.000e-03 1.000e-03 1.000e-03 1.000e-03 1.000e-03 1.000e-03 1.000e-03 1.000e-03 1.000e-03 1.000e-03 1.000e-03 1.000e-03 1.000e-03 1.000e-03 1.000e-03 1.000e-03 1.000e-03 1.000e-03 1.000e-03 1.000e-03 1.000e-03 1.000e-03 1.000e-03 1.000e-03 1.000e-03 1.000e-03 1.000e-03 1.000e-03 1.000e-03 1.000e-03 1.000e-03 1.000e-03 1.000e-03 1.000e-03 1.000e-03 1.000e-03 1.000e-03 1.000e-03 1.000e-03 1.000e-03 1.000e-03 1.000e-03 1.000e-03 1.000e-03 1.000e-03 1.000e-03 1.000e-03 1.000e-03 1.000e-03 1.000e-03 1.000e-03 1.000e-03 1.000e-03 1.000e-03 1.000e-03 1.000e-03 1.000e-03 1.000e-03 1.000e-03 1.000e-03 1.000e-03 1.000e-03 1.000e-03 1.000e-03 1.000e-03 1.000e-03 1.000e-03 1.000e-03 1.000e-03 1.000e-03 1.000e-03 1.000e-03 1.000e-03 1.000e-03 1.000e-03 1.000e-03 1.000e-03 1.000e-03 1.000e-03 1.000e-03 1.000e-03 1.000e-03 1.000e-03 1.000e-03 1.000e-03 1.000e-03 1.000e-03 1.000e-03 1.000e-03 1.000e-03 1.000e-03 1.000e-03 1.000e-03 1.000e-03 1.000e-03 1.000e-03 1.000e-03 1.000e-03 1.000e-03 1.000e-03 1.000e-03 1.000e-03 1.000e-03 1.000e-03 1.000e-03 1.000e-03 1.000e-03 1.000e-03 1.000e-03 1.000e-03 1.000e-03 1.000e-03 1.000e-03 1.000e-03 1.000e-03 1.000e-03 1.000e-03 1.000e-03 1.000e-03 1.000e-03 1.000e-03 1.000e-03 1.000e-03 1.000e-03 1.000e-03 1.000e-03 1.000e-03 1.000e-03 1.000e-03 1.000e-03 1.000e-03 1.000e-03 1.000e-03 1.000e-03 1.000e-03 1.000e-03 1.000e-03 1.000e-03 1.000e-03 1.000e-03 1.000e-03 1.000e-03 1.000e-03 1.000e-03 1.000e-03 1.000e-03 1.000e-03 1.000e-03 1.000e-03 1.000e-03 1.000e-03 1.000e-03 1.000e-03 1.000e-03 1.000e-03 1.000e-03 1.000e-03 1.000e-03 1.000e-03 1.000e-03 1.000e-03 1.000e-03 1.000e-03 1.000e-03 1.000e-03 1.000e-03 1.000e-03 1.000e-03 1.000e-03 1.000e-03 1.000e-03 1.000e-03 1.000e-03 1.000e-03 1.000e-03 1.000e-03 1.000e-03 1.000e-03 1.000e-03 1.000e-03 1.000e-03 1.000e-03 1.000e-03 1.000e-03 1.000e-03 1.000e-03 1.000e-03 1.000e-03 1.000e-03 1.000e-03 1.000e-03 1.000e-03 1.000e-03 1.000e-03 1.000e-03 1.000e-03 1.000e-03 1.000e-03 1.000e-03 1.000e-03 1.000e-03 1.000e-03 1.000e-03 1.000e-03 1.000e-03 1.000e-03 1.000e-03 1.000e-03 1.000e-03 1.000e-03 1.000e-03 1.000e-03 1.000e-03 1.000e-03 1.000e-03 1.000e-03 1.000e-03 1.000e-03 1.000e-03 1.000e-03 1.000e-03 1.000e-03 1.000e-03 1.000e-03 1.000e-03 1.000e-03 1.000e-03 1.000e-03 1.000e-03 1.000e-03 1.000e-03 1.000e-03 1.000e-03 1.000e-03 1.000e-03 1.000e-03 1.000e-03 1.000e-03 1.000e-03 1.000e-03 1.000e-03 1.000e-03 1.000e-03 1.000e-03 1.000e-03 1.000e-03 1.000e-03 1.000e-03 1.000e-03 1.000e-03 1.000e-03 1.000e-03 1.000e-03 1.000e-03 1.000e-03 1.000e-03 1.000e-03 1.000e-03 1.000e-03 1.000e-03 1.000e-03 1.000e-03 1.000e-03 1.000e-03 1.000e-03 1.000e-03 1.000e-03 1.000e-03 1.000e-03 1.000e-03 1.000e-03 1.000e-03 1.000e-03 1.000e-03 1.000e-03 1.000e-03 1.000e-03 1.000e-03 1.000e-03 1.000e-03 1.000e-03 1.000e-03 1.000e-03 1.000e-03 1.000e-03 1.000e-03 1.000e-03 1.000e-03 1.000e-03 1.000e-03 1.000e-03 1.000e-03 1.000e-03 1.000e-03 1.000e-03 1.000e-03 1.000e-03 1.000e-03 1.000e-03 1.000e-03 1.000e-03 1.000e-03 1.000e-03 1.000e-03 1.000e-03 1.000e-03 1.000e-03 1.000e-03 1.000e-03 1.000e-03 1.000e-03 1.000e-03 1.000e-03 1.000e-03 1.000e-03 1.000e-03 1.000e-03 1.000e-03 1.000e-03 1.000e-03 1.000e-03 1.000e-03 1.000e-03 1.000e-03 1.000e-03 1.000e-03 1.000e-03 1.000e-03 1.000e-03 1.000e-03 1.000e-03 1.000e-03 1.000e-03 1.000e-03 1.000e-03 1.000e-03 1.000e-03 1.000e-03 1.000e-03 1.000e-03 1.000e-03 1.000e-03 1.000e-03 1.000e-03 1.000e-03 1.000e-03 1.000e-03 1.000e-03 1.000e-03 1.000e-03 1.000e-03 1.000e-03 1.000e-03
           </DataArray>
           <DataArray type="Float32" Name="nitrate/Imax" NumberOfComponents="1" format="ascii">
 1.900e+00 1.900e+00 1.900e+00 1.900e+00 1.900e+00 1.900e+00 1.900e+00 1.900e+00 1.900e+00 1.900e+00 1.900e+00 1.900e+00 1.900e+00 1.900e+00 1.900e+00 1.900e+00 1.900e+00 1.900e+00 1.900e+00 1.900e+00 1.900e+00 1.900e+00 1.900e+00 1.900e+00 1.900e+00 1.900e+00 1.900e+00 1.900e+00 1.900e+00 1.900e+00 1.900e+00 1.900e+00 1.900e+00 1.900e+00 1.900e+00 1.900e+00 1.900e+00 1.900e+00 1.900e+00 1.900e+00 1.900e+00 1.900e+00 1.900e+00 1.900e+00 1.900e+00 1.900e+00 1.900e+00 1.900e+00 1.900e+00 1.900e+00 1.900e+00 1.900e+00 1.900e+00 1.900e+00 1.900e+00 1.900e+00 1.900e+00 1.900e+00 1.900e+00 1.900e+00 1.900e+00 1.900e+00 1.900e+00 1.900e+00 1.900e+00 1.900e+00 1.900e+00 1.900e+00 1.900e+00 1.900e+00 1.900e+00 1.900e+00 1.900e+00 1.900e+00 1.900e+00 1.900e+00 1.900e+00 1.900e+00 1.900e+00 1.900e+00 1.900e+00 1.900e+00 1.900e+00 1.900e+00 1.900e+00 1.900e+00 1.900e+00 1.900e+00 1.900e+00 1.900e+00 1.900e+00 1.900e+00 1.900e+00 1.900e+00 1.900e+00 1.900e+00 1.900e+00 1.900e+00 1.900e+00 1.900e+00 1.900e+00 1.900e+00 1.900e+00 1.900e+00 1.900e+00 1.900e+00 1.900e+00 1.900e+00 1.900e+00 1.900e+00 1.900e+00 1.900e+00 1.900e+00 1.900e+00 1.900e+00 1.900e+00 1.900e+00 1.900e+00 1.900e+00 1.900e+00 1.900e+00 1.900e+00 1.900e+00 1.900e+00 1.900e+00 1.900e+00 1.900e+00 1.900e+00 1.900e+00 1.900e+00 1.900e+00 1.900e+00 1.900e+00 1.900e+00 1.900e+00 1.900e+00 1.900e+00 1.900e+00 1.900e+00 1.900e+00 1.900e+00 1.900e+00 1.900e+00 1.900e+00 1.900e+00 1.900e+00 1.900e+00 1.900e+00 1.900e+00 1.900e+00 1.900e+00 1.900e+00 1.900e+00 1.900e+00 1.900e+00 1.900e+00 1.900e+00 1.900e+00 1.900e+00 1.900e+00 1.900e+00 1.900e+00 1.900e+00 1.900e+00 1.900e+00 1.900e+00 1.900e+00 1.900e+00 1.900e+00 1.900e+00 1.900e+00 1.900e+00 1.900e+00 1.900e+00 1.900e+00 1.900e+00 1.900e+00 1.900e+00 1.900e+00 1.900e+00 1.900e+00 1.900e+00 1.900e+00 1.900e+00 1.900e+00 1.900e+00 1.900e+00 1.900e+00 1.900e+00 1.900e+00 1.900e+00 1.900e+00 1.900e+00 1.900e+00 1.900e+00 1.900e+00 1.900e+00 1.900e+00 1.900e+00 1.900e+00 1.900e+00 1.900e+00 1.900e+00 1.900e+00 1.900e+00 1.900e+00 1.900e+00 1.900e+00 1.900e+00 1.900e+00 1.900e+00 1.900e+00 1.900e+00 1.900e+00 1.900e+00 1.900e+00 1.900e+00 1.900e+00 1.900e+00 1.900e+00 1.900e+00 1.900e+00 1.900e+00 1.900e+00 1.900e+00 1.900e+00 1.900e+00 1.900e+00 1.900e+00 1.900e+00 1.900e+00 1.900e+00 1.900e+00 1.900e+00 1.900e+00 1.900e+00 1.900e+00 1.900e+00 1.900e+00 1.900e+00 1.900e+00 1.900e+00 1.900e+00 1.900e+00 1.900e+00 1.900e+00 1.900e+00 1.900e+00 1.900e+00 1.900e+00 1.900e+00 1.900e+00 1.900e+00 1.900e+00 1.900e+00 1.900e+00 1.900e+00 1.900e+00 1.900e+00 1.900e+00 1.900e+00 1.900e+00 1.900e+00 1.900e+00 1.900e+00 1.900e+00 1.900e+00 1.900e+00 1.900e+00 1.900e+00 1.900e+00 1.900e+00 1.900e+00 1.900e+00 1.900e+00 1.900e+00 1.900e+00 1.900e+00 1.900e+00 1.900e+00 1.900e+00 1.900e+00 1.900e+00 1.900e+00 1.900e+00 1.900e+00 1.900e+00 1.900e+00 1.900e+00 1.900e+00 1.900e+00 1.900e+00 1.900e+00 1.900e+00 1.900e+00 1.900e+00 1.900e+00 1.900e+00 1.900e+00 1.900e+00 1.900e+00 1.900e+00 1.900e+00 1.900e+00 1.900e+00 1.900e+00 1.900e+00 1.900e+00 1.900e+00 1.900e+00 1.900e+00 1.900e+00 1.900e+00 1.900e+00 1.900e+00 1.900e+00 1.900e+00 1.900e+00 1.900e+00 1.900e+00 1.900e+00 1.900e+00 1.900e+00 1.900e+00 1.900e+00 1.900e+00 1.900e+00 1.900e+00 1.900e+00 1.900e+00 1.900e+00 1.900e+00 1.900e+00 1.900e+00 1.900e+00 1.900e+00 1.900e+00 1.900e+00 1.900e+00 1.900e+00 1.900e+00 1.900e+00 1.900e+00 1.900e+00 1.900e+00 1.900e+00 1.900e+00 1.900e+00 1.900e+00 1.900e+00 1.900e+00 1.900e+00 1.900e+00 1.900e+00 1.900e+00 1.900e+00 1.900e+00 1.900e+00 1.900e+00 1.900e+00 1.900e+00 1.900e+00 1.900e+00 1.900e+00 1.900e+00 1.900e+00 1.900e+00 1.900e+00 1.900e+00 1.900e+00 1.900e+00 1.900e+00 1.900e+00 1.900e+00 1.900e+00 1.900e+00 1.900e+00 1.900e+00 1.900e+00 1.900e+00 1.900e+00 1.900e+00 1.900e+00 1.900e+00 1.900e+00 1.900e+00 1.900e+00 1.900e+00 1.900e+00 1.900e+00 1.900e+00 1.900e+00 1.900e+00 1.900e+00 1.900e+00 1.900e+00 1.900e+00 1.900e+00 1.900e+00 1.900e+00 1.900e+00 1.900e+00 1.900e+00 1.900e+00 1.900e+00 1.900e+00 1.900e+00 1.900e+00 1.900e+00 1.900e+00 1.900e+00 1.900e+00 1.900e+00 1.900e+00 1.900e+00 1.900e+00 1.900e+00 1.900e+00 1.900e+00 1.900e+00 1.900e+00 1.900e+00 1.900e+00 1.900e+00 1.900e+00 1.900e+00 1.900e+00 1.900e+00 1.900e+00 1.900e+00 1.900e+00 1.900e+00 1.900e+00 1.900e+00 1.900e+00 1.900e+00 1.900e+00 1.900e+00 1.900e+00 1.900e+00 1.900e+00 1.900e+00 1.900e+00 1.900e+00 1.900e+00 1.900e+00 1.900e+00 1.900e+00 1.900e+00 1.900e+00 1.900e+00 1.900e+00 1.900e+00 1.900e+00 1.900e+00 1.900e+00 1.900e+00 1.900e+00 1.900e+00 1.900e+00 1.900e+00 1.900e+00 1.900e+00 1.900e+00 1.900e+00 1.900e+00 1.900e+00 1.900e+00 1.900e+00 1.900e+00 1.900e+00 1.900e+00 1.900e+00 1.900e+00 1.900e+00 1.900e+00 1.900e+00 1.900e+00 1.900e+00 1.900e+00 1.900e+00 1.900e+00 1.900e+00 1.900e+00 1.900e+00 1.900e+00 1.900e+00 1.900e+00 1.900e+00 1.900e+00 1.900e+00 1.900e+00 1.900e+00 1.900e+00 1.900e+00 1.900e+00 1.900e+00 1.900e+00 1.900e+00 1.900e+00 1.900e+00 1.900e+00 1.900e+00 1.900e+00 1.900e+00 1.900e+00 1.900e+00 1.900e+00 1.900e+00 1.900e+00 1.900e+00 1.900e+00 1.900e+00 1.900e+00 1.900e+00 1.900e+00 1.900e+00 1.900e+00 1.900e+00 1.900e+00 1.900e+00 1.900e+00 1.900e+00 1.900e+00 1.900e+00 1.900e+00 1.900e+00 1.900e+00 1.900e+00 1.900e+00 1.900e+00 1.900e+00 1.900e+00 1.900e+00 1.900e+00 1.900e+00 1.900e+00 1.900e+00 1.900e+00 1.900e+00 1.900e+00 1.900e+00 1.900e+00 1.900e+00 1.900e+00 1.900e+00 1.900e+00 1.900e+00 1.900e+00 1.900e+00 1.900e+00 1.900e+00 1.900e+00 1.900e+00 1.900e+00 1.900e+00 1.900e+00 1.900e+00 1.900e+00 1.900e+00 1.900e+00 1.900e+00 1.900e+00 1.900e+00 1.900e+00 1.900e+00 1.900e+00 1.900e+00 1.900e+00 1.900e+00 1.900e+00 1.900e+00 1.900e+00 1.900e+00 1.900e+00 1.900e+00
           </DataArray>
           <DataArray type="Float32" Name="nitrate/Km" NumberOfComponents="1" format="ascii">