<?xml version="1.0"?>
<VTKFile type="UnstructuredGrid" version="0.1" byte_order="LittleEndian">
   <UnstructuredGrid>
      <Piece NumberOfPoints="13430" NumberOfCells="936">
         <Points>
            <DataArray type="Float32" Name="Position" NumberOfComponents="3" format="ascii">
0.067	-5.026	0.141
0.070	-5.018	0.146
0.069	-5.009	0.147
0.065	-5.002	0.143
0.059	-4.999	0.137
0.053	-5.001	0.130
0.050	-5.009	0.125
0.051	-5.018	0.124
0.055	-5.025	0.128
0.061	-5.028	0.134
-0.568	-5.132	0.690
-0.565	-5.125	0.695
-0.566	-5.115	0.696
-0.570	-5.108	0.693
-0.576	-5.105	0.687
-0.582	-5.107	0.680
-0.585	-5.115	0.675
-0.584	-5.124	0.674
-0.580	-5.131	0.677
-0.574	-5.134	0.683
-1.047	-5.217	1.102
-1.038	-5.214	1.101
-1.029	-5.217	1.102
-1.024	-5.224	1.104
-1.024	-5.233	1.106
-1.029	-5.240	1.108
-1.038	-5.243	1.108
-1.047	-5.240	1.108
-1.052	-5.233	1.106
-1.052	-5.224	1.104
0.131	-5.064	0.261
0.133	-5.054	0.262
0.129	-5.046	0.264
0.121	-5.042	0.267
0.113	-5.044	0.271
0.106	-5.050	0.272
0.105	-5.059	0.271
0.108	-5.067	0.269
0.116	-5.072	0.265
0.124	-5.070	0.262
0.425	-5.177	1.048
0.428	-5.168	1.050
0.424	-5.160	1.053
0.417	-5.156	1.056
0.408	-5.157	1.058
0.401	-5.163	1.058
0.399	-5.172	1.057
0.402	-5.180	1.053
0.409	-5.184	1.050
0.418	-5.183	1.048
0.499	-5.344	1.466
0.501	-5.336	1.469
0.498	-5.328	1.473
0.491	-5.323	1.476
0.482	-5.324	1.477
0.474	-5.330	1.476
0.472	-5.338	1.473
0.475	-5.346	1.469
0.482	-5.351	1.466
0.491	-5.350	1.465
0.619	-5.801	1.278
0.622	-5.793	1.283
0.621	-5.784	1.284
0.616	-5.777	1.281
0.609	-5.774	1.275
0.603	-5.777	1.269
0.600	-5.784	1.264
0.601	-5.793	1.263
0.606	-5.800	1.265
0.613	-5.803	1.271
0.020	-5.942	1.882
0.023	-5.935	1.886
0.023	-5.926	1.887
0.018	-5.918	1.884
0.012	-5.915	1.878
0.005	-5.918	1.872
0.002	-5.925	1.868
0.002	-5.935	1.867
0.007	-5.942	1.870
0.014	-5.945	1.875
-0.230	-5.960	2.171
-0.226	-5.952	2.175
-0.226	-5.943	2.176
-0.230	-5.936	2.172
-0.237	-5.933	2.167
-0.244	-5.935	2.161
-0.248	-5.943	2.157
-0.248	-5.952	2.157
-0.243	-5.960	2.160
-0.237	-5.963	2.166
0.669	-5.900	1.357
0.669	-5.891	1.358
0.664	-5.884	1.363
0.657	-5.882	1.368
0.650	-5.886	1.373
0.645	-5.894	1.375
0.646	-5.903	1.373
0.650	-5.910	1.369
0.657	-5.912	1.363
0.665	-5.908	1.359
1.159	-6.000	2.039
1.160	-5.991	2.039
1.155	-5.984	2.043
1.148	-5.981	2.048
1.140	-5.985	2.052
1.135	-5.992	2.055
1.135	-6.001	2.054
1.140	-6.009	2.050
1.147	-6.011	2.045
1.155	-6.008	2.041
1.343	-6.011	2.376
1.344	-6.002	2.376
1.339	-5.994	2.378
1.332	-5.991	2.383
1.324	-5.993	2.387
1.319	-6.000	2.390
1.318	-6.010	2.390
1.322	-6.017	2.387
1.330	-6.021	2.383
1.338	-6.018	2.379
0.714	-6.013	1.447
0.715	-6.004	1.448
0.710	-5.997	1.451
0.702	-5.994	1.456
0.695	-5.997	1.460
0.690	-6.005	1.463
0.690	-6.014	1.462
0.695	-6.021	1.459
0.702	-6.024	1.454
0.710	-6.021	1.449
1.187	-6.067	2.200
1.188	-6.058	2.200
1.183	-6.050	2.203
1.176	-6.047	2.208
1.168	-6.050	2.212
1.163	-6.058	2.215
1.163	-6.067	2.214
1.167	-6.074	2.211
1.175	-6.077	2.206
1.182	-6.074	2.202
1.340	-6.097	2.481
1.341	-6.088	2.482
1.337	-6.080	2.485
1.329	-6.077	2.489
1.321	-6.080	2.493
1.316	-6.087	2.496
1.315	-6.096	2.495
1.320	-6.104	2.492
1.327	-6.107	2.487
1.335	-6.104	2.483
0.752	-6.118	1.527
0.758	-6.123	1.531
0.761	-6.129	1.537
0.758	-6.133	1.545
0.750	-6.134	1.550
0.741	-6.132	1.552
0.735	-6.126	1.548
0.732	-6.120	1.542
0.735	-6.116	1.534
0.743	-6.115	1.529
0.483	-6.765	1.037
0.488	-6.772	1.042
0.488	-6.777	1.050
0.483	-6.780	1.057
0.475	-6.778	1.061
0.467	-6.773	1.061
0.462	-6.767	1.057
0.463	-6.761	1.049
0.468	-6.759	1.042
0.475	-6.760	1.037
0.238	-7.031	0.837
0.238	-7.027	0.845
0.238	-7.029	0.855
0.238	-7.035	0.861
0.238	-7.044	0.863
0.238	-7.053	0.858
0.238	-7.057	0.850
0.238	-7.055	0.841
0.238	-7.049	0.834
0.238	-7.040	0.833
0.790	-6.256	1.629
0.792	-6.249	1.634
0.791	-6.240	1.635
0.788	-6.232	1.631
0.783	-6.229	1.623
0.779	-6.232	1.615
0.777	-6.239	1.610
0.778	-6.248	1.609
0.781	-6.256	1.613
0.786	-6.259	1.621
0.020	-6.363	2.044
0.021	-6.356	2.050
0.020	-6.347	2.050
0.017	-6.339	2.046
0.013	-6.336	2.038
0.010	-6.339	2.030
0.008	-6.346	2.025
0.009	-6.355	2.024
0.012	-6.363	2.028
0.017	-6.366	2.036
-0.158	-6.374	2.113
-0.150	-6.374	2.117
-0.141	-6.374	2.115
-0.134	-6.374	2.109
-0.133	-6.374	2.100
-0.137	-6.374	2.091
-0.145	-6.374	2.087
-0.154	-6.374	2.089
-0.161	-6.374	2.095
-0.162	-6.374	2.104
0.825	-6.356	1.692
0.827	-6.351	1.699
0.827	-6.351	1.709
0.824	-6.356	1.716
0.821	-6.364	1.719
0.817	-6.372	1.716
0.815	-6.377	1.708
0.815	-6.377	1.699
0.817	-6.372	1.692
0.821	-6.364	1.689
1.579	-6.704	1.701
1.581	-6.699	1.709
1.581	-6.699	1.718
1.579	-6.704	1.725
1.575	-6.712	1.728
1.571	-6.720	1.725
1.569	-6.725	1.717
1.569	-6.725	1.708
1.572	-6.720	1.701
1.575	-6.712	1.698
0.869	-6.492	1.779
0.870	-6.483	1.779
0.866	-6.475	1.781
0.859	-6.471	1.785
0.850	-6.472	1.788
0.844	-6.479	1.790
0.843	-6.488	1.790
0.846	-6.496	1.788
0.854	-6.501	1.784
0.862	-6.499	1.781
1.199	-6.554	2.579
1.200	-6.544	2.579
1.197	-6.536	2.581
1.189	-6.532	2.584
1.181	-6.533	2.587
1.174	-6.539	2.589
1.172	-6.549	2.589
1.176	-6.557	2.586
1.183	-6.561	2.583
1.192	-6.560	2.580
1.274	-6.592	2.826
1.276	-6.583	2.827
1.273	-6.575	2.829
1.265	-6.571	2.832
1.256	-6.572	2.834
1.250	-6.578	2.835
1.247	-6.587	2.835
1.251	-6.595	2.832
1.258	-6.600	2.829
1.267	-6.599	2.827
0.903	-6.614	1.859
0.901	-6.618	1.868
0.895	-6.618	1.875
0.887	-6.613	1.878
0.881	-6.607	1.877
0.878	-6.601	1.870
0.880	-6.597	1.862
0.886	-6.598	1.855
0.893	-6.602	1.851
0.900	-6.608	1.853
0.414	-7.206	1.501
0.413	-7.210	1.509
0.408	-7.210	1.517
0.401	-7.205	1.521
0.395	-7.198	1.520
0.392	-7.192	1.514
0.393	-7.188	1.506
0.398	-7.188	1.498
0.405	-7.193	1.494
0.411	-7.200	1.495
0.323	-7.275	1.472
0.317	-7.272	1.479
0.311	-7.265	1.480
0.307	-7.257	1.477
0.307	-7.252	1.469
0.310	-7.251	1.460
0.316	-7.255	1.454
0.322	-7.262	1.452
0.326	-7.269	1.456
0.326	-7.274	1.464
0.936	-6.737	1.939
0.937	-6.728	1.939
0.933	-6.719	1.941
0.926	-6.715	1.945
0.917	-6.717	1.948
0.911	-6.724	1.951
0.910	-6.733	1.950
0.914	-6.741	1.948
0.921	-6.745	1.945
0.930	-6.743	1.941
1.285	-6.801	2.759
1.287	-6.792	2.759
1.284	-6.784	2.761
1.276	-6.780	2.764
1.267	-6.781	2.767
1.261	-6.787	2.769
1.259	-6.796	2.769
1.263	-6.805	2.768
1.270	-6.809	2.764
1.279	-6.808	2.761
1.303	-6.805	2.815
1.305	-6.796	2.815
1.302	-6.787	2.816
1.294	-6.783	2.819
1.285	-6.783	2.821
1.279	-6.789	2.823
1.276	-6.798	2.824
1.280	-6.807	2.822
1.287	-6.812	2.819
1.296	-6.811	2.817
0.955	-6.846	2.008
0.964	-6.848	2.008
0.970	-6.854	2.011
0.971	-6.861	2.017
0.967	-6.866	2.023
0.959	-6.868	2.027
0.950	-6.866	2.027
0.944	-6.860	2.024
0.942	-6.853	2.018
0.947	-6.847	2.012
0.786	-7.403	1.374
0.795	-7.406	1.373
0.802	-7.412	1.377
0.803	-7.419	1.383
0.798	-7.424	1.389
0.790	-7.426	1.393
0.781	-7.424	1.393
0.775	-7.418	1.389
0.774	-7.411	1.383
0.778	-7.405	1.377
0.191	-5.115	0.386
0.191	-5.106	0.387
0.187	-5.098	0.389
0.179	-5.095	0.393
0.172	-5.097	0.398
0.166	-5.104	0.400
0.166	-5.114	0.400
0.170	-5.121	0.397
0.177	-5.125	0.393
0.185	-5.122	0.389
0.603	-5.152	1.151
0.604	-5.142	1.151
0.600	-5.135	1.154
0.592	-5.131	1.158
0.584	-5.133	1.162
0.579	-5.140	1.164
0.578	-5.149	1.164
0.582	-5.157	1.162
0.589	-5.161	1.158
0.598	-5.159	1.154
0.843	-5.194	1.675
0.844	-5.185	1.675
0.840	-5.177	1.678
0.832	-5.173	1.682
0.824	-5.175	1.685
0.818	-5.182	1.687
0.817	-5.191	1.687
0.821	-5.199	1.685
0.828	-5.203	1.681
0.837	-5.201	1.677
0.996	-6.997	2.095
0.998	-6.990	2.100
0.997	-6.981	2.101
0.994	-6.973	2.096
0.989	-6.970	2.089
0.985	-6.973	2.081
0.983	-6.980	2.076
0.984	-6.989	2.075
0.987	-6.997	2.079
0.992	-7.000	2.087
0.276	-7.093	2.514
0.279	-7.086	2.520
0.278	-7.076	2.520
0.274	-7.069	2.516
0.270	-7.066	2.509
0.265	-7.069	2.501
0.263	-7.076	2.496
0.264	-7.085	2.495
0.268	-7.093	2.499
0.272	-7.096	2.506
1.027	-7.105	2.143
1.031	-7.101	2.150
1.033	-7.103	2.159
1.033	-7.109	2.166
1.030	-7.118	2.168
1.026	-7.125	2.165
1.022	-7.129	2.157
1.020	-7.127	2.148
1.020	-7.121	2.141
1.023	-7.112	2.139
1.784	-7.402	1.897
1.787	-7.398	1.904
1.789	-7.400	1.913
1.788	-7.406	1.920
1.785	-7.415	1.922
1.782	-7.422	1.919
1.779	-7.426	1.911
1.777	-7.425	1.902
1.778	-7.419	1.895
1.780	-7.410	1.893
1.828	-7.420	1.900
1.836	-7.416	1.900
1.845	-7.418	1.900
1.852	-7.424	1.900
1.853	-7.433	1.900
1.849	-7.442	1.900
1.841	-7.446	1.900
1.832	-7.444	1.900
1.825	-7.438	1.900
1.824	-7.429	1.900
1.072	-7.257	2.221
1.074	-7.250	2.228
1.071	-7.242	2.231
1.066	-7.235	2.229
1.059	-7.231	2.223
1.054	-7.233	2.216
1.053	-7.240	2.209
1.055	-7.248	2.206
1.061	-7.255	2.208
1.067	-7.259	2.214
0.444	-7.616	2.721
0.445	-7.610	2.727
0.442	-7.602	2.731
0.437	-7.595	2.729
0.430	-7.591	2.724
0.425	-7.593	2.716
0.424	-7.599	2.709
0.427	-7.607	2.705
0.433	-7.614	2.707
0.439	-7.618	2.713
0.286	-7.716	2.815
0.290	-7.716	2.824
0.289	-7.716	2.833
0.282	-7.716	2.839
0.273	-7.716	2.841
0.265	-7.716	2.837
0.261	-7.716	2.828
0.262	-7.716	2.819
0.269	-7.716	2.813
0.278	-7.716	2.811
1.102	-7.388	2.290
1.103	-7.381	2.297
1.101	-7.372	2.299
1.097	-7.365	2.295
1.091	-7.361	2.288
1.088	-7.364	2.280
1.086	-7.370	2.274
1.088	-7.379	2.272
1.093	-7.387	2.275
1.098	-7.390	2.282
0.539	-7.578	2.610
0.541	-7.571	2.617
0.539	-7.562	2.618
0.534	-7.555	2.615
0.529	-7.551	2.608
0.525	-7.553	2.600
0.524	-7.560	2.594
0.526	-7.569	2.592
0.530	-7.577	2.595
0.536	-7.580	2.602
1.131	-7.519	2.358
1.134	-7.511	2.363
1.134	-7.502	2.364
1.130	-7.495	2.360
1.125	-7.492	2.353
1.119	-7.494	2.346
1.116	-7.502	2.341
1.116	-7.511	2.341
1.120	-7.519	2.345
1.126	-7.522	2.351
0.465	-7.572	2.893
0.469	-7.565	2.898
0.468	-7.556	2.898
0.464	-7.548	2.895
0.459	-7.545	2.888
0.453	-7.548	2.881
0.450	-7.555	2.876
0.451	-7.564	2.876
0.454	-7.572	2.880
0.460	-7.575	2.886
1.146	-7.626	2.416
1.155	-7.624	2.412
1.163	-7.627	2.412
1.168	-7.635	2.413
1.169	-7.643	2.417
1.164	-7.649	2.422
1.155	-7.651	2.425
1.147	-7.648	2.426
1.141	-7.640	2.424
1.141	-7.632	2.420
0.972	-7.940	1.823
0.972	-7.932	1.827
0.972	-7.922	1.826
0.972	-7.916	1.819
0.972	-7.914	1.810
0.972	-7.919	1.802
0.972	-7.927	1.798
0.972	-7.936	1.799
0.972	-7.943	1.806
[...]
         <CellData>
           <DataArray type="Float32" Name="combinedRootClassID" NumberOfComponents="1" format="ascii">
 -1.300e+01 -1.300e+01 -1.300e+01 -1.300e+01 -1.300e+01 -1.300e+01 -1.300e+01 -1.300e+01 -1.300e+01 -1.300e+01 -1.300e+01 -1.300e+01 -1.300e+01 -1.300e+01 -1.300e+01 -1.300e+01 -1.300e+01 -1.300e+01 -1.300e+01 -1.300e+01 -1.300e+01 -1.300e+01 -1.300e+01 -1.300e+01 -1.300e+01 -1.300e+01 -1.300e+01 -1.300e+01 -1.300e+01 -1.300e+01 -1.300e+01 -1.300e+01 -1.300e+01 -1.300e+01 -1.300e+01 -1.300e+01 -1.300e+01 -1.300e+01 -1.300e+01 -1.300e+01 -1.300e+01 -1.300e+01 -1.300e+01 -1.300e+01 -1.300e+01 -1.300e+01 -1.300e+01 -1.300e+01 -1.300e+01 -1.300e+01 -1.300e+01 -1.300e+01 -1.300e+01 -1.300e+01 -1.300e+01 -1.300e+01 -1.300e+01 -1.300e+01 -1.300e+01 -1.300e+01 -1.300e+01 -1.300e+01 -1.300e+01 -1.300e+01 -1.300e+01 -1.300e+01 -1.300e+01 -1.300e+01 -1.300e+01 -1.300e+01 -1.300e+01 -1.300e+01 -1.300e+01 -1.300e+01 -1.300e+01 -1.300e+01 -1.300e+01 -1.300e+01 -1.300e+01 -1.300e+01 -1.300e+01 -1.300e+01 -1.300e+01 -5.000e+00 -5.000e+00 -5.000e+00 -5.000e+00 -5.000e+00 -5.000e+00 -5.000e+00 -5.000e+00 -5.000e+00 -5.000e+00 -5.000e+00 -5.000e+00 -5.000e+00 -5.000e+00 -5.000e+00 -5.000e+00 -5.000e+00 -5.000e+00 -5.000e+00 -5.000e+00 -5.000e+00 -5.000e+00 -5.000e+00 -1.300e+01 -1.300e+01 -1.300e+01 -1.300e+01 -1.300e+01 -1.300e+01 -1.300e+01 -1.300e+01 -1.300e+01 -1.300e+01 -1.300e+01 -1.300e+01 -1.300e+01 -1.300e+01 -1.300e+01 -1.300e+01 -1.300e+01 -1.300e+01 -1.300e+01 -1.300e+01 -1.300e+01 -1.300e+01 -1.300e+01 -1.300e+01 -1.300e+01 -1.300e+01 -1.300e+01 -1.300e+01 -1.300e+01 -1.300e+01 -1.300e+01 -1.300e+01 -1.300e+01 -1.300e+01 -1.300e+01 -1.300e+01 -1.300e+01 -1.300e+01 -1.300e+01 -1.300e+01 -1.300e+01 -1.300e+01 -1.300e+01 -1.300e+01 -1.300e+01 -1.300e+01 -1.300e+01 -1.300e+01 -1.300e+01 -1.300e+01 -1.300e+01 -1.300e+01 -1.300e+01 -1.300e+01 -1.300e+01 -1.300e+01 -1.300e+01 -1.300e+01 -1.300e+01 -1.300e+01 -1.300e+01 -1.300e+01 -1.300e+01 -1.300e+01 -1.300e+01 -1.300e+01 -1.300e+01 -1.300e+01 -1.300e+01 -1.300e+01 -1.300e+01 -1.300e+01 -1.300e+01 -1.300e+01 -1.300e+01 -1.300e+01 -1.300e+01 -1.300e+01 -1.300e+01 -1.300e+01 -1.300e+01 -1.300e+01 -1.300e+01 -1.300e+01 -1.300e+01 -5.000e+00 -5.000e+00 -5.000e+00 -5.000e+00 -5.000e+00 -5.000e+00 -5.000e+00 -5.000e+00 -5.000e+00 -5.000e+00 -5.000e+00 -5.000e+00 -5.000e+00 -5.000e+00 -5.000e+00 -5.000e+00 -5.000e+00 -5.000e+00 -5.000e+00 -5.000e+00 -5.000e+00 -5.000e+00 -5.000e+00 -1.300e+01 -1.300e+01 -1.300e+01 -1.300e+01 -1.300e+01 -1.300e+01 -1.300e+01 -1.300e+01 -1.300e+01 -1.300e+01 -1.300e+01 -1.300e+01 -1.300e+01 -1.300e+01 -1.300e+01 -1.300e+01 -1.300e+01 -1.300e+01 -1.300e+01 -1.300e+01 -1.300e+01 -1.300e+01 -1.300e+01 -1.300e+01 -1.300e+01 -1.300e+01 -1.300e+01 -1.300e+01 -1.300e+01 -1.300e+01 -1.300e+01 -1.300e+01 -1.300e+01 -1.300e+01 -1.300e+01 -1.300e+01 -1.300e+01 -1.300e+01 -1.300e+01 -1.300e+01 -1.300e+01 -1.300e+01 -1.300e+01 -1.300e+01 -1.300e+01 -1.300e+01 -1.300e+01 -1.300e+01 -1.300e+01 -1.300e+01 -1.300e+01 -1.300e+01 -1.300e+01 -1.300e+01 -1.300e+01 -1.300e+01 -1.300e+01 -1.300e+01 -1.300e+01 -1.300e+01 -1.300e+01 -1.300e+01 -1.300e+01 -1.300e+01 -1.300e+01 -1.300e+01 -1.300e+01 -1.300e+01 -1.300e+01 -1.300e+01 -1.300e+01 -1.300e+01 -1.300e+01 -1.300e+01 -1.300e+01 -1.300e+01 -1.300e+01 -1.300e+01 -1.300e+01 -1.300e+01 -1.300e+01 -1.300e+01 -1.300e+01 -1.300e+01 -1.300e+01 -1.300e+01 -1.300e+01 -5.000e+00 -5.000e+00 -5.000e+00 -5.000e+00 -5.000e+00 -5.000e+00 -5.000e+00 -5.000e+00 -5.000e+00 -5.000e+00 -5.000e+00 -5.000e+00 -5.000e+00 -5.000e+00 -5.000e+00 -5.000e+00 -5.000e+00 -5.000e+00 -5.000e+00 -5.000e+00 -5.000e+00 -5.000e+00 -5.000e+00 -1.300e+01 -1.300e+01 -1.300e+01 -1.300e+01 -1.300e+01 -1.300e+01 -1.300e+01 -1.300e+01 -1.300e+01 -1.300e+01 -1.300e+01 -1.300e+01 -1.300e+01 -1.300e+01 -1.300e+01 -1.300e+01 -1.300e+01 -1.300e+01 -1.300e+01 -1.300e+01 -1.300e+01 -1.300e+01 -1.300e+01 -1.300e+01 -1.300e+01 -1.300e+01 -1.300e+01 -1.300e+01 -1.300e+01 -1.300e+01 -1.300e+01 -1.300e+01 -1.300e+01 -1.300e+01 -1.300e+01 -1.300e+01 -1.300e+01 -1.300e+01 -1.300e+01 -1.300e+01 -1.300e+01 -1.300e+01 -1.300e+01 -1.300e+01 -1.300e+01 -1.300e+01 -1.300e+01 -1.300e+01 -1.300e+01 -1.300e+01 -1.300e+01 -1.300e+01 -1.300e+01 -1.300e+01 -1.300e+01 -1.300e+01 -1.300e+01 -1.300e+01 -1.300e+01 -1.300e+01 -1.300e+01 -1.300e+01 -1.300e+01 -1.300e+01 -1.300e+01 -1.300e+01 -1.300e+01 -1.300e+01 -1.300e+01 -1.300e+01 -1.300e+01 -1.300e+01 -1.300e+01 -1.300e+01 -1.300e+01 -1.300e+01 -1.300e+01 -1.300e+01 -1.300e+01 -1.300e+01 -1.300e+01 -1.300e+01 -1.300e+01 -1.300e+01 -1.300e+01 -1.300e+01 -1.300e+01 -5.000e+00 -5.000e+00 -5.000e+00 -5.000e+00 -5.000e+00 -5.000e+00 -5.000e+00 -5.000e+00 -5.000e+00 -5.000e+00 -5.000e+00 -5.000e+00 -5.000e+00 -5.000e+00 -5.000e+00 -5.000e+00 -5.000e+00 -5.000e+00 -5.000e+00 -5.000e+00 -5.000e+00 -5.000e+00 -5.000e+00 -1.100e+01 -1.100e+01 -1.100e+01 -1.100e+01 -1.100e+01 -1.100e+01 -1.100e+01 -1.100e+01 -1.100e+01 -1.100e+01 -1.100e+01 -1.100e+01 -1.100e+01 -1.100e+01 -1.100e+01 -1.100e+01 -1.100e+01 -1.100e+01 -1.100e+01 -1.100e+01 -1.100e+01 -1.100e+01 -1.100e+01 -1.100e+01 -1.100e+01 -1.100e+01 -1.100e+01 -1.100e+01 -1.100e+01 -1.100e+01 -1.100e+01 -1.100e+01 -1.100e+01 -1.100e+01 -1.100e+01 -1.100e+01 -1.100e+01 -1.100e+01 -1.100e+01 -1.100e+01 -1.100e+01 -1.100e+01 -1.100e+01 -1.100e+01 -1.100e+01 -1.100e+01 -1.100e+01 -1.100e+01 -2.000e+00 -2.000e+00 -2.000e+00 -2.000e+00 -2.000e+00 -2.000e+00 -2.000e+00 -2.000e+00 -2.000e+00 -2.000e+00 -1.700e+01 -7.000e+00 -7.000e+00 -7.000e+00 -7.000e+00 -7.000e+00 -7.000e+00 -7.000e+00 -7.000e+00 -7.000e+00 -7.000e+00 -7.000e+00 -7.000e+00 -7.000e+00 -7.000e+00 -7.000e+00 -7.000e+00 -7.000e+00 -7.000e+00 -7.000e+00 -7.000e+00 -7.000e+00 -7.000e+00 -7.000e+00 -7.000e+00 -7.000e+00 -7.000e+00 -7.000e+00 -7.000e+00 -7.000e+00 -7.000e+00 -1.700e+01 -7.000e+00 -7.000e+00 -7.000e+00 -7.000e+00 -7.000e+00 -7.000e+00 -7.000e+00 -7.000e+00 -7.000e+00 -7.000e+00 -7.000e+00 -7.000e+00 -7.000e+00 -7.000e+00 -7.000e+00 -7.000e+00 -7.000e+00 -7.000e+00 -7.000e+00 -7.000e+00 -7.000e+00 -7.000e+00 -7.000e+00 -7.000e+00 -7.000e+00 -7.000e+00 -7.000e+00 -7.000e+00 -7.000e+00 -7.000e+00 -7.000e+00 -7.000e+00 -7.000e+00 -7.000e+00 -7.000e+00 -7.000e+00 -7.000e+00 -7.000e+00 -7.000e+00 -7.000e+00 -7.000e+00 -7.000e+00 -7.000e+00 -7.000e+00 -7.000e+00 -7.000e+00 -7.000e+00 -7.000e+00 -7.000e+00 -7.000e+00 -7.000e+00 -7.000e+00 -7.000e+00 -7.000e+00 -7.000e+00 -7.000e+00 -7.000e+00 -7.000e+00 -7.000e+00 -7.000e+00 -7.000e+00 -7.000e+00 -7.000e+00 -7.000e+00 -7.000e+00 -7.000e+00 -7.000e+00 -7.000e+00 -7.000e+00 -7.000e+00 -1.700e+01 -7.000e+00 -7.000e+00 -7.000e+00 -7.000e+00 -7.000e+00 -7.000e+00 -7.000e+00 -7.000e+00 -7.000e+00 -7.000e+00 -7.000e+00 -7.000e+00 -7.000e+00 -7.000e+00 -7.000e+00 -7.000e+00 -7.000e+00 -7.000e+00 -7.000e+00 -7.000e+00 -7.000e+00 -7.000e+00 -7.000e+00 -7.000e+00 -7.000e+00 -7.000e+00 -7.000e+00 -7.000e+00 -7.000e+00 -7.000e+00 -7.000e+00 -7.000e+00 -7.000e+00 -7.000e+00 -7.000e+00 -7.000e+00 -7.000e+00 -7.000e+00 -7.000e+00 -7.000e+00 -7.000e+00 -7.000e+00 -7.000e+00 -7.000e+00 -7.000e+00 -7.000e+00 -7.000e+00 -7.000e+00 -7.000e+00 -7.000e+00 -7.000e+00 -7.000e+00 -7.000e+00 -7.000e+00 -7.000e+00 -7.000e+00 -7.000e+00 -7.000e+00 -7.000e+00 -7.000e+00 -7.000e+00 -7.000e+00 -7.000e+00 -7.000e+00 -7.000e+00 -7.000e+00 -7.000e+00 -7.000e+00 -7.000e+00 -7.000e+00 -7.000e+00 -7.000e+00 -7.000e+00 -7.000e+00 -7.000e+00 -7.000e+00 -7.000e+00 -7.000e+00 -7.000e+00 -7.000e+00 -7.000e+00 -7.000e+00 -7.000e+00 -7.000e+00 -7.000e+00 -7.000e+00 -7.000e+00 -7.000e+00 -7.000e+00 -7.000e+00 -7.000e+00 -7.000e+00 -7.000e+00 -7.000e+00 -7.000e+00 -7.000e+00 -7.000e+00 -7.000e+00 -7.000e+00 -7.000e+00 -7.000e+00 -7.000e+00 -7.000e+00 -7.000e+00 -7.000e+00 -7.000e+00 -7.000e+00 -7.000e+00 -7.000e+00 -7.000e+00 -7.000e+00 -7.000e+00 -7.000e+00 -7.000e+00 -7.000e+00 -7.000e+00 -7.000e+00 -7.000e+00 -7.000e+00 -7.000e+00 -7.000e+00 -7.000e+00 -7.000e+00 -7.000e+00 -7.000e+00 -7.000e+00 -7.000e+00 -7.000e+00 -7.000e+00 -7.000e+00 -7.000e+00 -7.000e+00 -7.000e+00 -7.000e+00 -7.000e+00 -7.000e+00 -7.000e+00 -7.000e+00 -7.000e+00 -7.000e+00 -7.000e+00 -7.000e+00 -7.000e+00 -7.000e+00 -7.000e+00 -7.000e+00 -7.000e+00 -7.000e+00 -7.000e+00 -7.000e+00 -7.000e+00 -7.000e+00 -7.000e+00 -7.000e+00 -7.000e+00 -7.000e+00 -7.000e+00 -7.000e+00 -7.000e+00 -7.000e+00 -7.000e+00 -7.000e+00 -7.000e+00 -7.000e+00 -7.000e+00 -7.000e+00 -7.000e+00 -7.000e+00 -7.000e+00 -7.000e+00 -7.000e+00 -7.000e+00 -7.000e+00 -7.000e+00 -7.000e+00 -7.000e+00 -7.000e+00 -7.000e+00 -7.000e+00 -7.000e+00 -7.000e+00 -7.000e+00 -7.000e+00 -7.000e+00 -7.000e+00 -7.000e+00 -7.000e+00 -7.000e+00 -7.000e+00 -7.000e+00 -7.000e+00 -7.000e+00 -7.000e+00 -7.000e+00 -7.000e+00 -7.000e+00 -7.000e+00 -7.000e+00 -7.000e+00 -7.000e+00 -7.000e+00 -7.000e+00 -7.000e+00 -7.000e+00 -7.000e+00 -7.000e+00 -7.000e+00 -7.000e+00 -7.000e+00 -7.000e+00 -7.000e+00 -7.000e+00 -7.000e+00 -7.000e+00 -7.000e+00 -7.000e+00 -7.000e+00 -7.000e+00 -7.000e+00 -7.000e+00 -7.000e+00 -7.000e+00 -7.000e+00 -7.000e+00 -7.000e+00 -7.000e+00 -7.000e+00 -7.000e+00 -7.000e+00 -7.000e+00 -7.000e+00 -7.000e+00 -7.000e+00 -7.000e+00 -7.000e+00 -7.000e+00 -7.000e+00 -7.000e+00 -7.000e+00 -7.000e+00 -7.000e+00 -7.000e+00 -7.000e+00 -7.000e+00 -7.000e+00 -7.000e+00 -7.000e+00 -7.000e+00 -7.000e+00 -7.000e+00 -7.000e+00 -7.000e+00 -7.000e+00 -7.000e+00 -7.000e+00 -7.000e+00 -7.000e+00 -7.000e+00 -7.000e+00 -7.000e+00 -7.000e+00 -7.000e+00 -7.000e+00 -7.000e+00 -7.000e+00 -7.000e+00 -1.700e+01 -7.000e+00 -7.000e+00 -7.000e+00 -7.000e+00 -7.000e+00 -7.000e+00 -7.000e+00 -7.000e+00 -7.000e+00 -7.000e+00 -7.000e+00 -7.000e+00 -7.000e+00 -7.000e+00 -7.000e+00 -7.000e+00 -7.000e+00 -7.000e+00 -7.000e+00 -7.000e+00 -7.000e+00 -7.000e+00 -7.000e+00 -7.000e+00 -7.000e+00 -7.000e+00 -1.500e+01 -1.500e+01 -1.500e+01 -9.000e+00 -9.000e+00 -9.000e+00 -9.000e+00 -9.000e+00 -9.000e+00 -9.000e+00 -9.000e+00 -9.000e+00 -9.000e+00 -9.000e+00 -9.000e+00 -4.000e+00 -4.000e+00 -4.000e+00 -4.000e+00 -4.000e+00 -4.000e+00 -4.000e+00 -4.000e+00 -4.000e+00 -4.000e+00 -4.000e+00 -4.000e+00 -4.000e+00 -4.000e+00 -4.000e+00 -4.000e+00 -4.000e+00 -4.000e+00 -4.000e+00 -4.000e+00 -4.000e+00 -4.000e+00 -4.000e+00 -4.000e+00 -4.000e+00 -4.000e+00 -4.000e+00 -4.000e+00 -4.000e+00 -4.000e+00 -4.000e+00 -4.000e+00 -4.000e+00
           </DataArray>
           <DataArray type="Float32" Name="nitrate/Cmin" NumberOfComponents="1" format="ascii">
 1.000e-03 1.000e-03 1.000e-03 1.000e-03 1.000e-03 1.000e-03 1.000e-03 1.000e-03 1.000e-03 1.000e-03 1.000e-03 1.000e-03 1.000e-03 1.000e-03 1.000e-03 1.000e-03 1.000e-03 1.000e-03 1.000e-03 1.000e-03 1.000e-03 1.000e-03 1.000e-03 1.000e-03 1.000e-03 1.000e-03 1.000e-03 1.000e-03 1.000e-03 1.000e-03 1.000e-03 1.000e-03 1.000e-03 1.000e-03 1.000e-03 1.000e-03 1.000e-03 1.000e-03 1.000e-03 1.000e-03 1.000e-03 1.000e-03 1.000e-03 1.000e-03 1.000e-03 1.000e-03 1.000e-03 1.000e-03 1.000e-03 1.000e-03 1.000e-03 1.000e-03 1.000e-03 1.000e-03 1.000e-03 1.000e-03 1.000e-03 1.000e-03 1.000e-03 1.000e-03 1.000e-03 1.000e-03 1.000e-03 1.000e-03 1.000e-03 1.000e-03 1.000e-03 1.000e-03 1.000e-03 1.000e-03 1.000e-03 1.000e-03 1.000e-03 1.000e-03 1.000e-03 1.000e-03 1.000e-03 1.000e-03 1.000e-03 1.000e-03 1.000e-03 1.000e-03 1.000e-03 1.000e-03 1.000e-03 1.000e-03 1.000e-03 1.000e-03 1.000e-03 1.000e-03 1.000e-03 1.000e-03 1.000e-03 1.000e-03 1.000e-03 1.000e-03 1.000e-03 1.000e-03 1.000e-03 1.000e-03 1.000e-03 1.000e-03 1.000e-03 1.000e-03 1.000e-03 1.000e-03 1.000e-03 1.000e-03 1.000e-03 1.000e-03 1.000e-03 1.000e-03 1.000e-03 1.000e-03 1.000e-03 1.000e-03 1.000e-03 1.000e-03 1.000e-03 1.000e-03 1.000e-03 1.000e-03 1.000e-03 1.000e-03 1.000e-03 1.000e-03 1.000e-03 1.000e-03 1.000e-03 1.000e-03 1.000e-03 1.000e-03 1.000e-03 1.000e-03 1.000e-03 1.000e-03 1.000e-03 1.000e-03 1.000e-03 1.000e-03 1.000e-03 1.000e-03 1.000e-03 1.000e-03 1.000e-03 1.000e-03 1.000e-03 1.000e-03 1.000e-03 1.000e-03 1.000e-03 1.000e-03 1.000e-03 1.000e-03 1.000e-03 1.000e-03 1.000e-03 1.000e-03 1.000e-03 1.000e-03 1.000e-03 1.000e-03 1.000e-03 1.000e-03 1.000e-03 1.000e-03 1.000e-03 1.000e-03 1.000e-03 1.000e-03 1.000e-03 1.000e-03 1.000e-03 1.000e-03 1.000e-03 1.000e-03 1.000e-03 1.000e-03 1.000e-03 1.000e-03 1.000e-03 1.000e-03 1.000e-03 1.000e-03 1.000e-03 1.000e-03 1.000e-03 1.000e-03 1.000e-03 1.000e-03 1.000e-03 1.000e-03 1.000e-03 1.000e-03 1.000e-03 1.000e-03 1.000e-03 1.000e-03 1.000e-03 1.000e-03 1.000e-03 1.000e-03 1.000e-03 1.000e-03 1.000e-03 1.000e-03 1.000e-03 1.000e-03 1.000e-03 1.000e-03 1.000e-03 1.000e-03 1.000e-03 1.000e-03 1.000e-03 1.000e-03 1.000e-03 1.000e-03 1.000e-03 1.000e-03 1.000e-03 1.000e-03 1.000e-03 1.000e-03 1.000e-03 1.000e-03 1.000e-03 1.000e-03 1.000e-03 1.000e-03 1.000e-03 1.000e-03 1.000e-03 1.000e-03 1.000e-03 1.000e-03 1.000e-03 1.000e-03 1.000e-03 1.000e-03 1.000e-03 1.000e-03 1.000e-03 1.000e-03 1.000e-03 1.000e-03 1.000e-03 1.000e-03 1.000e-03 1.000e-03 1.000e-03 1.000e-03 1.000e-03 1.000e-03 1.000e-03 1.000e-03 1.000e-03 1.000e-03 1.000e-03 1.000e-03 1.000e-03 1.000e-03 1.000e-03 1.000e-03 1.000e-03 1.000e-03 1.000e-03 1.000e-03 1.000e-03 1.000e-03 1.000e-03 1.000e-03 1.000e-03 1.000e-03 1.000e-03 1.000e-03 1.000e-03 1.000e-03 1.000e-03 1.000e-03 1.000e-03 1.000e-03 1.000e-03 1.000e-03 1.000e-03 1.000e-03 1.000e-03 1.000e-03 1.000e-03 1.000e-03 1.000e-03 1.000e-03 1.000e-03 1.000e-03 1.000e-03 1.000e-03 1.000e-03 1.000e-03 1.000e-03 1.000e-03 1.000e-03 1.000e-03 1.000e-03 1.000e-03 1.000e-03 1.000e-03 1.000e-03 1.000e-03 1.000e-03 1.000e-03 1.000e-03 1.000e-03 1.000e-03 1.000e-03 1.000e-03 1.000e-03 1.000e-03 1.000e-03 1.000e-03 1.000e-03 1.000e-03 1.000e-03 1.000e-03 1.000e-03 1.000e-03 1.000e-03 1.000e-03 1.000e-03 1.000e-03 1.000e-03 1.000e-03 1.000e-03 1.000e-03 1.000e-03 1.000e-03 1.000e-03 1.000e-03 1.000e-03 1.000e-03 1.000e-03 1.000e-03 1.000e-03 1.000e-03 1.000e-03 1.000e-03 1.000e-03 1.000e-03 1.000e-03 1.000e-03 1.000e-03 1.000e-03 1.000e-03 1.000e-03 1.000e-03 1.000e-03 1.000e-03 1.000e-03 1.000e-03 1.000e-03 1.000e-03 1.000e-03 1.000e-03 1.000e-03 1.000e-03 1.000e-03 1.000e-03 1.000e-03 1.000e-03 1.000e-03 1.000e-03 1.000e-03 1.000e-03 1.000e-03 1.000e-03 1.000e-03 1.000e-03 1.000e-03 1.000e-03 1.000e-03 1.000e-03 1.000e-03 1.000e-03 1.000e-03 1.000e-03 1.000e-03 1.000e-03 1.000e-03 1.000e-03 1.000e-03 1.000e-03 1.000e-03 1.000e-03 1.000e-03 1.000e-03 1.000e-03 1.000e-03 1.000e-03 1.000e-03 1.000e-03 1.000e-03 1.000e-03 1.000e-03 1.000e-03 1.000e-03 1.000e-03 1.000e-03 1.000e-03 1.000e-03 1.000e-03 1.000e-03 1.000e-03 1.000e-03 1.000e-03 1.000e-03 1.000e-03 1.000e-03 1.000e-03 1.000e-03 1.000e-03 1.000e-03 1.000e-03 1.000e-03 1.000e-03 1.000e-03 1.000e-03 1.000e-03 1.000e-03 1.000e-03 1.000e-03 1.000e-03 1.000e-03 1.000e-03 1.000e-03 1.000e-03 1.000e-03 1.000e-03 1.000e-03 1.000e-03 1.000e-03 1.000e-03 1.000e-03 1.000e-03 1.000e-03 1.000e-03 1.000e-03 1.000e-03 1.000e-03 1.000e-03 1.000e-03 1.000e-03 1.000e-03 1.000e-03 1.000e-03 1.000e-03 1.000e-03 1.000e-03 1.000e-03 1.000e-03 1.000e-03 1.000e-03 1.000e-03 1.000e-03 1.000e-03 1.000e-03 1.000e-03 1.000e-03 1.000e-03 1.000e-03 1.000e-03 1.000e-03 1.000e-03 1.000e-03 1.000e-03 1.000e-03 1.000e-03 1.000e-03 1.000e-03 1.000e-03 1.000e-03 1.000e-03 1.000e-03 1.000e-03 1.000e-03 1.000e-03 1.000e-03 1.000e-03 1.000e-03 1.000e-03 1.000e-03 1.000e-03 1.000e-03 1.000e-03 1.000e-03 1.000e-03 1.000e-03 1.000e-03 1.000e-03 1.000e-03 1.000e-03 1.000e-03 1.000e-03 1.000e-03 1.000e-03 1.000e-03 1.000e-03 1.000e-03 1.000e-03 1.000e-03 1.000e-03 1.000e-03 1.000e-03 1.000e-03 1.000e-03 1.000e-03 1.000e-03 1.000e-03 1.000e-03 1.000e-03 1.000e-03 1.000e-03 1.000e-03 1.000e-03 1.000e-03 1.000e-03 1.000e-03 1.000e-03 1.000e-03 1.000e-03 1.000e-03 1.000e-03 1.000e-03 1.000e-03 1.000e-03 1.000e-03 1.000e-03 1.000e-03 1.000e-03 1.000e-03 1.000e-03 1.000e-03 1.000e-03 1.000e-03 1.000e-03 1.000e-03 1.000e-03 1.000e-03 1.000e-03 1.000e-03 1.000e-03 1.000e-03 1.000e-03 1.000e-03 1.000e-03 1.000e-03 1.000e-03 1.000e-03 1.000e-03 1.000e-03 1.000e-03 1.000e-03 1.000e-03 1.000e-03 1.000e-03 1.000e-03 1.000e-03 1.000e-03 1.000e-03 1.000e-03 1.000e-03 1.000e-03 1.000e-03 1.000e-03 1.000e-03 1.000e-03 1.000e-03 1.000e-03 1.000e-03 1.000e-03 1.000e-03 1.000e-03 1.000e-03 1.000e-03 1.000e-03 1.000e-03 1.000e-03 1.000e-03 1.000e-03 1.000e-03 1.000e-03 1.000e-03 1.000e-03 1.000e-03 1.000e-03 1.000e-03 1.000e-03 1.000e-03 1.000e-03 1.000e-03 1.000e-03 1.000e-03 1.000e-03 1.000e-03 1.000e-03 1.000e-03 1.000e-03 1.000e-03 1.000e-03 1.000e-03 1.000e-03 1.000e-03 1.000e-03 1.000e-03 1.000e-03 1.000e-03 1.000e-03 1.000e-03 1.000e-03 1.000e-03 1.000e-03 1.000e-03 1.000e-03 1.000e-03 1.000e-03 1.000e-03 1.000e-03 1.000e-03 1.000e-03 1.000e-03 1.000e-03 1.000e-03 1.000e-03 1.000e-03 1.000e-03 1.000e-03 1.000e-03 1.000e-03 1.000e-03 1.000e-03 1.000e-03 1.000e-03 1.000e-03 1.000e-03 1.000e-03 1.000e-03 1.000e-03 1.000e-03 1.000e-03 1.000e-03 1.000e-03 1.000e-03 1.000e-03 1.000e-03 1.000e-03 1.000e-03 1.000e-03 1.000e-03 1.000e-03 1.000e-03 1.000e-03 1.000e-03 1.000e-03 1.000e-03 1.000e-03 1.000e-03 1.000e-03 1.000e-03 1.000e-03 1.000e-03 1.000e-03 1.000e-03 1.000e-03 1.000e-03 1.000e-03 1.000e-03 1.000e-03 1.000e-03 1.000e-03 1.000e-03 1.000e-03 1.000e-03 1.000e-03 1.000e-03 1.000e-03 1.000e-03 1.000e-03 1.000e-03 1.000e-03 1.000e-03 1.000e-03 1.000e-03 1.000e-03 1.000e-03 1.000e-03 1.000e-03 1.000e-03 1.000e-03 1.000e-03 1.000e-03 1.000e-03 1.000e-03 1.000e-03 1.000e-03 1.000e-03 1.000e-03 1.000e-03 1.000e-03 1.000e-03 1.000e-03 1.000e-03 1.000e-03 1.000e-03 1.000e-03 1.000e-03 1.000e-03 1.000e-03 1.000e-03 1.000e-03 1.000e-03 1.000e-03 1.000e-03 1.000e-03 1.000e-03 1.000e-03 1.000e-03 1.000e-03 1.000e-03 1.000e-03 1.000e-03 1.000e-03 1.000e-03 1.000e-03 1.000e-03 1.000e-03 1.000e-03 1.000e-03 1.000e-03 1.000e-03 1.000e-03 1.000e-03 1.000e-03 1.000e-03 1.000e-03 1.000e-03 1.000e-03 1.000e-03 1.000e-03 1.000e-03 1.000e-03 1.000e-03 1.000e-03 1.000e-03 1.000e-03 1.000e-03 1.000e-03 1.000e-03 1.000e-03 1.000e-03 1.000e-03 1.000e-03 1.000e-03 1.000e-03 1.000e-03 1.000e-03 1.000e-03 1.000e-03 1.000e-03 1.000e-03 1.000e-03 1.000e-03 1.000e-03 1.000e-03 1.000e-03 1.000e-03 1.000e-03 1.000e-03 1.000e-03 1.000e-03 1.000e-03 1.000e-03 1.000e-03 1.000e-03 1.000e-03 1.000e-03 1.000e-03 1.000e-03 1.000e-03 1.000e-03 1.000e-03 1.000e-03 1.000e-03 1.000e-03 1.000e-03 1.000e-03 1.000e-03 1.000e-03 1.000e-03 1.000e-03 1.000e-03 1.000e-03 1.000e-03 1.000e-03 1.000e-03 1.000e-03 1.000e-03 1.000e-03 1.000e-03 1.000e-03 1.000e-03 1.000e-03 1.000e-03 1.000e-03 1.000e-03 1.000e-03 1.000e-03 1.000e-03 1.000e-03 1.000e-03 1.000e-03 1.000e-03 1.000e-03 1.000e-03 1.000e-03 1.000e-03 1.000e-03 1.000e-03 1.000e-03 1.000e-03 1.000e-03 1.000e-03 1.000e-03 1.000e-03 1.000e-03 1.000e-03 1.000e-03 1.000e-03 1.000e-03 1.000e-03 1.000e-03 1.000e-03 1.000e-03 1.000e-03 1.000e-03 1.000e-03 1.000e-03 1.000e-03 1.000e-03 1.000e-03 1.000e-03 1.000e-03 1.000e-03 1.000e-03 1.000e-03 1.000e-03 1.000e-03 1.000e-03 1.000e-03 1.000e-03 1.000e-03 1.000e-03 1.000e-03 1.000e-03 1.000e-03 1.000e-03 1.000e-03 1.000e-03 1.000e-03 1.000e-03 1.000e-03 1.000e-03 1.000e-03 1.000e-03 1.000e-03 1.000e-03 1.000e-03 1.000e-03 1.000e-03 1.000e-03 1.000e-03 1.000e-03 1.000e-03 1.000e-03 1.000e-03 1.000e-03 1.000e-03 1.000e-03 1.000e-03 1.000e-03 1.000e-03 1.000e-03 1.000e-03 1.000e-03 1.000e-03 1.000e-03 1.000e-03 1.000e-03 1.000e-03 1.000e-03 1.000e-03 1.000e-03 1.000e-03 1.000e-03 1.000e-03 1.000e-03 1.000e-03 1.000e-03 1.000e-03 1.000e-03 1.000e-03 1.000e-03 1.000e-03 1.000e-03 1.000e-03 1.000e-03 1.000e-03 1.000e-03 1.000e-03 1.000e-03 1.000e-03 1.000e-03 1.000e-03 1.000e-03 1.000e-03 1.000e-03 1.000e-03 1.000e-03 1.000e-03 1.000e-03 1.000e-03 1.000e-03 1.000e-03 1.000e-03 1.000e-03 1.000e-03 1.000e-03 1.000e-03 1.000e-03
           </DataArray>