<?xml version="1.0"?>
<VTKFile type="UnstructuredGrid" version="0.1" byte_order="LittleEndian">
   <UnstructuredGrid>
      <Piece NumberOfPoints="73890" NumberOfCells="5461">
         <Points>
            <DataArray type="Float32" Name="Position" NumberOfComponents="3" format="ascii">
0.067	-5.026	0.141
0.070	-5.018	0.146
0.069	-5.009	0.147
0.065	-5.002	0.143
0.059	-4.999	0.137
0.053	-5.001	0.130
0.050	-5.009	0.125
0.051	-5.018	0.124
0.055	-5.025	0.128
0.061	-5.028	0.134
-0.568	-5.132	0.690
-0.565	-5.125	0.695
-0.566	-5.115	0.696
-0.570	-5.108	0.693
-0.576	-5.105	0.687
-0.582	-5.107	0.680
-0.585	-5.115	0.675
-0.584	-5.124	0.674
-0.580	-5.131	0.677
-0.574	-5.134	0.683
-1.209	-5.279	1.287
-1.206	-5.272	1.292
-1.207	-5.263	1.293
-1.211	-5.255	1.290
-1.217	-5.252	1.284
-1.223	-5.255	1.277
-1.226	-5.262	1.272
-1.226	-5.271	1.271
-1.221	-5.279	1.274
-1.215	-5.282	1.281
-1.857	-5.350	1.887
-1.855	-5.343	1.892
-1.856	-5.334	1.894
-1.860	-5.326	1.890
-1.866	-5.323	1.883
-1.871	-5.326	1.876
-1.873	-5.333	1.871
-1.872	-5.342	1.870
-1.868	-5.350	1.873
-1.862	-5.353	1.880
-2.589	-5.553	2.327
-2.589	-5.546	2.334
-2.592	-5.538	2.336
-2.596	-5.530	2.333
-2.601	-5.527	2.326
-2.604	-5.528	2.318
-2.604	-5.535	2.311
-2.602	-5.543	2.309
-2.597	-5.551	2.312
-2.592	-5.555	2.319
-2.598	-5.558	2.329
-2.599	-5.553	2.337
-2.603	-5.545	2.340
-2.608	-5.537	2.337
-2.612	-5.533	2.330
-2.614	-5.534	2.321
-2.613	-5.539	2.314
-2.609	-5.547	2.310
-2.605	-5.555	2.313
-2.600	-5.559	2.320
0.131	-5.064	0.261
0.133	-5.054	0.262
0.129	-5.046	0.264
0.121	-5.042	0.267
0.113	-5.044	0.271
0.106	-5.050	0.272
0.105	-5.059	0.271
0.108	-5.067	0.269
0.116	-5.072	0.265
0.124	-5.070	0.262
0.425	-5.177	1.048
0.428	-5.169	1.050
0.424	-5.160	1.052
0.417	-5.156	1.055
0.408	-5.157	1.057
0.401	-5.163	1.058
0.399	-5.172	1.056
0.402	-5.180	1.054
0.409	-5.184	1.051
0.418	-5.183	1.049
0.546	-5.429	1.853
0.549	-5.420	1.855
0.546	-5.412	1.858
0.539	-5.407	1.860
0.529	-5.407	1.861
0.522	-5.413	1.861
0.519	-5.422	1.859
0.522	-5.430	1.856
0.529	-5.435	1.854
0.539	-5.435	1.853
0.673	-5.621	2.697
0.676	-5.612	2.698
0.674	-5.603	2.700
0.667	-5.598	2.702
0.657	-5.597	2.702
0.650	-5.602	2.702
0.646	-5.611	2.701
0.649	-5.620	2.699
0.656	-5.625	2.698
0.665	-5.626	2.697
0.657	-5.691	3.281
0.657	-5.682	3.285
0.657	-5.673	3.283
0.657	-5.667	3.277
0.657	-5.665	3.268
0.657	-5.669	3.259
0.657	-5.678	3.255
0.657	-5.687	3.257
0.657	-5.693	3.263
0.657	-5.695	3.272
0.619	-5.801	1.278
0.622	-5.793	1.283
0.621	-5.784	1.284
0.616	-5.777	1.281
0.609	-5.774	1.275
0.603	-5.777	1.269
0.600	-5.784	1.264
0.601	-5.793	1.263
0.606	-5.800	1.265
0.613	-5.803	1.271
0.020	-5.942	1.882
0.023	-5.935	1.886
0.023	-5.926	1.887
0.018	-5.918	1.884
0.012	-5.915	1.878
0.006	-5.918	1.872
0.002	-5.925	1.867
0.003	-5.935	1.867
0.007	-5.942	1.870
0.014	-5.945	1.876
-0.592	-5.973	2.531
-0.588	-5.965	2.535
-0.588	-5.956	2.536
-0.592	-5.949	2.532
-0.598	-5.946	2.526
-0.605	-5.948	2.520
-0.608	-5.956	2.516
-0.608	-5.965	2.515
-0.604	-5.973	2.519
-0.598	-5.976	2.525
-1.236	-6.019	3.142
-1.233	-6.012	3.147
-1.234	-6.003	3.148
-1.238	-5.995	3.145
-1.245	-5.992	3.139
-1.251	-5.995	3.132
-1.254	-6.002	3.128
-1.253	-6.011	3.127
-1.248	-6.019	3.130
-1.242	-6.022	3.136
-1.819	-6.230	3.705
-1.816	-6.223	3.710
-1.818	-6.214	3.712
-1.823	-6.207	3.710
-1.829	-6.204	3.704
-1.835	-6.206	3.697
-1.838	-6.213	3.692
-1.836	-6.222	3.690
-1.831	-6.230	3.692
-1.825	-6.233	3.698
1.833	-18.363	5.477
1.842	-18.362	5.477
1.849	-18.366	5.480
1.853	-18.374	5.485
1.850	-18.382	5.489
1.843	-18.387	5.491
1.834	-18.388	5.491
1.826	-18.383	5.488
1.823	-18.376	5.484
1.825	-18.368	5.480
1.877	-18.770	4.740
1.886	-18.769	4.742
1.893	-18.773	4.746
1.896	-18.781	4.751
1.892	-18.788	4.755
1.885	-18.794	4.756
1.876	-18.794	4.755
1.869	-18.790	4.750
1.866	-18.783	4.745
1.869	-18.775	4.741
2.172	-19.208	4.064
2.180	-19.206	4.068
2.186	-19.210	4.074
2.187	-19.217	4.080
2.184	-19.225	4.083
2.176	-19.231	4.082
2.168	-19.232	4.078
2.162	-19.228	4.072
2.161	-19.221	4.066
2.165	-19.213	4.063
2.655	-19.636	3.499
2.663	-19.634	3.504
2.668	-19.638	3.511
2.669	-19.645	3.517
2.665	-19.653	3.520
2.658	-19.659	3.519
2.651	-19.660	3.514
2.645	-19.657	3.507
2.645	-19.650	3.501
2.648	-19.642	3.498
1.843	-18.535	5.505
1.848	-18.527	5.507
1.847	-18.518	5.508
1.841	-18.511	5.507
1.832	-18.509	5.505
1.824	-18.512	5.501
1.820	-18.520	5.499
1.821	-18.529	5.498
1.827	-18.536	5.499
1.835	-18.538	5.502
1.545	-18.651	6.331
1.550	-18.643	6.334
1.548	-18.634	6.335
1.543	-18.627	6.334
1.534	-18.625	6.331
1.526	-18.628	6.328
1.522	-18.636	6.325
1.523	-18.645	6.324
1.529	-18.652	6.325
1.537	-18.654	6.328
1.227	-18.781	7.116
1.231	-18.773	7.120
1.229	-18.764	7.122
1.222	-18.758	7.122
1.213	-18.756	7.120
1.206	-18.760	7.116
1.202	-18.767	7.113
1.204	-18.776	7.110
1.210	-18.783	7.110
1.219	-18.784	7.112
1.149	-18.968	7.490
1.153	-18.960	7.495
1.150	-18.952	7.498
1.143	-18.946	7.500
1.134	-18.945	7.498
1.126	-18.949	7.495
1.123	-18.957	7.490
1.125	-18.965	7.487
1.133	-18.970	7.485
1.142	-18.972	7.487
1.835	-18.666	5.510
1.835	-18.659	5.516
1.833	-18.658	5.525
1.829	-18.662	5.533
1.826	-18.670	5.536
1.824	-18.679	5.534
1.825	-18.685	5.527
1.827	-18.687	5.518
1.831	-18.683	5.511
1.834	-18.675	5.507
2.653	-18.884	5.768
2.652	-18.877	5.774
2.650	-18.875	5.783
2.646	-18.879	5.790
2.642	-18.887	5.794
2.641	-18.896	5.792
2.641	-18.903	5.786
2.644	-18.904	5.777
2.648	-18.901	5.769
2.651	-18.893	5.766
3.434	-19.101	6.106
3.434	-19.094	6.112
3.431	-19.092	6.121
3.427	-19.096	6.128
3.423	-19.103	6.132
3.421	-19.112	6.130
3.422	-19.119	6.124
3.425	-19.121	6.115
3.429	-19.117	6.108
3.432	-19.110	6.104
3.833	-19.222	6.244
3.832	-19.215	6.250
3.830	-19.214	6.259
3.826	-19.218	6.267
3.822	-19.225	6.270
3.820	-19.234	6.268
3.821	-19.241	6.261
3.823	-19.242	6.253
3.827	-19.239	6.245
3.831	-19.231	6.242
1.832	-18.815	5.525
1.832	-18.809	5.532
1.829	-18.807	5.541
1.826	-18.811	5.549
1.823	-18.819	5.552
1.821	-18.828	5.550
1.821	-18.834	5.543
1.824	-18.836	5.534
1.827	-18.832	5.527
1.831	-18.824	5.523
2.621	-19.031	5.784
2.620	-19.025	5.791
2.618	-19.024	5.800
2.615	-19.029	5.807
2.612	-19.037	5.811
2.611	-19.046	5.808
2.612	-19.052	5.802
2.614	-19.053	5.793
2.617	-19.049	5.785
2.620	-19.040	5.782
3.325	-19.126	5.968
3.324	-19.120	5.975
3.322	-19.120	5.984
3.319	-19.125	5.991
3.317	-19.133	5.994
3.317	-19.142	5.992
3.318	-19.148	5.985
3.320	-19.149	5.976
3.323	-19.144	5.968
3.324	-19.135	5.965
1.835	-18.980	5.551
1.838	-18.972	5.554
1.836	-18.963	5.556
1.829	-18.957	5.557
1.820	-18.957	5.557
1.812	-18.961	5.555
1.809	-18.969	5.552
1.811	-18.978	5.550
1.818	-18.984	5.549
1.827	-18.985	5.549
1.769	-19.222	6.361
1.772	-19.214	6.364
1.769	-19.205	6.366
1.762	-19.200	6.368
1.753	-19.200	6.369
1.745	-19.205	6.367
1.742	-19.213	6.365
1.744	-19.221	6.362
1.752	-19.227	6.360
1.761	-19.227	6.360
1.880	-19.501	7.129
1.883	-19.492	7.130
1.880	-19.484	7.133
1.873	-19.479	7.135
1.864	-19.479	7.136
1.856	-19.484	7.136
1.853	-19.493	7.135
1.856	-19.501	7.132
1.863	-19.507	7.130
1.873	-19.506	7.129
1.982	-19.566	7.814
1.985	-19.557	7.814
1.983	-19.548	7.815
1.976	-19.543	7.817
1.966	-19.543	7.818
1.959	-19.548	7.819
1.956	-19.557	7.819
1.958	-19.565	7.817
1.965	-19.571	7.816
1.974	-19.571	7.814
1.822	-19.131	5.578
1.819	-19.124	5.583
1.817	-19.115	5.582
1.816	-19.108	5.576
1.817	-19.105	5.567
1.819	-19.109	5.558
1.822	-19.116	5.554
1.825	-19.125	5.555
1.826	-19.132	5.561
1.825	-19.134	5.569
0.986	-19.388	5.416
0.983	-19.380	5.419
0.982	-19.371	5.416
0.983	-19.365	5.409
0.986	-19.365	5.400
0.990	-19.369	5.393
0.993	-19.378	5.390
0.994	-19.386	5.393
0.993	-19.392	5.400
0.990	-19.393	5.409
0.203	-19.508	5.013
0.199	-19.501	5.017
0.198	-19.492	5.017
0.200	-19.484	5.012
0.205	-19.481	5.004
0.210	-19.484	4.997
0.214	-19.491	4.993
0.215	-19.500	4.993
0.213	-19.508	4.998
0.208	-19.511	5.005
0.111	-19.509	4.947
0.111	-19.500	4.945
0.115	-19.494	4.940
0.120	-19.492	4.933
0.126	-19.496	4.926
0.129	-19.504	4.924
0.129	-19.513	4.925
0.125	-19.520	4.931
0.120	-19.522	4.938
0.114	-19.518	4.944
1.822	-19.260	5.572
1.823	-19.255	5.579
1.823	-19.255	5.589
1.822	-19.261	5.596
1.820	-19.270	5.598
1.818	-19.279	5.594
1.817	-19.283	5.587
1.818	-19.283	5.577
1.819	-19.277	5.570
1.821	-19.268	5.568
2.672	-19.430	5.574
2.673	-19.425	5.582
2.673	-19.426	5.592
2.672	-19.432	5.599
2.670	-19.441	5.601
2.669	-19.449	5.597
2.668	-19.454	5.589
2.668	-19.453	5.580
2.669	-19.447	5.573
2.670	-19.438	5.571
3.549	-19.582	5.562
3.550	-19.578	5.570
3.550	-19.578	5.580
3.548	-19.584	5.587
3.547	-19.593	5.589
3.545	-19.602	5.585
3.545	-19.606	5.577
3.545	-19.606	5.568
3.546	-19.600	5.561
3.548	-19.591	5.559
3.660	-19.602	5.569
3.660	-19.597	5.576
3.659	-19.597	5.586
3.658	-19.603	5.593
3.656	-19.612	5.595
3.655	-19.620	5.592
3.655	-19.625	5.584
3.655	-19.625	5.575
3.657	-19.619	5.568
3.658	-19.610	5.565
1.832	-19.427	5.594
1.835	-19.418	5.597
1.832	-19.410	5.599
1.825	-19.405	5.601
1.816	-19.405	5.602
1.808	-19.410	5.601
1.805	-19.418	5.599
1.808	-19.427	5.596
1.815	-19.432	5.594
1.824	-19.432	5.594
1.900	-19.669	6.435
1.903	-19.661	6.438
1.901	-19.653	6.440
1.893	-19.647	6.442
1.884	-19.646	6.442
1.876	-19.651	6.440
1.873	-19.659	6.438
1.875	-19.668	6.435
1.883	-19.674	6.434
1.892	-19.674	6.434
1.808	-19.906	7.261
1.811	-19.898	7.265
1.809	-19.890	7.267
1.802	-19.884	7.269
1.793	-19.883	7.268
1.785	-19.887	7.265
1.781	-19.895	7.262
1.784	-19.904	7.259
1.791	-19.910	7.258
1.800	-19.911	7.259
1.779	-19.972	7.419
1.783	-19.965	7.423
1.780	-19.956	7.426
1.773	-19.950	7.427
1.764	-19.949	7.426
1.756	-19.953	7.423
1.753	-19.961	7.419
1.755	-19.970	7.416
1.763	-19.975	7.415
1.772	-19.977	7.416
1.825	-19.580	5.622
1.824	-19.573	5.628
1.822	-19.564	5.629
1.819	-19.556	5.624
1.817	-19.553	5.615
1.816	-19.555	5.607
1.817	-19.562	5.600
1.819	-19.571	5.600
1.822	-19.579	5.604
1.824	-19.582	5.613
1.022	-19.805	5.752
1.021	-19.798	5.759
1.017	-19.790	5.760
1.014	-19.782	5.756
1.011	-19.779	5.748
1.010	-19.780	5.739
1.012	-19.786	5.733
1.015	-19.795	5.731
1.019	-19.803	5.735
[...]
         <CellData>
           <DataArray type="Float32" Name="combinedRootClassID" NumberOfComponents="1" format="ascii">
 -1.300e+01 -1.300e+01 -1.300e+01 -1.300e+01 -1.300e+01 -1.300e+01 -1.300e+01 -1.300e+01 -1.300e+01 -1.300e+01 -1.300e+01 -1.300e+01 -1.300e+01 -1.300e+01 -1.300e+01 -1.300e+01 -1.300e+01 -1.300e+01 -1.300e+01 -1.300e+01 -1.300e+01 -1.300e+01 -1.300e+01 -1.300e+01 -1.300e+01 -1.300e+01 -1.300e+01 -1.300e+01 -1.300e+01 -1.300e+01 -1.300e+01 -1.300e+01 -1.300e+01 -1.300e+01 -1.300e+01 -1.300e+01 -1.300e+01 -1.300e+01 -1.300e+01 -1.300e+01 -1.300e+01 -1.300e+01 -1.300e+01 -1.300e+01 -1.300e+01 -1.300e+01 -1.300e+01 -1.300e+01 -1.300e+01 -1.300e+01 -1.300e+01 -1.300e+01 -1.300e+01 -1.300e+01 -1.300e+01 -1.300e+01 -1.300e+01 -1.300e+01 -1.300e+01 -1.300e+01 -1.300e+01 -1.300e+01 -1.300e+01 -1.300e+01 -1.300e+01 -1.300e+01 -1.300e+01 -1.300e+01 -1.300e+01 -1.300e+01 -1.300e+01 -1.300e+01 -1.300e+01 -1.300e+01 -1.300e+01 -1.300e+01 -1.300e+01 -1.300e+01 -1.300e+01 -1.300e+01 -1.300e+01 -1.300e+01 -1.300e+01 -1.300e+01 -1.300e+01 -1.300e+01 -1.300e+01 -1.300e+01 -1.300e+01 -1.300e+01 -1.300e+01 -1.300e+01 -1.300e+01 -1.300e+01 -1.300e+01 -1.300e+01 -1.300e+01 -1.300e+01 -1.300e+01 -1.300e+01 -1.300e+01 -1.300e+01 -1.300e+01 -1.300e+01 -1.300e+01 -1.300e+01 -1.300e+01 -1.300e+01 -1.300e+01 -1.300e+01 -1.300e+01 -1.300e+01 -1.300e+01 -1.300e+01 -1.300e+01 -1.300e+01 -1.300e+01 -1.300e+01 -1.300e+01 -1.300e+01 -1.300e+01 -1.300e+01 -1.300e+01 -1.300e+01 -1.300e+01 -1.300e+01 -1.300e+01 -1.300e+01 -1.300e+01 -1.300e+01 -1.300e+01 -1.300e+01 -1.300e+01 -1.300e+01 -1.300e+01 -1.300e+01 -1.300e+01 -1.300e+01 -1.300e+01 -1.300e+01 -1.300e+01 -1.300e+01 -1.300e+01 -1.300e+01 -1.300e+01 -1.300e+01 -1.300e+01 -1.300e+01 -1.300e+01 -1.300e+01 -1.300e+01 -1.300e+01 -1.300e+01 -1.300e+01 -1.300e+01 -1.300e+01 -1.300e+01 -1.300e+01 -1.300e+01 -1.300e+01 -1.300e+01 -1.300e+01 -1.300e+01 -1.300e+01 -1.300e+01 -1.300e+01 -1.300e+01 -1.300e+01 -1.300e+01 -1.300e+01 -1.300e+01 -1.300e+01 -1.300e+01 -1.300e+01 -1.300e+01 -1.300e+01 -1.300e+01 -1.300e+01 -1.300e+01 -1.300e+01 -1.300e+01 -1.300e+01 -1.300e+01 -1.300e+01 -1.300e+01 -1.300e+01 -1.300e+01 -1.300e+01 -1.300e+01 -1.300e+01 -1.300e+01 -1.300e+01 -1.300e+01 -1.300e+01 -1.300e+01 -1.300e+01 -1.300e+01 -1.300e+01 -1.300e+01 -1.300e+01 -1.300e+01 -1.300e+01 -1.300e+01 -1.300e+01 -1.300e+01 -1.300e+01 -1.300e+01 -1.300e+01 -1.300e+01 -1.300e+01 -1.300e+01 -1.300e+01 -1.300e+01 -1.300e+01 -1.300e+01 -1.300e+01 -1.300e+01 -1.300e+01 -1.300e+01 -1.300e+01 -1.300e+01 -1.300e+01 -1.300e+01 -1.300e+01 -1.300e+01 -1.300e+01 -1.300e+01 -1.300e+01 -1.300e+01 -1.300e+01 -1.300e+01 -1.300e+01 -1.300e+01 -1.300e+01 -1.300e+01 -1.300e+01 -1.300e+01 -1.300e+01 -1.300e+01 -1.300e+01 -1.300e+01 -1.300e+01 -1.300e+01 -1.300e+01 -1.300e+01 -1.300e+01 -1.300e+01 -1.300e+01 -1.300e+01 -1.300e+01 -1.300e+01 -1.300e+01 -1.300e+01 -1.300e+01 -1.300e+01 -1.300e+01 -1.300e+01 -1.300e+01 -1.300e+01 -1.300e+01 -1.300e+01 -1.300e+01 -1.300e+01 -1.300e+01 -1.300e+01 -1.300e+01 -1.300e+01 -1.300e+01 -1.300e+01 -1.300e+01 -1.300e+01 -1.300e+01 -1.300e+01 -1.300e+01 -1.300e+01 -1.300e+01 -1.300e+01 -1.300e+01 -1.300e+01 -1.300e+01 -1.300e+01 -1.300e+01 -1.300e+01 -1.300e+01 -1.300e+01 -1.300e+01 -1.300e+01 -1.300e+01 -1.300e+01 -1.300e+01 -1.300e+01 -1.300e+01 -1.300e+01 -1.300e+01 -1.300e+01 -1.300e+01 -1.300e+01 -1.300e+01 -1.300e+01 -1.300e+01 -1.300e+01 -1.300e+01 -1.300e+01 -1.300e+01 -1.300e+01 -1.300e+01 -1.300e+01 -1.300e+01 -1.300e+01 -1.300e+01 -1.300e+01 -1.300e+01 -1.300e+01 -1.300e+01 -1.300e+01 -1.300e+01 -1.300e+01 -1.300e+01 -1.300e+01 -1.300e+01 -1.300e+01 -1.300e+01 -1.300e+01 -1.300e+01 -1.300e+01 -1.300e+01 -1.300e+01 -1.300e+01 -1.300e+01 -1.300e+01 -1.300e+01 -1.300e+01 -1.300e+01 -1.300e+01 -1.300e+01 -1.300e+01 -1.300e+01 -1.300e+01 -1.300e+01 -1.300e+01 -1.300e+01 -1.300e+01 -1.300e+01 -1.300e+01 -1.300e+01 -1.300e+01 -1.300e+01 -1.300e+01 -1.300e+01 -1.300e+01 -1.300e+01 -1.300e+01 -1.300e+01 -1.300e+01 -1.300e+01 -1.300e+01 -1.300e+01 -1.300e+01 -1.300e+01 -1.300e+01 -1.300e+01 -1.300e+01 -1.300e+01 -1.300e+01 -1.300e+01 -1.300e+01 -1.300e+01 -1.300e+01 -1.300e+01 -1.300e+01 -1.300e+01 -1.300e+01 -1.300e+01 -1.300e+01 -1.300e+01 -1.300e+01 -1.300e+01 -1.300e+01 -1.300e+01 -1.300e+01 -1.300e+01 -1.300e+01 -1.300e+01 -1.300e+01 -1.300e+01 -1.300e+01 -1.300e+01 -1.300e+01 -1.300e+01 -1.300e+01 -1.300e+01 -1.300e+01 -1.300e+01 -1.300e+01 -1.300e+01 -1.300e+01 -1.300e+01 -1.300e+01 -1.300e+01 -1.300e+01 -1.300e+01 -1.300e+01 -1.300e+01 -1.300e+01 -1.300e+01 -1.300e+01 -1.300e+01 -1.300e+01 -1.300e+01 -1.300e+01 -1.300e+01 -1.300e+01 -1.300e+01 -1.300e+01 -1.300e+01 -1.300e+01 -1.300e+01 -1.300e+01 -1.300e+01 -1.300e+01 -1.300e+01 -1.300e+01 -1.300e+01 -1.300e+01 -1.300e+01 -1.300e+01 -1.300e+01 -1.300e+01 -1.300e+01 -1.300e+01 -1.300e+01 -1.300e+01 -1.300e+01 -1.300e+01 -1.300e+01 -1.300e+01 -1.300e+01 -1.300e+01 -1.300e+01 -1.300e+01 -1.300e+01 -1.300e+01 -1.300e+01 -1.300e+01 -1.300e+01 -1.300e+01 -1.300e+01 -1.300e+01 -1.300e+01 -1.300e+01 -1.300e+01 -1.300e+01 -1.300e+01 -1.300e+01 -1.300e+01 -1.300e+01 -1.300e+01 -1.300e+01 -1.300e+01 -1.300e+01 -1.300e+01 -1.300e+01 -1.300e+01 -1.300e+01 -1.300e+01 -1.300e+01 -1.300e+01 -1.300e+01 -1.300e+01 -1.300e+01 -1.300e+01 -1.300e+01 -1.300e+01 -1.300e+01 -1.300e+01 -1.300e+01 -1.300e+01 -1.300e+01 -1.300e+01 -1.300e+01 -1.300e+01 -1.300e+01 -1.300e+01 -1.300e+01 -1.300e+01 -1.300e+01 -1.300e+01 -1.300e+01 -1.300e+01 -1.300e+01 -1.300e+01 -1.300e+01 -1.300e+01 -1.300e+01 -1.300e+01 -1.300e+01 -1.300e+01 -1.300e+01 -1.300e+01 -1.300e+01 -1.300e+01 -1.300e+01 -1.300e+01 -1.300e+01 -1.300e+01 -1.300e+01 -1.300e+01 -1.300e+01 -1.300e+01 -1.300e+01 -1.300e+01 -1.300e+01 -1.300e+01 -1.300e+01 -1.300e+01 -1.300e+01 -1.300e+01 -1.300e+01 -1.300e+01 -1.300e+01 -1.300e+01 -1.300e+01 -1.300e+01 -1.300e+01 -1.300e+01 -1.300e+01 -1.300e+01 -1.300e+01 -1.300e+01 -1.300e+01 -1.300e+01 -1.300e+01 -1.300e+01 -1.300e+01 -1.300e+01 -1.300e+01 -1.300e+01 -1.300e+01 -1.300e+01 -1.300e+01 -1.300e+01 -1.300e+01 -1.300e+01 -1.300e+01 -1.300e+01 -1.300e+01 -1.300e+01 -1.300e+01 -1.300e+01 -1.300e+01 -1.300e+01 -1.300e+01 -1.300e+01 -1.300e+01 -1.300e+01 -1.300e+01 -1.300e+01 -1.300e+01 -1.300e+01 -1.300e+01 -1.300e+01 -1.300e+01 -1.300e+01 -1.300e+01 -1.300e+01 -1.300e+01 -5.000e+00 -5.000e+00 -5.000e+00 -5.000e+00 -5.000e+00 -5.000e+00 -5.000e+00 -5.000e+00 -5.000e+00 -5.000e+00 -5.000e+00 -5.000e+00 -5.000e+00 -5.000e+00 -5.000e+00 -5.000e+00 -5.000e+00 -5.000e+00 -5.000e+00 -5.000e+00 -5.000e+00 -5.000e+00 -5.000e+00 -5.000e+00 -5.000e+00 -5.000e+00 -5.000e+00 -5.000e+00 -5.000e+00 -5.000e+00 -5.000e+00 -5.000e+00 -5.000e+00 -5.000e+00 -5.000e+00 -5.000e+00 -5.000e+00 -5.000e+00 -5.000e+00 -5.000e+00 -5.000e+00 -5.000e+00 -5.000e+00 -5.000e+00 -5.000e+00 -5.000e+00 -5.000e+00 -5.000e+00 -1.300e+01 -1.300e+01 -1.300e+01 -1.300e+01 -1.300e+01 -1.300e+01 -1.300e+01 -1.300e+01 -1.300e+01 -1.300e+01 -1.300e+01 -1.300e+01 -1.300e+01 -1.300e+01 -1.300e+01 -1.300e+01 -1.300e+01 -1.300e+01 -1.300e+01 -1.300e+01 -1.300e+01 -1.300e+01 -1.300e+01 -1.300e+01 -1.300e+01 -1.300e+01 -1.300e+01 -1.300e+01 -1.300e+01 -1.300e+01 -1.300e+01 -1.300e+01 -1.300e+01 -1.300e+01 -1.300e+01 -1.300e+01 -1.300e+01 -1.300e+01 -1.300e+01 -1.300e+01 -1.300e+01 -1.300e+01 -1.300e+01 -1.300e+01 -1.300e+01 -1.300e+01 -1.300e+01 -1.300e+01 -1.300e+01 -1.300e+01 -1.300e+01 -1.300e+01 -1.300e+01 -1.300e+01 -1.300e+01 -1.300e+01 -1.300e+01 -1.300e+01 -1.300e+01 -1.300e+01 -1.300e+01 -1.300e+01 -1.300e+01 -1.300e+01 -1.300e+01 -1.300e+01 -1.300e+01 -1.300e+01 -1.300e+01 -1.300e+01 -1.300e+01 -1.300e+01 -1.300e+01 -1.300e+01 -1.300e+01 -1.300e+01 -1.300e+01 -1.300e+01 -1.300e+01 -1.300e+01 -1.300e+01 -1.300e+01 -1.300e+01 -1.300e+01 -1.300e+01 -1.300e+01 -1.300e+01 -1.300e+01 -1.300e+01 -1.300e+01 -1.300e+01 -1.300e+01 -1.300e+01 -1.300e+01 -1.300e+01 -1.300e+01 -1.300e+01 -1.300e+01 -1.300e+01 -1.300e+01 -1.300e+01 -1.300e+01 -1.300e+01 -1.300e+01 -1.300e+01 -1.300e+01 -1.300e+01 -1.300e+01 -1.300e+01 -1.300e+01 -1.300e+01 -1.300e+01 -1.300e+01 -1.300e+01 -1.300e+01 -1.300e+01 -1.300e+01 -1.300e+01 -1.300e+01 -1.300e+01 -1.300e+01 -1.300e+01 -1.300e+01 -1.300e+01 -1.300e+01 -1.300e+01 -1.300e+01 -1.300e+01 -1.300e+01 -1.300e+01 -1.300e+01 -1.300e+01 -1.300e+01 -1.300e+01 -1.300e+01 -1.300e+01 -1.300e+01 -1.300e+01 -1.300e+01 -1.300e+01 -1.300e+01 -1.300e+01 -1.300e+01 -1.300e+01 -1.300e+01 -1.300e+01 -1.300e+01 -1.300e+01 -1.300e+01 -1.300e+01 -1.300e+01 -1.300e+01 -1.300e+01 -1.300e+01 -1.300e+01 -1.300e+01 -1.300e+01 -1.300e+01 -1.300e+01 -1.300e+01 -1.300e+01 -1.300e+01 -1.300e+01 -1.300e+01 -1.300e+01 -1.300e+01 -1.300e+01 -1.300e+01 -1.300e+01 -1.300e+01 -1.300e+01 -1.300e+01 -1.300e+01 -1.300e+01 -1.300e+01 -1.300e+01 -1.300e+01 -1.300e+01 -1.300e+01 -1.300e+01 -1.300e+01 -1.300e+01 -1.300e+01 -1.300e+01 -1.300e+01 -1.300e+01 -1.300e+01 -1.300e+01 -1.300e+01 -1.300e+01 -1.300e+01 -1.300e+01 -1.300e+01 -1.300e+01 -1.300e+01 -1.300e+01 -1.300e+01 -1.300e+01 -1.300e+01 -1.300e+01 -1.300e+01 -1.300e+01 -1.300e+01 -1.300e+01 -1.300e+01 -1.300e+01 -1.300e+01 -1.300e+01 -1.300e+01 -1.300e+01 -1.300e+01 -1.300e+01 -1.300e+01 -1.300e+01 -1.300e+01 -1.300e+01 -1.300e+01 -1.300e+01 -1.300e+01 -1.300e+01 -1.300e+01 -1.300e+01 -1.300e+01 -1.300e+01 -1.300e+01 -1.300e+01 -1.300e+01 -1.300e+01 -1.300e+01 -1.300e+01 -1.300e+01 -1.300e+01 -1.300e+01 -1.300e+01 -1.300e+01 -1.300e+01 -1.300e+01 -1.300e+01 -1.300e+01 -1.300e+01 -1.300e+01 -1.300e+01 -1.300e+01 -1.300e+01 -1.300e+01 -1.300e+01 -1.300e+01 -1.300e+01 -1.300e+01 -1.300e+01 -1.300e+01 -1.300e+01 -1.300e+01 -1.300e+01 -1.300e+01 -1.300e+01 -1.300e+01 -1.300e+01 -1.300e+01 -1.300e+01 -1.300e+01 -1.300e+01 -1.300e+01 -1.300e+01 -1.300e+01 -1.300e+01 -1.300e+01 -1.300e+01 -1.300e+01 -1.300e+01 -1.300e+01 -1.300e+01 -1.300e+01 -1.300e+01 -1.300e+01 -1.300e+01 -1.300e+01 -1.300e+01 -1.300e+01 -1.300e+01 -1.300e+01 -1.300e+01 -1.300e+01 -1.300e+01 -1.300e+01 -1.300e+01 -1.300e+01 -1.300e+01 -1.300e+01 -1.300e+01 -1.300e+01 -1.300e+01 -1.300e+01 -1.300e+01 -1.300e+01 -1.300e+01 -1.300e+01 -1.300e+01 -1.300e+01 -1.300e+01 -1.300e+01 -1.300e+01 -1.300e+01 -1.300e+01 -1.300e+01 -1.300e+01 -1.300e+01 -1.300e+01 -1.300e+01 -1.300e+01 -1.300e+01 -1.300e+01 -1.300e+01 -1.300e+01 -1.300e+01 -1.300e+01 -1.300e+01 -1.300e+01 -1.300e+01 -1.300e+01 -1.300e+01 -1.300e+01 -1.300e+01 -1.300e+01 -1.300e+01 -1.300e+01 -1.300e+01 -1.300e+01 -1.300e+01 -1.300e+01 -1.300e+01 -1.300e+01 -1.300e+01 -1.300e+01 -1.300e+01 -1.300e+01 -1.300e+01 -1.300e+01 -1.300e+01 -1.300e+01 -1.300e+01 -1.300e+01 -1.300e+01 -1.300e+01 -1.300e+01 -1.300e+01 -1.300e+01 -1.300e+01 -1.300e+01 -1.300e+01 -1.300e+01 -1.300e+01 -1.300e+01 -1.300e+01 -1.300e+01 -1.300e+01 -1.300e+01 -1.300e+01 -1.300e+01 -1.300e+01 -1.300e+01 -1.300e+01 -1.300e+01 -1.300e+01 -1.300e+01 -1.300e+01 -1.300e+01 -1.300e+01 -1.300e+01 -1.300e+01 -1.300e+01 -1.300e+01 -1.300e+01 -1.300e+01 -1.300e+01 -1.300e+01 -1.300e+01 -1.300e+01 -1.300e+01 -1.300e+01 -1.300e+01 -1.300e+01 -1.300e+01 -1.300e+01 -1.300e+01 -1.300e+01 -1.300e+01 -1.300e+01 -1.300e+01 -1.300e+01 -1.300e+01 -1.300e+01 -1.300e+01 -1.300e+01 -1.300e+01 -1.300e+01 -1.300e+01 -1.300e+01 -1.300e+01 -1.300e+01 -1.300e+01 -1.300e+01 -1.300e+01 -1.300e+01 -1.300e+01 -1.300e+01 -1.300e+01 -1.300e+01 -1.300e+01 -1.300e+01 -1.300e+01 -1.300e+01 -1.300e+01 -1.300e+01 -1.300e+01 -1.300e+01 -1.300e+01 -1.300e+01 -1.300e+01 -1.300e+01 -1.300e+01 -1.300e+01 -1.300e+01 -1.300e+01 -1.300e+01 -1.300e+01 -1.300e+01 -1.300e+01 -1.300e+01 -1.300e+01 -1.300e+01 -1.300e+01 -1.300e+01 -1.300e+01 -1.300e+01 -1.300e+01 -1.300e+01 -1.300e+01 -1.300e+01 -1.300e+01 -1.300e+01 -1.300e+01 -1.300e+01 -1.300e+01 -1.300e+01 -1.300e+01 -1.300e+01 -1.300e+01 -1.300e+01 -1.300e+01 -1.300e+01 -1.300e+01 -1.300e+01 -1.300e+01 -1.300e+01 -1.300e+01 -1.300e+01 -1.300e+01 -1.300e+01 -1.300e+01 -1.300e+01 -1.300e+01 -1.300e+01 -1.300e+01 -1.300e+01 -1.300e+01 -1.300e+01 -1.300e+01 -1.300e+01 -1.300e+01 -1.300e+01 -1.300e+01 -1.300e+01 -1.300e+01 -1.300e+01 -1.300e+01 -1.300e+01 -1.300e+01 -1.300e+01 -1.300e+01 -1.300e+01 -1.300e+01 -1.300e+01 -1.300e+01 -1.300e+01 -1.300e+01 -1.300e+01 -1.300e+01 -1.300e+01 -1.300e+01 -1.300e+01 -1.300e+01 -1.300e+01 -1.300e+01 -1.300e+01 -1.300e+01 -1.300e+01 -1.300e+01 -1.300e+01 -1.300e+01 -1.300e+01 -1.300e+01 -1.300e+01 -1.300e+01 -1.300e+01 -1.300e+01 -1.300e+01 -1.300e+01 -1.300e+01 -1.300e+01 -1.300e+01 -1.300e+01 -1.300e+01 -1.300e+01 -1.300e+01 -1.300e+01 -1.300e+01 -1.300e+01 -1.300e+01 -1.300e+01 -1.300e+01 -1.300e+01 -1.300e+01 -1.300e+01 -1.300e+01 -1.300e+01 -1.300e+01 -1.300e+01 -1.300e+01 -1.300e+01 -1.300e+01 -1.300e+01 -1.300e+01 -1.300e+01 -1.300e+01 -1.300e+01 -1.300e+01 -1.300e+01 -1.300e+01 -1.300e+01 -1.300e+01 -1.300e+01 -1.300e+01 -1.300e+01 -1.300e+01 -1.300e+01 -1.300e+01 -1.300e+01 -1.300e+01 -1.300e+01 -1.300e+01 -1.300e+01 -1.300e+01 -1.300e+01 -1.300e+01 -1.300e+01 -1.300e+01 -1.300e+01 -1.300e+01 -1.300e+01 -1.300e+01 -1.300e+01 -1.300e+01 -1.300e+01 -1.300e+01 -1.300e+01 -1.300e+01 -1.300e+01 -1.300e+01 -1.300e+01 -1.300e+01 -1.300e+01 -1.300e+01 -1.300e+01 -1.300e+01 -1.300e+01 -1.300e+01 -5.000e+00 -5.000e+00 -5.000e+00 -5.000e+00 -5.000e+00 -5.000e+00 -5.000e+00 -5.000e+00 -5.000e+00 -5.000e+00 -5.000e+00 -5.000e+00 -5.000e+00 -5.000e+00 -5.000e+00 -5.000e+00 -5.000e+00 -5.000e+00 -5.000e+00 -5.000e+00 -5.000e+00 -5.000e+00 -5.000e+00 -5.000e+00 -5.000e+00 -5.000e+00 -5.000e+00 -5.000e+00 -5.000e+00 -5.000e+00 -5.000e+00 -5.000e+00 -5.000e+00 -5.000e+00 -5.000e+00 -5.000e+00 -5.000e+00 -5.000e+00 -5.000e+00 -5.000e+00 -5.000e+00 -5.000e+00 -5.000e+00 -5.000e+00 -5.000e+00 -5.000e+00 -5.000e+00 -5.000e+00 -1.300e+01 -1.300e+01 -1.300e+01 -1.300e+01 -1.300e+01 -1.300e+01 -1.300e+01 -1.300e+01 -1.300e+01 -1.300e+01 -1.300e+01 -1.300e+01 -1.300e+01 -1.300e+01 -1.300e+01 -1.300e+01 -1.300e+01 -1.300e+01 -1.300e+01 -1.300e+01 -1.300e+01 -1.300e+01 -1.300e+01 -1.300e+01 -1.300e+01 -1.300e+01 -1.300e+01 -1.300e+01 -1.300e+01 -1.300e+01 -1.300e+01 -1.300e+01 -1.300e+01 -1.300e+01 -1.300e+01 -1.300e+01 -1.300e+01 -1.300e+01 -1.300e+01 -1.300e+01 -1.300e+01 -1.300e+01 -1.300e+01 -1.300e+01 -1.300e+01 -1.300e+01 -1.300e+01 -1.300e+01 -1.300e+01 -1.300e+01 -1.300e+01 -1.300e+01 -1.300e+01 -1.300e+01 -1.300e+01 -1.300e+01 -1.300e+01 -1.300e+01 -1.300e+01 -1.300e+01 -1.300e+01 -1.300e+01 -1.300e+01 -1.300e+01 -1.300e+01 -1.300e+01 -1.300e+01 -1.300e+01 -1.300e+01 -1.300e+01 -1.300e+01 -1.300e+01 -1.300e+01 -1.300e+01 -1.300e+01 -1.300e+01 -1.300e+01 -1.300e+01 -1.300e+01 -1.300e+01 -1.300e+01 -1.300e+01 -1.300e+01 -1.300e+01 -1.300e+01 -1.300e+01 -1.300e+01 -1.300e+01 -1.300e+01 -1.300e+01 -1.300e+01 -1.300e+01 -1.300e+01 -1.300e+01 -1.300e+01 -1.300e+01 -1.300e+01 -1.300e+01 -1.300e+01 -1.300e+01 -1.300e+01 -1.300e+01 -1.300e+01 -1.300e+01 -1.300e+01 -1.300e+01 -1.300e+01 -1.300e+01 -1.300e+01 -1.300e+01 -1.300e+01 -1.300e+01 -1.300e+01 -1.300e+01 -1.300e+01 -1.300e+01 -1.300e+01 -1.300e+01 -1.300e+01 -1.300e+01 -1.300e+01 -1.300e+01 -1.300e+01 -1.300e+01 -1.300e+01 -1.300e+01 -1.300e+01 -1.300e+01 -1.300e+01 -1.300e+01 -1.300e+01 -1.300e+01 -1.300e+01 -1.300e+01 -1.300e+01 -1.300e+01 -1.300e+01 -1.300e+01 -1.300e+01 -1.300e+01 -1.300e+01 -1.300e+01 -1.300e+01 -1.300e+01 -1.300e+01 -1.300e+01 -1.300e+01 -1.300e+01 -1.300e+01 -1.300e+01 -1.300e+01 -1.300e+01 -1.300e+01 -1.300e+01 -1.300e+01 -1.300e+01 -1.300e+01 -1.300e+01 -1.300e+01 -1.300e+01 -1.300e+01 -1.300e+01 -1.300e+01 -1.300e+01 -1.300e+01 -1.300e+01 -1.300e+01 -1.300e+01 -1.300e+01 -1.300e+01 -1.300e+01 -1.300e+01 -1.300e+01 -1.300e+01 -1.300e+01 -1.300e+01 -1.300e+01 -1.300e+01 -1.300e+01 -1.300e+01 -1.300e+01 -1.300e+01 -1.300e+01 -1.300e+01 -1.300e+01 -1.300e+01 -1.300e+01 -1.300e+01 -1.300e+01 -1.300e+01 -1.300e+01 -1.300e+01 -1.300e+01 -1.300e+01 -1.300e+01 -1.300e+01 -1.300e+01 -1.300e+01 -1.300e+01 -1.300e+01 -1.300e+01 -1.300e+01 -1.300e+01 -1.300e+01 -1.300e+01 -1.300e+01 -1.300e+01 -1.300e+01 -1.300e+01 -1.300e+01 -1.300e+01 -1.300e+01 -1.300e+01 -1.300e+01 -1.300e+01 -1.300e+01 -1.300e+01 -1.300e+01 -1.300e+01 -1.300e+01 -1.300e+01 -1.300e+01 -1.300e+01 -1.300e+01 -1.300e+01 -1.300e+01 -1.300e+01 -1.300e+01 -1.300e+01 -1.300e+01 -1.300e+01 -1.300e+01 -1.300e+01 -1.300e+01 -1.300e+01 -1.300e+01 -1.300e+01 -1.300e+01 -1.300e+01 -1.300e+01 -1.300e+01 -1.300e+01 -1.300e+01 -1.300e+01 -1.300e+01 -1.300e+01 -1.300e+01 -1.300e+01 -1.300e+01 -1.300e+01 -1.300e+01 -1.300e+01 -1.300e+01 -1.300e+01 -1.300e+01 -1.300e+01 -1.300e+01 -1.300e+01 -1.300e+01 -1.300e+01 -1.300e+01 -1.300e+01 -1.300e+01 -1.300e+01 -1.300e+01 -1.300e+01 -1.300e+01 -1.300e+01 -1.300e+01 -1.300e+01 -1.300e+01 -1.300e+01 -1.300e+01 -1.300e+01 -1.300e+01 -1.300e+01 -1.300e+01 -1.300e+01 -1.300e+01 -1.300e+01 -1.300e+01 -1.300e+01 -1.300e+01 -1.300e+01 -1.300e+01 -1.300e+01 -1.300e+01 -1.300e+01 -1.300e+01 -1.300e+01 -1.300e+01 -1.300e+01 -1.300e+01 -1.300e+01 -1.300e+01 -1.300e+01 -1.300e+01 -1.300e+01 -1.300e+01 -1.300e+01 -1.300e+01 -1.300e+01 -1.300e+01 -1.300e+01 -1.300e+01 -1.300e+01 -1.300e+01 -1.300e+01 -1.300e+01 -1.300e+01 -1.300e+01 -1.300e+01 -1.300e+01 -1.300e+01 -1.300e+01 -1.300e+01 -1.300e+01 -1.300e+01 -1.300e+01 -1.300e+01 -1.300e+01 -1.300e+01 -1.300e+01 -1.300e+01 -1.300e+01 -1.300e+01 -1.300e+01 -1.300e+01 -1.300e+01 -1.300e+01 -1.300e+01 -1.300e+01 -1.300e+01 -1.300e+01 -1.300e+01 -1.300e+01 -1.300e+01 -1.300e+01 -1.300e+01 -1.300e+01 -1.300e+01 -1.300e+01 -1.300e+01 -1.300e+01 -1.300e+01 -1.300e+01 -1.300e+01 -1.300e+01 -1.300e+01 -1.300e+01 -1.300e+01 -1.300e+01 -1.300e+01 -1.300e+01 -1.300e+01 -1.300e+01 -1.300e+01 -1.300e+01 -1.300e+01 -1.300e+01 -1.300e+01 -1.300e+01 -1.300e+01 -1.300e+01 -1.300e+01 -1.300e+01 -1.300e+01 -1.300e+01 -1.300e+01 -1.300e+01 -1.300e+01 -1.300e+01 -1.300e+01 -1.300e+01 -1.300e+01 -1.300e+01 -1.300e+01 -1.300e+01 -1.300e+01 -1.300e+01 -1.300e+01 -1.300e+01 -1.300e+01 -1.300e+01 -1.300e+01 -1.300e+01 -1.300e+01 -1.300e+01 -1.300e+01 -1.300e+01 -1.300e+01 -1.300e+01 -1.300e+01 -1.300e+01 -1.300e+01 -1.300e+01 -1.300e+01 -1.300e+01 -1.300e+01 -1.300e+01 -1.300e+01 -1.300e+01 -1.300e+01 -1.300e+01 -1.300e+01 -1.300e+01 -1.300e+01 -1.300e+01 -1.300e+01 -1.300e+01 -1.300e+01 -1.300e+01 -1.300e+01 -1.300e+01 -1.300e+01 -1.300e+01 -1.300e+01 -1.300e+01 -1.300e+01 -1.300e+01 -1.300e+01 -1.300e+01 -1.300e+01 -1.300e+01 -1.300e+01 -1.300e+01 -1.300e+01 -1.300e+01 -1.300e+01 -1.300e+01 -1.300e+01 -1.300e+01 -1.300e+01 -1.300e+01 -1.300e+01 -1.300e+01 -1.300e+01 -1.300e+01 -1.300e+01 -1.300e+01 -1.300e+01 -1.300e+01 -1.300e+01 -1.300e+01 -1.300e+01 -1.300e+01 -1.300e+01 -1.300e+01 -1.300e+01 -1.300e+01 -1.300e+01 -1.300e+01 -1.300e+01 -1.300e+01 -1.300e+01 -1.300e+01 -1.300e+01 -1.300e+01 -1.300e+01 -1.300e+01 -1.300e+01 -1.300e+01 -1.300e+01 -1.300e+01 -1.300e+01 -1.300e+01 -1.300e+01 -1.300e+01 -1.300e+01 -1.300e+01 -1.300e+01 -1.300e+01 -1.300e+01 -1.300e+01 -1.300e+01 -1.300e+01 -1.300e+01 -1.300e+01 -1.300e+01 -1.300e+01 -1.300e+01 -1.300e+01 -1.300e+01 -1.300e+01 -1.300e+01 -1.300e+01 -1.300e+01 -1.300e+01 -1.300e+01 -1.300e+01 -1.300e+01 -1.300e+01 -1.300e+01 -1.300e+01 -1.300e+01 -1.300e+01 -1.300e+01 -1.300e+01 -1.300e+01 -1.300e+01 -1.300e+01 -1.300e+01 -1.300e+01 -1.300e+01 -1.300e+01 -1.300e+01 -1.300e+01 -1.300e+01 -1.300e+01 -1.300e+01 -1.300e+01 -1.300e+01 -1.300e+01 -1.300e+01 -1.300e+01 -1.300e+01 -1.300e+01 -1.300e+01 -1.300e+01 -1.300e+01 -1.300e+01 -1.300e+01 -1.300e+01 -1.300e+01 -1.300e+01 -1.300e+01 -1.300e+01 -1.300e+01 -1.300e+01 -1.300e+01 -1.300e+01 -1.300e+01 -1.300e+01 -1.300e+01 -1.300e+01 -1.300e+01 -1.300e+01 -1.300e+01 -1.300e+01 -1.300e+01 -1.300e+01 -1.300e+01 -1.300e+01 -1.300e+01 -1.300e+01 -1.300e+01 -1.300e+01 -1.300e+01 -1.300e+01 -1.300e+01 -1.300e+01 -1.300e+01 -1.300e+01 -1.300e+01 -1.300e+01 -1.300e+01 -1.300e+01 -1.300e+01 -1.300e+01 -1.300e+01 -1.300e+01 -1.300e+01 -1.300e+01 -1.300e+01 -1.300e+01 -1.300e+01 -1.300e+01 -5.000e+00