<?xml version="1.0"?>
<VTKFile type="UnstructuredGrid" version="0.1" byte_order="LittleEndian">
   <UnstructuredGrid>
      <Piece NumberOfPoints="4610" NumberOfCells="325">
         <Points>
            <DataArray type="Float32" Name="Position" NumberOfComponents="3" format="ascii">
0.066	-5.026	0.141
0.069	-5.018	0.146
0.069	-5.009	0.146
0.065	-5.002	0.143
0.059	-4.999	0.136
0.053	-5.001	0.130
0.050	-5.009	0.125
0.051	-5.018	0.125
0.054	-5.026	0.128
0.060	-5.029	0.135
-0.093	-5.040	0.281
-0.090	-5.033	0.285
-0.090	-5.023	0.286
-0.094	-5.016	0.282
-0.100	-5.013	0.275
-0.106	-5.015	0.269
-0.109	-5.023	0.264
-0.108	-5.032	0.264
-0.105	-5.040	0.267
-0.099	-5.043	0.274
0.131	-5.063	0.261
0.132	-5.054	0.261
0.128	-5.046	0.263
0.121	-5.042	0.266
0.112	-5.044	0.270
0.106	-5.050	0.272
0.105	-5.060	0.272
0.109	-5.068	0.270
0.117	-5.072	0.267
0.125	-5.070	0.263
0.197	-5.064	0.410
0.202	-5.064	0.418
0.200	-5.064	0.427
0.194	-5.064	0.434
0.184	-5.064	0.435
0.176	-5.064	0.431
0.172	-5.064	0.423
0.173	-5.064	0.413
0.180	-5.064	0.407
0.189	-5.064	0.405
0.191	-5.115	0.387
0.192	-5.106	0.387
0.187	-5.098	0.390
0.180	-5.095	0.394
0.172	-5.097	0.398
0.166	-5.104	0.400
0.165	-5.113	0.400
0.170	-5.121	0.397
0.177	-5.125	0.393
0.185	-5.122	0.389
0.266	-5.125	0.534
0.267	-5.116	0.534
0.263	-5.108	0.537
0.255	-5.105	0.541
0.247	-5.107	0.545
0.241	-5.114	0.547
0.241	-5.123	0.547
0.245	-5.131	0.544
0.252	-5.135	0.540
0.260	-5.132	0.536
0.247	-5.183	0.521
0.250	-5.176	0.526
0.250	-5.167	0.526
0.246	-5.159	0.523
0.240	-5.156	0.516
0.234	-5.159	0.510
0.231	-5.166	0.505
0.231	-5.176	0.504
0.235	-5.183	0.508
0.241	-5.186	0.514
0.122	-5.198	0.633
0.125	-5.190	0.638
0.124	-5.181	0.638
0.120	-5.174	0.635
0.114	-5.171	0.628
0.108	-5.173	0.622
0.105	-5.181	0.617
0.106	-5.190	0.616
0.110	-5.198	0.620
0.116	-5.201	0.626
0.307	-5.253	0.639
0.310	-5.246	0.644
0.309	-5.236	0.645
0.305	-5.229	0.642
0.299	-5.226	0.636
0.293	-5.228	0.629
0.290	-5.236	0.624
0.291	-5.245	0.623
0.296	-5.252	0.626
0.302	-5.255	0.632
0.239	-5.266	0.699
0.242	-5.259	0.704
0.241	-5.250	0.705
0.237	-5.242	0.702
0.231	-5.239	0.696
0.225	-5.242	0.689
0.222	-5.249	0.684
0.223	-5.258	0.683
0.227	-5.266	0.686
0.234	-5.269	0.692
0.360	-5.309	0.736
0.363	-5.306	0.743
0.365	-5.307	0.752
0.365	-5.314	0.759
0.364	-5.323	0.760
0.361	-5.331	0.756
0.357	-5.335	0.749
0.355	-5.333	0.740
0.355	-5.326	0.733
0.357	-5.317	0.732
0.445	-5.330	0.711
0.448	-5.326	0.719
0.450	-5.328	0.728
0.450	-5.335	0.734
0.449	-5.344	0.736
0.446	-5.352	0.732
0.442	-5.355	0.724
0.440	-5.354	0.715
0.440	-5.347	0.709
0.442	-5.338	0.707
0.428	-5.412	0.849
0.429	-5.403	0.849
0.424	-5.395	0.851
0.417	-5.391	0.855
0.409	-5.393	0.859
0.403	-5.401	0.862
0.403	-5.410	0.862
0.407	-5.418	0.860
0.414	-5.421	0.856
0.422	-5.419	0.852
0.455	-5.413	0.902
0.456	-5.404	0.902
0.452	-5.396	0.904
0.444	-5.393	0.908
0.436	-5.395	0.912
0.431	-5.402	0.915
0.430	-5.411	0.915
0.434	-5.419	0.913
0.442	-5.423	0.909
0.450	-5.420	0.905
0.476	-5.490	0.953
0.482	-5.493	0.958
0.483	-5.497	0.967
0.478	-5.500	0.974
0.470	-5.501	0.978
0.461	-5.499	0.977
0.455	-5.496	0.971
0.454	-5.492	0.963
0.458	-5.489	0.955
0.467	-5.488	0.951
0.471	-5.527	0.935
0.477	-5.531	0.941
0.478	-5.535	0.949
0.474	-5.538	0.957
0.466	-5.538	0.961
0.456	-5.537	0.960
0.450	-5.533	0.954
0.449	-5.529	0.945
0.454	-5.526	0.938
0.462	-5.525	0.934
0.524	-5.580	1.060
0.531	-5.584	1.065
0.533	-5.589	1.073
0.529	-5.593	1.080
0.521	-5.594	1.085
0.512	-5.593	1.084
0.505	-5.589	1.079
0.503	-5.584	1.072
0.507	-5.580	1.064
0.515	-5.579	1.060
0.522	-5.594	1.052
0.529	-5.598	1.057
0.531	-5.603	1.065
0.527	-5.607	1.072
0.519	-5.608	1.077
0.510	-5.607	1.076
0.503	-5.603	1.071
0.501	-5.598	1.064
0.505	-5.594	1.056
0.513	-5.593	1.051
0.028	-5.000	-0.017
0.031	-4.980	-0.011
0.023	-4.964	-0.000
0.006	-4.958	0.011
-0.014	-4.964	0.017
-0.027	-4.980	0.018
-0.031	-5.000	0.011
-0.022	-5.016	0.000
-0.005	-5.022	-0.010
0.014	-5.016	-0.017
0.346	-5.272	0.652
0.351	-5.254	0.661
0.343	-5.239	0.674
0.326	-5.234	0.686
0.307	-5.240	0.691
0.292	-5.255	0.689
0.288	-5.273	0.679
0.296	-5.288	0.667
0.312	-5.293	0.655
0.332	-5.287	0.650
0.647	-5.817	1.273
0.653	-5.802	1.287
0.646	-5.790	1.303
0.630	-5.786	1.315
0.610	-5.791	1.319
0.594	-5.804	1.313
0.588	-5.819	1.300
0.595	-5.830	1.284
0.611	-5.834	1.271
0.631	-5.829	1.267
0.840	-6.344	1.666
0.846	-6.331	1.681
0.840	-6.321	1.699
0.824	-6.317	1.711
0.803	-6.322	1.714
0.787	-6.332	1.707
0.780	-6.345	1.691
0.786	-6.355	1.674
0.803	-6.358	1.661
0.823	-6.354	1.658
1.021	-7.008	2.076
1.028	-6.997	2.093
1.023	-6.988	2.111
1.006	-6.985	2.124
0.986	-6.989	2.127
0.969	-6.998	2.119
0.962	-7.009	2.102
0.968	-7.018	2.084
0.984	-7.021	2.071
1.004	-7.017	2.068
1.156	-7.530	2.340
1.163	-7.519	2.357
1.157	-7.511	2.376
1.141	-7.508	2.389
1.121	-7.512	2.392
1.104	-7.520	2.383
1.096	-7.531	2.366
1.102	-7.539	2.348
1.118	-7.542	2.334
1.138	-7.538	2.332
1.288	-8.098	2.635
1.295	-8.088	2.652
1.289	-8.080	2.671
1.273	-8.076	2.684
1.252	-8.079	2.686
1.235	-8.087	2.677
1.228	-8.097	2.660
1.234	-8.105	2.641
1.250	-8.108	2.628
1.271	-8.106	2.626
1.382	-8.727	2.936
1.390	-8.718	2.953
1.384	-8.711	2.972
1.368	-8.708	2.985
1.347	-8.710	2.987
1.330	-8.717	2.978
1.323	-8.726	2.960
1.328	-8.733	2.941
1.344	-8.736	2.928
1.365	-8.734	2.926
1.504	-9.423	3.202
1.512	-9.415	3.220
1.507	-9.409	3.239
1.491	-9.406	3.253
1.471	-9.409	3.255
1.453	-9.415	3.246
1.445	-9.423	3.228
1.450	-9.430	3.209
1.466	-9.432	3.195
1.487	-9.429	3.192
1.625	-10.164	3.464
1.633	-10.157	3.482
1.628	-10.151	3.501
1.612	-10.149	3.515
1.591	-10.151	3.517
1.573	-10.156	3.507
1.565	-10.164	3.489
1.570	-10.170	3.470
1.586	-10.172	3.456
1.607	-10.170	3.454
1.706	-10.919	3.716
1.713	-10.913	3.734
1.708	-10.907	3.754
1.692	-10.905	3.767
1.671	-10.906	3.769
1.654	-10.910	3.759
1.646	-10.917	3.740
1.651	-10.922	3.721
1.667	-10.925	3.707
1.688	-10.924	3.706
1.749	-11.688	3.933
1.756	-11.683	3.951
1.751	-11.678	3.971
1.735	-11.675	3.984
1.714	-11.675	3.986
1.696	-11.679	3.975
1.689	-11.684	3.957
1.694	-11.689	3.937
1.710	-11.692	3.924
1.731	-11.692	3.922
1.766	-12.464	4.125
1.774	-12.460	4.144
1.769	-12.455	4.164
1.753	-12.452	4.177
1.732	-12.452	4.179
1.714	-12.455	4.168
1.706	-12.460	4.149
1.711	-12.464	4.129
1.727	-12.467	4.116
1.748	-12.467	4.115
1.767	-12.854	4.216
1.775	-12.850	4.235
1.770	-12.845	4.255
1.754	-12.842	4.268
1.733	-12.842	4.269
1.715	-12.844	4.259
1.707	-12.849	4.240
1.712	-12.853	4.220
1.728	-12.856	4.207
1.749	-12.857	4.205
0.147	-5.022	-0.065
0.146	-5.013	-0.064
0.141	-5.007	-0.060
0.134	-5.006	-0.054
0.127	-5.010	-0.049
0.124	-5.019	-0.046
0.125	-5.028	-0.048
0.131	-5.034	-0.052
0.138	-5.035	-0.058
0.144	-5.031	-0.063
0.297	-5.028	0.113
0.296	-5.019	0.115
0.291	-5.013	0.119
0.284	-5.012	0.125
0.278	-5.016	0.130
0.275	-5.025	0.133
0.276	-5.034	0.131
0.281	-5.040	0.127
0.288	-5.041	0.121
0.294	-5.037	0.116
0.278	-5.078	-0.112
0.281	-5.079	-0.103
0.279	-5.080	-0.094
0.272	-5.079	-0.088
0.263	-5.077	-0.087
0.255	-5.075	-0.092
0.252	-5.073	-0.101
0.254	-5.072	-0.110
0.261	-5.073	-0.116
0.270	-5.075	-0.116
0.238	-5.253	-0.132
0.242	-5.255	-0.124
0.240	-5.256	-0.115
0.233	-5.255	-0.109
0.224	-5.253	-0.108
0.216	-5.251	-0.112
0.213	-5.249	-0.121
0.215	-5.248	-0.130
0.222	-5.249	-0.136
0.231	-5.251	-0.137
0.386	-5.132	-0.144
0.395	-5.130	-0.144
0.404	-5.132	-0.143
0.409	-5.140	-0.141
0.409	-5.149	-0.139
0.403	-5.156	-0.137
0.394	-5.159	-0.137
0.385	-5.156	-0.138
0.380	-5.149	-0.140
0.380	-5.140	-0.142
0.394	-5.176	-0.321
0.403	-5.173	-0.321
0.411	-5.176	-0.320
0.417	-5.183	-0.318
0.417	-5.192	-0.316
0.411	-5.200	-0.314
0.402	-5.202	-0.314
0.393	-5.199	-0.315
0.388	-5.192	-0.317
0.388	-5.183	-0.319
0.512	-5.215	-0.188
0.514	-5.211	-0.179
0.516	-5.213	-0.171
0.518	-5.221	-0.165
0.518	-5.230	-0.164
0.516	-5.238	-0.169
0.514	-5.241	-0.177
0.512	-5.239	-0.186
0.511	-5.232	-0.192
0.511	-5.223	-0.192
0.635	-5.217	-0.217
0.637	-5.213	-0.209
0.639	-5.216	-0.200
0.641	-5.223	-0.194
0.641	-5.232	-0.194
0.639	-5.240	-0.199
0.637	-5.243	-0.207
0.635	-5.241	-0.216
0.634	-5.234	-0.221
0.634	-5.225	-0.222
0.640	-5.319	-0.226
0.640	-5.310	-0.225
0.636	-5.302	-0.221
0.628	-5.300	-0.216
0.621	-5.304	-0.211
0.616	-5.312	-0.209
0.617	-5.321	-0.210
0.621	-5.328	-0.214
0.628	-5.330	-0.219
0.636	-5.327	-0.224
0.703	-5.330	-0.131
0.703	-5.320	-0.130
0.698	-5.313	-0.126
0.691	-5.311	-0.121
0.684	-5.315	-0.117
0.679	-5.322	-0.115
0.679	-5.332	-0.116
0.684	-5.339	-0.120
0.691	-5.341	-0.125
0.698	-5.337	-0.129
0.730	-5.396	-0.258
0.738	-5.392	-0.260
0.747	-5.394	-0.260
0.753	-5.400	-0.260
0.755	-5.409	-0.259
0.751	-5.417	-0.258
0.742	-5.421	-0.256
0.733	-5.420	-0.255
0.727	-5.413	-0.255
0.725	-5.404	-0.256
0.737	-5.421	-0.375
0.741	-5.421	-0.367
0.740	-5.421	-0.358
0.733	-5.421	-0.351
0.724	-5.421	-0.350
0.716	-5.421	-0.354
0.712	-5.421	-0.362
0.713	-5.421	-0.371
0.720	-5.421	-0.378
0.729	-5.421	-0.379
0.859	-5.509	-0.305
0.859	-5.500	-0.304
0.854	-5.492	-0.301
0.847	-5.490	-0.296
0.839	-5.493	-0.291
0.834	-5.501	-0.289
0.834	-5.510	-0.290
0.839	-5.517	-0.293
0.846	-5.520	-0.298
0.854	-5.517	-0.303
0.899	-5.510	-0.242
0.903	-5.510	-0.234
0.901	-5.510	-0.224
0.895	-5.510	-0.218
0.886	-5.510	-0.216
0.877	-5.510	-0.221
0.873	-5.510	-0.229
0.875	-5.510	-0.238
0.881	-5.510	-0.245
0.890	-5.510	-0.246
0.958	-5.618	-0.338
0.959	-5.617	-0.329
0.955	-5.614	-0.321
0.947	-5.610	-0.318
0.939	-5.606	-0.321
0.934	-5.604	-0.328
0.933	-5.604	-0.337
0.938	-5.608	-0.345
0.945	-5.612	-0.348
0.953	-5.616	-0.345
0.939	-5.654	-0.333
0.940	-5.653	-0.324
0.935	-5.650	-0.317
0.928	-5.645	-0.314
0.920	-5.641	-0.316
0.915	-5.639	-0.324
0.914	-5.640	-0.333
0.918	-5.643	-0.340
0.926	-5.648	-0.343
0.934	-5.652	-0.341
1.031	-5.711	-0.368
1.039	-5.708	-0.370
1.048	-5.710	-0.371
1.054	-5.717	-0.370
1.055	-5.726	-0.367
1.050	-5.734	-0.365
1.042	-5.737	-0.363
1.033	-5.735	-0.363
1.027	-5.728	-0.364
1.026	-5.719	-0.366
1.028	-5.717	-0.390
1.037	-5.713	-0.392
1.046	-5.716	-0.392
1.052	-5.723	-0.391
1.052	-5.732	-0.389
1.048	-5.739	-0.387
1.039	-5.742	-0.385
1.030	-5.740	-0.384
[...]
         <CellData>
           <DataArray type="Float32" Name="combinedRootClassID" NumberOfComponents="1" format="ascii">
 -1.300e+01 -1.300e+01 -1.300e+01 -1.300e+01 -1.300e+01 -1.300e+01 -1.300e+01 -1.300e+01 -1.300e+01 -5.000e+00 -5.000e+00 -5.000e+00 -5.000e+00 -5.000e+00 -5.000e+00 -5.000e+00 -5.000e+00 -5.000e+00 -5.000e+00 -5.000e+00 -5.000e+00 -5.000e+00 -1.300e+01 -1.300e+01 -1.300e+01 -1.300e+01 -1.300e+01 -1.300e+01 -1.300e+01 -1.300e+01 -1.300e+01 -5.000e+00 -5.000e+00 -5.000e+00 -5.000e+00 -5.000e+00 -5.000e+00 -5.000e+00 -5.000e+00 -5.000e+00 -5.000e+00 -5.000e+00 -5.000e+00 -5.000e+00 -1.300e+01 -1.300e+01 -1.300e+01 -1.300e+01 -1.300e+01 -1.300e+01 -1.300e+01 -1.300e+01 -1.300e+01 -5.000e+00 -5.000e+00 -5.000e+00 -5.000e+00 -5.000e+00 -5.000e+00 -5.000e+00 -5.000e+00 -5.000e+00 -5.000e+00 -5.000e+00 -5.000e+00 -5.000e+00 -1.300e+01 -1.300e+01 -1.300e+01 -1.300e+01 -1.300e+01 -1.300e+01 -1.300e+01 -1.300e+01 -1.300e+01 -5.000e+00 -5.000e+00 -5.000e+00 -5.000e+00 -5.000e+00 -5.000e+00 -5.000e+00 -5.000e+00 -5.000e+00 -5.000e+00 -5.000e+00 -5.000e+00 -5.000e+00 -1.100e+01 -1.100e+01 -1.100e+01 -1.100e+01 -1.100e+01 -1.100e+01 -1.100e+01 -1.100e+01 -1.100e+01 -1.100e+01 -1.100e+01 -1.100e+01 -2.000e+00 -2.000e+00 -2.000e+00 -2.000e+00 -2.000e+00 -2.000e+00 -2.000e+00 -2.000e+00 -2.000e+00 -2.000e+00 -7.000e+00 -7.000e+00 -7.000e+00 -7.000e+00 -7.000e+00 -7.000e+00 -7.000e+00 -7.000e+00 -7.000e+00 -7.000e+00 -7.000e+00 -7.000e+00 -7.000e+00 -7.000e+00 -7.000e+00 -7.000e+00 -7.000e+00 -7.000e+00 -7.000e+00 -7.000e+00 -7.000e+00 -7.000e+00 -7.000e+00 -7.000e+00 -7.000e+00 -7.000e+00 -7.000e+00 -7.000e+00 -7.000e+00 -7.000e+00 -7.000e+00 -7.000e+00 -7.000e+00 -7.000e+00 -7.000e+00 -7.000e+00 -7.000e+00 -7.000e+00 -7.000e+00 -7.000e+00 -7.000e+00 -7.000e+00 -7.000e+00 -7.000e+00 -7.000e+00 -7.000e+00 -7.000e+00 -7.000e+00 -7.000e+00 -7.000e+00 -7.000e+00 -7.000e+00 -7.000e+00 -7.000e+00 -7.000e+00 -7.000e+00 -7.000e+00 -7.000e+00 -7.000e+00 -7.000e+00 -7.000e+00 -7.000e+00 -7.000e+00 -7.000e+00 -7.000e+00 -7.000e+00 -7.000e+00 -7.000e+00 -7.000e+00 -7.000e+00 -7.000e+00 -7.000e+00 -7.000e+00 -7.000e+00 -7.000e+00 -7.000e+00 -7.000e+00 -7.000e+00 -7.000e+00 -7.000e+00 -7.000e+00 -7.000e+00 -7.000e+00 -7.000e+00 -7.000e+00 -7.000e+00 -7.000e+00 -7.000e+00 -7.000e+00 -7.000e+00 -7.000e+00 -7.000e+00 -7.000e+00 -7.000e+00 -7.000e+00 -7.000e+00 -7.000e+00 -7.000e+00 -7.000e+00 -7.000e+00 -7.000e+00 -7.000e+00 -7.000e+00 -7.000e+00 -7.000e+00 -7.000e+00 -7.000e+00 -7.000e+00 -7.000e+00 -7.000e+00 -7.000e+00 -7.000e+00 -7.000e+00 -7.000e+00 -7.000e+00 -7.000e+00 -7.000e+00 -7.000e+00 -7.000e+00 -7.000e+00 -7.000e+00 -7.000e+00 -7.000e+00 -7.000e+00 -7.000e+00 -7.000e+00 -7.000e+00 -7.000e+00 -7.000e+00 -7.000e+00 -7.000e+00 -7.000e+00 -7.000e+00 -7.000e+00 -7.000e+00 -7.000e+00 -7.000e+00 -7.000e+00 -7.000e+00 -7.000e+00 -7.000e+00 -7.000e+00 -7.000e+00 -7.000e+00 -7.000e+00 -7.000e+00 -7.000e+00 -7.000e+00 -7.000e+00 -7.000e+00 -7.000e+00 -7.000e+00 -7.000e+00 -7.000e+00 -7.000e+00 -7.000e+00 -7.000e+00 -7.000e+00 -7.000e+00 -7.000e+00 -7.000e+00 -7.000e+00 -7.000e+00 -7.000e+00 -7.000e+00 -7.000e+00 -7.000e+00 -7.000e+00 -7.000e+00 -7.000e+00 -7.000e+00 -7.000e+00 -7.000e+00 -7.000e+00 -7.000e+00 -7.000e+00 -7.000e+00 -7.000e+00 -7.000e+00 -7.000e+00 -7.000e+00 -7.000e+00 -7.000e+00 -9.000e+00 -9.000e+00 -9.000e+00 -9.000e+00 -9.000e+00 -4.000e+00 -4.000e+00 -4.000e+00 -4.000e+00 -4.000e+00 -4.000e+00 -4.000e+00 -4.000e+00 -4.000e+00 -4.000e+00 -4.000e+00 -4.000e+00 -4.000e+00 -4.000e+00 -4.000e+00 -4.000e+00 -4.000e+00 -4.000e+00 -4.000e+00 -4.000e+00 -4.000e+00 -4.000e+00 -4.000e+00 -4.000e+00 -4.000e+00 -4.000e+00 -4.000e+00
           </DataArray>
           <DataArray type="Float32" Name="nitrate/Cmin" NumberOfComponents="1" format="ascii">
 1.000e-03 1.000e-03 1.000e-03 1.000e-03 1.000e-03 1.000e-03 1.000e-03 1.000e-03 1.000e-03 1.000e-03 1.000e-03 1.000e-03 1.000e-03 1.000e-03 1.000e-03 1.000e-03 1.000e-03 1.000e-03 1.000e-03 1.000e-03 1.000e-03 1.000e-03 1.000e-03 1.000e-03 1.000e-03 1.000e-03 1.000e-03 1.000e-03 1.000e-03 1.000e-03 1.000e-03 1.000e-03 1.000e-03 1.000e-03 1.000e-03 1.000e-03 1.000e-03 1.000e-03 1.000e-03 1.000e-03 1.000e-03 1.000e-03 1.000e-03 1.000e-03 1.000e-03 1.000e-03 1.000e-03 1.000e-03 1.000e-03 1.000e-03 1.000e-03 1.000e-03 1.000e-03 1.000e-03 1.000e-03 1.000e-03 1.000e-03 1.000e-03 1.000e-03 1.000e-03 1.000e-03 1.000e-03 1.000e-03 1.000e-03 1.000e-03 1.000e-03 1.000e-03 1.000e-03 1.000e-03 1.000e-03 1.000e-03 1.000e-03 1.000e-03 1.000e-03 1.000e-03 1.000e-03 1.000e-03 1.000e-03 1.000e-03 1.000e-03 1.000e-03 1.000e-03 1.000e-03 1.000e-03 1.000e-03 1.000e-03 1.000e-03 1.000e-03 1.000e-03 1.000e-03 1.000e-03 1.000e-03 1.000e-03 1.000e-03 1.000e-03 1.000e-03 1.000e-03 1.000e-03 1.000e-03 1.000e-03 1.000e-03 1.000e-03 1.000e-03 1.000e-03 1.000e-03 1.000e-03 1.000e-03 1.000e-03 1.000e-03 1.000e-03 1.000e-03 1.000e-03 1.000e-03 1.000e-03 1.000e-03 1.000e-03 1.000e-03 1.000e-03 1.000e-03 1.000e-03 1.000e-03 1.000e-03 1.000e-03 1.000e-03 1.000e-03 1.000e-03 1.000e-03 1.000e-03 1.000e-03 1.000e-03 1.000e-03 1.000e-03 1.000e-03 1.000e-03 1.000e-03 1.000e-03 1.000e-03 1.000e-03 1.000e-03 1.000e-03 1.000e-03 1.000e-03 1.000e-03 1.000e-03 1.000e-03 1.000e-03 1.000e-03 1.000e-03 1.000e-03 1.000e-03 1.000e-03 1.000e-03 1.000e-03 1.000e-03 1.000e-03 1.000e-03 1.000e-03 1.000e-03 1.000e-03 1.000e-03 1.000e-03 1.000e-03 1.000e-03 1.000e-03 1.000e-03 1.000e-03 1.000e-03 1.000e-03 1.000e-03 1.000e-03 1.000e-03 1.000e-03 1.000e-03 1.000e-03 1.000e-03 1.000e-03 1.000e-03 1.000e-03 1.000e-03 1.000e-03 1.000e-03 1.000e-03 1.000e-03 1.000e-03 1.000e-03 1.000e-03 1.000e-03 1.000e-03 1.000e-03 1.000e-03 1.000e-03 1.000e-03 1.000e-03 1.000e-03 1.000e-03 1.000e-03 1.000e-03 1.000e-03 1.000e-03 1.000e-03 1.000e-03 1.000e-03 1.000e-03 1.000e-03 1.000e-03 1.000e-03 1.000e-03 1.000e-03 1.000e-03 1.000e-03 1.000e-03 1.000e-03 1.000e-03 1.000e-03 1.000e-03 1.000e-03 1.000e-03 1.000e-03 1.000e-03 1.000e-03 1.000e-03 1.000e-03 1.000e-03 1.000e-03 1.000e-03 1.000e-03 1.000e-03 1.000e-03 1.000e-03 1.000e-03 1.000e-03 1.000e-03 1.000e-03 1.000e-03 1.000e-03 1.000e-03 1.000e-03 1.000e-03 1.000e-03 1.000e-03 1.000e-03 1.000e-03 1.000e-03 1.000e-03 1.000e-03 1.000e-03 1.000e-03 1.000e-03 1.000e-03 1.000e-03 1.000e-03 1.000e-03 1.000e-03 1.000e-03 1.000e-03 1.000e-03 1.000e-03 1.000e-03 1.000e-03 1.000e-03 1.000e-03 1.000e-03 1.000e-03 1.000e-03 1.000e-03 1.000e-03 1.000e-03 1.000e-03 1.000e-03 1.000e-03 1.000e-03 1.000e-03 1.000e-03 1.000e-03 1.000e-03 1.000e-03 1.000e-03 1.000e-03 1.000e-03 1.000e-03 1.000e-03 1.000e-03 1.000e-03 1.000e-03 1.000e-03 1.000e-03 1.000e-03 1.000e-03 1.000e-03 1.000e-03 1.000e-03 1.000e-03 1.000e-03 1.000e-03 1.000e-03 1.000e-03 1.000e-03 1.000e-03 1.000e-03 1.000e-03 1.000e-03 1.000e-03 1.000e-03 1.000e-03 1.000e-03 1.000e-03 1.000e-03 1.000e-03 1.000e-03 1.000e-03 1.000e-03 1.000e-03 1.000e-03 1.000e-03 1.000e-03 1.000e-03 1.000e-03 1.000e-03 1.000e-03 1.000e-03 1.000e-03 1.000e-03 1.000e-03 1.000e-03 1.000e-03
           </DataArray>
           <DataArray type="Float32" Name="nitrate/Imax" NumberOfComponents="1" format="ascii">
 1.900e+00 1.900e+00 1.900e+00 1.900e+00 1.900e+00 1.900e+00 1.900e+00 1.900e+00 1.900e+00 1.900e+00 1.900e+00 1.900e+00 1.900e+00 1.900e+00 1.900e+00 1.900e+00 1.900e+00 1.900e+00 1.900e+00 1.900e+00 1.900e+00 1.900e+00 1.900e+00 1.900e+00 1.900e+00 1.900e+00 1.900e+00 1.900e+00 1.900e+00 1.900e+00 1.900e+00 1.900e+00 1.900e+00 1.900e+00 1.900e+00 1.900e+00 1.900e+00 1.900e+00 1.900e+00 1.900e+00 1.900e+00 1.900e+00 1.900e+00 1.900e+00 1.900e+00 1.900e+00 1.900e+00 1.900e+00 1.900e+00 1.900e+00 1.900e+00 1.900e+00 1.900e+00 1.900e+00 1.900e+00 1.900e+00 1.900e+00 1.900e+00 1.900e+00 1.900e+00 1.900e+00 1.900e+00 1.900e+00 1.900e+00 1.900e+00 1.900e+00 1.900e+00 1.900e+00 1.900e+00 1.900e+00 1.900e+00 1.900e+00 1.900e+00 1.900e+00 1.900e+00 1.900e+00 1.900e+00 1.900e+00 1.900e+00 1.900e+00 1.900e+00 1.900e+00 1.900e+00 1.900e+00 1.900e+00 1.900e+00 1.900e+00 1.900e+00 1.900e+00 1.900e+00 1.900e+00 1.900e+00 1.900e+00 1.900e+00 1.900e+00 1.900e+00 1.900e+00 1.900e+00 1.900e+00 1.900e+00 1.900e+00 1.900e+00 1.900e+00 1.900e+00 1.900e+00 1.900e+00 1.900e+00 1.900e+00 1.900e+00 1.900e+00 1.900e+00 1.900e+00 1.900e+00 1.900e+00 1.900e+00 1.900e+00 1.900e+00 1.900e+00 1.900e+00 1.900e+00 1.900e+00 1.900e+00 1.900e+00 1.900e+00 1.900e+00 1.900e+00 1.900e+00 1.900e+00 1.900e+00 1.900e+00 1.900e+00 1.900e+00 1.900e+00 1.900e+00 1.900e+00 1.900e+00 1.900e+00 1.900e+00 1.900e+00 1.900e+00 1.900e+00 1.900e+00 1.900e+00 1.900e+00 1.900e+00 1.900e+00 1.900e+00 1.900e+00 1.900e+00 1.900e+00 1.900e+00 1.900e+00 1.900e+00 1.900e+00 1.900e+00 1.900e+00 1.900e+00 1.900e+00 1.900e+00 1.900e+00 1.900e+00 1.900e+00 1.900e+00 1.900e+00 1.900e+00 1.900e+00 1.900e+00 1.900e+00 1.900e+00 1.900e+00 1.900e+00 1.900e+00 1.900e+00 1.900e+00 1.900e+00 1.900e+00 1.900e+00 1.900e+00 1.900e+00 1.900e+00 1.900e+00 1.900e+00 1.900e+00 1.900e+00 1.900e+00 1.900e+00 1.900e+00 1.900e+00 1.900e+00 1.900e+00 1.900e+00 1.900e+00 1.900e+00 1.900e+00 1.900e+00 1.900e+00 1.900e+00 1.900e+00 1.900e+00 1.900e+00 1.900e+00 1.900e+00 1.900e+00 1.900e+00 1.900e+00 1.900e+00 1.900e+00 1.900e+00 1.900e+00 1.900e+00 1.900e+00 1.900e+00 1.900e+00 1.900e+00 1.900e+00 1.900e+00 1.900e+00 1.900e+00 1.900e+00 1.900e+00 1.900e+00 1.900e+00 1.900e+00 1.900e+00 1.900e+00 1.900e+00 1.900e+00 1.900e+00 1.900e+00 1.900e+00 1.900e+00 1.900e+00 1.900e+00 1.900e+00 1.900e+00 1.900e+00 1.900e+00 1.900e+00 1.900e+00 1.900e+00 1.900e+00 1.900e+00 1.900e+00 1.900e+00 1.900e+00 1.900e+00 1.900e+00 1.900e+00 1.900e+00 1.900e+00 1.900e+00 1.900e+00 1.900e+00 1.900e+00 1.900e+00 1.900e+00 1.900e+00 1.900e+00 1.900e+00 1.900e+00 1.900e+00 1.900e+00 1.900e+00 1.900e+00 1.900e+00 1.900e+00 1.900e+00 1.900e+00 1.900e+00 1.900e+00 1.900e+00 1.900e+00 1.900e+00 1.900e+00 1.900e+00 1.900e+00 1.900e+00 1.900e+00 1.900e+00 1.900e+00 1.900e+00 1.900e+00 1.900e+00 1.900e+00 1.900e+00 1.900e+00 1.900e+00 1.900e+00 1.900e+00 1.900e+00 1.900e+00 1.900e+00 1.900e+00 1.900e+00 1.900e+00 1.900e+00 1.900e+00 1.900e+00 1.900e+00 1.900e+00 1.900e+00 1.900e+00 1.900e+00 1.900e+00 1.900e+00 1.900e+00 1.900e+00 1.900e+00 1.900e+00 1.900e+00 1.900e+00 1.900e+00 1.900e+00 1.900e+00 1.900e+00 1.900e+00 1.900e+00 1.900e+00 1.900e+00 1.900e+00 1.900e+00 1.900e+00 1.900e+00 1.900e+00 1.900e+00
           </DataArray>
           <DataArray type="Float32" Name="nitrate/Km" NumberOfComponents="1" format="ascii">
 1.610e-02 1.610e-02 1.610e-02 1.610e-02 1.610e-02 1.610e-02 1.610e-02 1.610e-02 1.610e-02 1.610e-02 1.610e-02 1.610e-02 1.610e-02 1.610e-02 1.610e-02 1.610e-02 1.610e-02 1.610e-02 1.610e-02 1.610e-02 1.610e-02 1.610e-02 1.610e-02 1.610e-02 1.610e-02 1.610e-02 1.610e-02 1.610e-02 1.610e-02 1.610e-02 1.610e-02 1.610e-02 1.610e-02 1.610e-02 1.610e-02 1.610e-02 1.610e-02 1.610e-02 1.610e-02 1.610e-02 1.610e-02 1.610e-02 1.610e-02 1.610e-02 1.610e-02 1.610e-02 1.610e-02 1.610e-02 1.610e-02 1.610e-02 1.610e-02 1.610e-02 1.610e-02 1.610e-02 1.610e-02 1.610e-02 1.610e-02 1.610e-02 1.610e-02 1.610e-02 1.610e-02 1.610e-02 1.610e-02 1.610e-02 1.610e-02 1.610e-02 1.610e-02 1.610e-02 1.610e-02 1.610e-02 1.610e-02 1.610e-02 1.610e-02 1.610e-02 1.610e-02 1.610e-02 1.610e-02 1.610e-02 1.610e-02 1.610e-02 1.610e-02 1.610e-02 1.610e-02 1.610e-02 1.610e-02 1.610e-02 1.610e-02 1.610e-02 1.610e-02 1.610e-02 1.610e-02 1.610e-02 1.610e-02 1.610e-02 1.610e-02 1.610e-02 1.610e-02 1.610e-02 1.610e-02 1.610e-02 1.610e-02 1.610e-02 1.610e-02 1.610e-02 1.610e-02 1.610e-02 1.610e-02 1.610e-02 1.610e-02 1.610e-02 1.610e-02 1.610e-02 1.610e-02 1.610e-02 1.610e-02 1.610e-02 1.610e-02 1.610e-02 1.610e-02 1.610e-02 1.610e-02 1.610e-02 1.610e-02 1.610e-02 1.610e-02 1.610e-02 1.610e-02 1.610e-02 1.610e-02 1.610e-02 1.610e-02 1.610e-02 1.610e-02 1.610e-02 1.610e-02 1.610e-02 1.610e-02 1.610e-02 1.610e-02 1.610e-02 1.610e-02 1.610e-02 1.610e-02 1.610e-02 1.610e-02 1.610e-02 1.610e-02 1.610e-02 1.610e-02 1.610e-02 1.610e-02 1.610e-02 1.610e-02 1.610e-02 1.610e-02 1.610e-02 1.610e-02 1.610e-02 1.610e-02 1.610e-02 1.610e-02 1.610e-02 1.610e-02 1.610e-02 1.610e-02 1.610e-02 1.610e-02 1.610e-02 1.610e-02 1.610e-02 1.610e-02 1.610e-02 1.610e-02 1.610e-02 1.610e-02 1.610e-02 1.610e-02 1.610e-02 1.610e-02 1.610e-02 1.610e-02 1.610e-02 1.610e-02 1.610e-02 1.610e-02 1.610e-02 1.610e-02 1.610e-02 1.610e-02 1.610e-02 1.610e-02 1.610e-02 1.610e-02 1.610e-02 1.610e-02 1.610e-02 1.610e-02 1.610e-02 1.610e-02 1.610e-02 1.610e-02 1.610e-02 1.610e-02 1.610e-02 1.610e-02 1.610e-02 1.610e-02 1.610e-02 1.610e-02 1.610e-02 1.610e-02 1.610e-02 1.610e-02 1.610e-02 1.610e-02 1.610e-02 1.610e-02 1.610e-02 1.610e-02 1.610e-02 1.610e-02 1.610e-02 1.610e-02 1.610e-02 1.610e-02 1.610e-02 1.610e-02 1.610e-02 1.610e-02 1.610e-02 1.610e-02 1.610e-02 1.610e-02 1.610e-02 1.610e-02 1.610e-02 1.610e-02 1.610e-02 1.610e-02 1.610e-02 1.610e-02 1.610e-02 1.610e-02 1.610e-02 1.610e-02 1.610e-02 1.610e-02 1.610e-02 1.610e-02 1.610e-02 1.610e-02 1.610e-02 1.610e-02 1.610e-02 1.610e-02 1.610e-02 1.610e-02 1.610e-02 1.610e-02 1.610e-02 1.610e-02 1.610e-02 1.610e-02 1.610e-02 1.610e-02 1.610e-02 1.610e-02 1.610e-02 1.610e-02 1.610e-02 1.610e-02 1.610e-02 1.610e-02 1.610e-02 1.610e-02 1.610e-02 1.610e-02 1.610e-02 1.610e-02 1.610e-02 1.610e-02 1.610e-02 1.610e-02 1.610e-02 1.610e-02 1.610e-02 1.610e-02 1.610e-02 1.610e-02 1.610e-02 1.610e-02 1.610e-02 1.610e-02 1.610e-02 1.610e-02 1.610e-02 1.610e-02 1.610e-02 1.610e-02 1.610e-02 1.610e-02 1.610e-02 1.610e-02 1.610e-02 1.610e-02 1.610e-02 1.610e-02 1.610e-02 1.610e-02 1.610e-02 1.610e-02 1.610e-02 1.610e-02 1.610e-02 1.610e-02 1.610e-02 1.610e-02 1.610e-02 1.610e-02 1.610e-02 1.610e-02 1.610e-02 1.610e-02 1.610e-02 1.610e-02
           </DataArray>
           <DataArray type="Float32" Name="nitrate/minimalNutrientConcentration" NumberOfComponents="1" format="ascii">
 6.000e+02 6.000e+02 6.000e+02 6.000e+02 6.000e+02 6.000e+02 6.000e+02 6.000e+02 6.000e+02 6.000e+02 6.000e+02 6.000e+02 6.000e+02 6.000e+02 6.000e+02 6.000e+02 6.000e+02 6.000e+02 6.000e+02 6.000e+02 6.000e+02 6.000e+02 6.000e+02 6.000e+02 6.000e+02 6.000e+02 6.000e+02 6.000e+02 6.000e+02 6.000e+02 6.000e+02 6.000e+02 6.000e+02 6.000e+02 6.000e+02 6.000e+02 6.000e+02 6.000e+02 6.000e+02 6.000e+02 6.000e+02 6.000e+02 6.000e+02 6.000e+02 6.000e+02 6.000e+02 6.000e+02 6.000e+02 6.000e+02 6.000e+02 6.000e+02 6.000e+02 6.000e+02 6.000e+02 6.000e+02 6.000e+02 6.000e+02 6.000e+02 6.000e+02 6.000e+02 6.000e+02 6.000e+02 6.000e+02 6.000e+02 6.000e+02 6.000e+02 6.000e+02 6.000e+02 6.000e+02 6.000e+02 6.000e+02 6.000e+02 6.000e+02 6.000e+02 6.000e+02 6.000e+02 6.000e+02 6.000e+02 6.000e+02 6.000e+02 6.000e+02 6.000e+02 6.000e+02 6.000e+02 6.000e+02 6.000e+02 6.000e+02 6.000e+02 6.000e+02 6.000e+02 6.000e+02 6.000e+02 6.000e+02 6.000e+02 6.000e+02 6.000e+02 6.000e+02 6.000e+02 6.000e+02 6.000e+02 6.000e+02 6.000e+02 6.000e+02 6.000e+02 6.000e+02 6.000e+02 6.000e+02 6.000e+02 6.000e+02 6.000e+02 6.000e+02 6.000e+02 6.000e+02 6.000e+02 6.000e+02 6.000e+02 6.000e+02 6.000e+02 6.000e+02 6.000e+02 6.000e+02 6.000e+02 6.000e+02 6.000e+02 6.000e+02 6.000e+02 6.000e+02 6.000e+02 6.000e+02 6.000e+02 6.000e+02 6.000e+02 6.000e+02 6.000e+02 6.000e+02 6.000e+02 6.000e+02 6.000e+02 6.000e+02 6.000e+02 6.000e+02 6.000e+02 6.000e+02 6.000e+02 6.000e+02 6.000e+02 6.000e+02 6.000e+02 6.000e+02 6.000e+02 6.000e+02 6.000e+02 6.000e+02 6.000e+02 6.000e+02 6.000e+02 6.000e+02 6.000e+02 6.000e+02 6.000e+02 6.000e+02 6.000e+02 6.000e+02 6.000e+02 6.000e+02 6.000e+02 6.000e+02 6.000e+02 6.000e+02 6.000e+02 6.000e+02 6.000e+02 6.000e+02 6.000e+02 6.000e+02 6.000e+02 6.000e+02 6.000e+02 6.000e+02 6.000e+02 6.000e+02 6.000e+02 6.000e+02 6.000e+02 6.000e+02 6.000e+02 6.000e+02 6.000e+02 6.000e+02 6.000e+02 6.000e+02 6.000e+02 6.000e+02 6.000e+02 6.000e+02 6.000e+02 6.000e+02 6.000e+02 6.000e+02 6.000e+02 6.000e+02 6.000e+02 6.000e+02 6.000e+02 6.000e+02 6.000e+02 6.000e+02 6.000e+02 6.000e+02 6.000e+02 6.000e+02 6.000e+02 6.000e+02 6.000e+02 6.000e+02 6.000e+02 6.000e+02 6.000e+02 6.000e+02 6.000e+02 6.000e+02 6.000e+02 6.000e+02 6.000e+02 6.000e+02 6.000e+02 6.000e+02 6.000e+02 6.000e+02 6.000e+02 6.000e+02 6.000e+02 6.000e+02 6.000e+02 6.000e+02 6.000e+02 6.000e+02 6.000e+02 6.000e+02 6.000e+02 6.000e+02 6.000e+02 6.000e+02 6.000e+02 6.000e+02 6.000e+02 6.000e+02 6.000e+02 6.000e+02 6.000e+02 6.000e+02 6.000e+02 6.000e+02 6.000e+02 6.000e+02 6.000e+02 6.000e+02 6.000e+02 6.000e+02 6.000e+02 6.000e+02 6.000e+02 6.000e+02 6.000e+02 6.000e+02 6.000e+02 6.000e+02 6.000e+02 6.000e+02 6.000e+02 6.000e+02 6.000e+02 6.000e+02 6.000e+02 6.000e+02 6.000e+02 6.000e+02 6.000e+02 6.000e+02 6.000e+02 6.000e+02 6.000e+02 6.000e+02 6.000e+02 6.000e+02 6.000e+02 6.000e+02 6.000e+02 6.000e+02 6.000e+02 6.000e+02 6.000e+02 6.000e+02 6.000e+02 6.000e+02 6.000e+02 6.000e+02 6.000e+02 6.000e+02 6.000e+02 6.000e+02 6.000e+02 6.000e+02 6.000e+02 6.000e+02 6.000e+02 6.000e+02 6.000e+02 6.000e+02 6.000e+02 6.000e+02 6.000e+02 6.000e+02 6.000e+02 6.000e+02 6.000e+02 6.000e+02 6.000e+02 6.000e+02 6.000e+02 6.000e+02 6.000e+02 6.000e+02 6.000e+02 6.000e+02
           </DataArray>
           <DataArray type="Float32" Name="nitrate/nutrientConcentrationAtTheRootSurface" NumberOfComponents="1" format="ascii">