<?xml version="1.0"?>
<VTKFile type="UnstructuredGrid" version="0.1" byte_order="LittleEndian">
   <UnstructuredGrid>
      <Piece NumberOfPoints="260" NumberOfCells="24">
         <Points>
            <DataArray type="Float32" Name="Position" NumberOfComponents="3" format="ascii">
-0.143	-5.001	0.145
-0.031	-5.002	0.201
0.093	-5.002	0.181
0.182	-5.002	0.092
0.201	-5.000	-0.033
0.143	-4.999	-0.145
0.031	-4.998	-0.201
-0.093	-4.998	-0.181
-0.182	-4.998	-0.092
-0.201	-5.000	0.033
-0.140	-4.251	0.153
-0.029	-4.252	0.209
0.095	-4.252	0.189
0.183	-4.252	0.100
0.203	-4.250	-0.023
0.145	-4.249	-0.135
0.034	-4.248	-0.191
-0.090	-4.248	-0.171
-0.178	-4.249	-0.083
-0.198	-4.250	0.041
-0.138	-3.560	0.157
-0.026	-3.561	0.213
0.097	-3.561	0.194
0.185	-3.561	0.106
0.205	-3.561	-0.018
0.148	-3.560	-0.129
0.037	-3.559	-0.186
-0.087	-3.559	-0.166
-0.175	-3.559	-0.078
-0.195	-3.559	0.045
-0.133	-2.400	0.158
-0.022	-2.400	0.214
0.102	-2.401	0.195
0.190	-2.401	0.107
0.210	-2.401	-0.016
0.153	-2.400	-0.127
0.042	-2.400	-0.184
-0.081	-2.400	-0.165
-0.169	-2.399	-0.077
-0.189	-2.399	0.046
-0.131	-1.800	0.158
-0.020	-1.800	0.215
0.103	-1.801	0.195
0.191	-1.801	0.107
0.211	-1.801	-0.016
0.154	-1.800	-0.127
0.043	-1.800	-0.183
-0.080	-1.800	-0.164
-0.168	-1.800	-0.076
-0.187	-1.800	0.047
-0.129	-1.200	0.160
-0.018	-1.201	0.216
0.104	-1.201	0.197
0.192	-1.201	0.109
0.212	-1.201	-0.014
0.155	-1.200	-0.125
0.045	-1.200	-0.181
-0.078	-1.199	-0.162
-0.166	-1.199	-0.074
-0.186	-1.200	0.049
-0.126	-0.300	0.162
-0.015	-0.300	0.218
0.108	-0.301	0.199
0.196	-0.301	0.111
0.215	-0.301	-0.011
0.159	-0.301	-0.122
0.049	-0.300	-0.179
-0.074	-0.299	-0.159
-0.162	-0.299	-0.072
-0.182	-0.299	0.051
-0.120	0.561	0.162
-0.010	0.560	0.218
0.113	0.560	0.199
0.201	0.559	0.112
0.221	0.559	-0.011
0.165	0.559	-0.121
0.054	0.559	-0.178
-0.068	0.560	-0.159
-0.156	0.561	-0.072
-0.176	0.561	0.051
-0.116	1.440	0.160
-0.006	1.440	0.216
0.117	1.440	0.197
0.204	1.440	0.110
0.224	1.439	-0.013
0.168	1.439	-0.123
0.058	1.439	-0.180
-0.065	1.440	-0.160
-0.152	1.440	-0.073
-0.172	1.440	0.049
-0.116	2.317	0.159
-0.006	2.317	0.215
0.116	2.317	0.196
0.204	2.316	0.109
0.223	2.316	-0.014
0.168	2.316	-0.124
0.057	2.316	-0.180
-0.065	2.316	-0.161
-0.152	2.316	-0.074
-0.172	2.316	0.048
-0.116	2.470	0.158
-0.006	2.470	0.214
0.116	2.470	0.195
0.204	2.470	0.108
0.224	2.469	-0.014
0.168	2.469	-0.124
0.058	2.469	-0.180
-0.064	2.469	-0.161
-0.152	2.470	-0.074
-0.171	2.470	0.048
0.033	-5.000	-0.033
0.046	-4.999	-0.007
0.042	-4.999	0.021
0.021	-4.999	0.042
-0.007	-4.999	0.046
-0.033	-5.000	0.033
-0.046	-5.001	0.007
-0.042	-5.001	-0.021
-0.021	-5.001	-0.042
0.007	-5.001	-0.046
0.047	-5.707	-0.017
0.060	-5.706	0.009
0.055	-5.705	0.038
0.034	-5.704	0.058
0.005	-5.704	0.062
-0.020	-5.705	0.048
-0.033	-5.707	0.023
-0.028	-5.708	-0.006
-0.007	-5.709	-0.026
0.021	-5.708	-0.030
0.056	-6.414	0.036
0.068	-6.412	0.062
0.063	-6.410	0.090
0.042	-6.409	0.110
0.013	-6.408	0.113
-0.012	-6.409	0.099
-0.024	-6.411	0.073
-0.019	-6.413	0.045
0.002	-6.414	0.026
0.031	-6.415	0.022
0.042	-7.120	0.082
0.054	-7.118	0.108
0.048	-7.116	0.136
0.027	-7.114	0.155
-0.001	-7.113	0.158
-0.026	-7.113	0.144
-0.038	-7.115	0.118
-0.032	-7.118	0.090
-0.011	-7.120	0.071
0.017	-7.121	0.068
0.026	-7.823	0.153
0.037	-7.821	0.179
0.032	-7.818	0.206
0.011	-7.816	0.226
-0.017	-7.816	0.229
-0.042	-7.817	0.215
-0.054	-7.819	0.189
-0.048	-7.822	0.161
-0.027	-7.824	0.142
0.001	-7.824	0.139
0.033	-8.528	0.214
0.044	-8.526	0.239
0.038	-8.523	0.267
0.017	-8.521	0.286
-0.011	-8.520	0.288
-0.036	-8.520	0.274
-0.047	-8.522	0.248
-0.041	-8.525	0.221
-0.020	-8.528	0.202
0.008	-8.529	0.199
-0.012	-9.229	0.287
-0.001	-9.228	0.313
-0.006	-9.226	0.341
-0.027	-9.224	0.359
-0.055	-9.222	0.362
-0.080	-9.222	0.348
-0.091	-9.223	0.322
-0.085	-9.225	0.295
-0.065	-9.227	0.276
-0.037	-9.229	0.273
-0.030	-9.934	0.305
-0.018	-9.934	0.330
-0.023	-9.933	0.358
-0.044	-9.931	0.377
-0.072	-9.930	0.380
-0.096	-9.929	0.366
-0.108	-9.929	0.341
-0.103	-9.931	0.313
-0.082	-9.932	0.294
-0.054	-9.934	0.291
-0.081	-10.639	0.335
-0.069	-10.639	0.361
-0.075	-10.637	0.388
-0.096	-10.635	0.407
-0.124	-10.633	0.410
-0.148	-10.633	0.396
-0.159	-10.634	0.370
-0.154	-10.635	0.343
-0.133	-10.637	0.324
-0.105	-10.639	0.321
-0.099	-11.344	0.383
-0.088	-11.342	0.408
-0.093	-11.340	0.436
-0.114	-11.338	0.454
-0.142	-11.338	0.458
-0.166	-11.339	0.444
-0.178	-11.340	0.419
-0.172	-11.342	0.391
-0.152	-11.344	0.372
-0.124	-11.345	0.369
-0.099	-12.048	0.441
-0.088	-12.045	0.466
-0.093	-12.043	0.493
-0.113	-12.041	0.512
-0.141	-12.042	0.516
-0.165	-12.043	0.502
-0.177	-12.046	0.477
-0.172	-12.048	0.450
-0.152	-12.049	0.431
-0.124	-12.049	0.427
-0.075	-12.751	0.509
-0.063	-12.748	0.534
-0.068	-12.745	0.562
-0.089	-12.743	0.581
-0.116	-12.744	0.584
-0.141	-12.746	0.571
-0.153	-12.750	0.546
-0.147	-12.753	0.518
-0.127	-12.754	0.500
-0.099	-12.754	0.496
-0.044	-13.450	0.611
-0.032	-13.447	0.636
-0.038	-13.443	0.663
-0.058	-13.442	0.681
-0.086	-13.443	0.685
-0.110	-13.445	0.671
-0.122	-13.449	0.646
-0.116	-13.452	0.619
-0.096	-13.454	0.601
-0.068	-13.453	0.597
-0.021	-14.152	0.687
-0.009	-14.149	0.712
-0.014	-14.146	0.739
-0.034	-14.144	0.758
-0.062	-14.145	0.761
-0.086	-14.148	0.748
-0.098	-14.151	0.723
-0.093	-14.154	0.696
-0.072	-14.156	0.677
-0.045	-14.155	0.673
-0.010	-14.415	0.748
0.002	-14.391	0.748
-0.002	-14.363	0.748
-0.022	-14.343	0.748
-0.049	-14.339	0.748
-0.074	-14.352	0.748
-0.087	-14.376	0.748
-0.082	-14.404	0.748
-0.063	-14.424	0.748
-0.035	-14.428	0.748
		    </DataArray>
         </Points>
         <Cells>
            <DataArray type="Int32" Name="connectivity" NumberOfComponents="1" format="ascii">
 0 10 1 11 2 12 3 13 4 14 5 15 6 16 7 17 8 18 9 19 0 10
 10 20 11 21 12 22 13 23 14 24 15 25 16 26 17 27 18 28 19 29 10 20
 20 30 21 31 22 32 23 33 24 34 25 35 26 36 27 37 28 38 29 39 20 30
 30 40 31 41 32 42 33 43 34 44 35 45 36 46 37 47 38 48 39 49 30 40
 40 50 41 51 42 52 43 53 44 54 45 55 46 56 47 57 48 58 49 59 40 50
 50 60 51 61 52 62 53 63 54 64 55 65 56 66 57 67 58 68 59 69 50 60
 60 70 61 71 62 72 63 73 64 74 65 75 66 76 67 77 68 78 69 79 60 70
 70 80 71 81 72 82 73 83 74 84 75 85 76 86 77 87 78 88 79 89 70 80
 80 90 81 91 82 92 83 93 84 94 85 95 86 96 87 97 88 98 89 99 80 90
 90 100 91 101 92 102 93 103 94 104 95 105 96 106 97 107 98 108 99 109 90 100
 110 120 111 121 112 122 113 123 114 124 115 125 116 126 117 127 118 128 119 129 110 120
 120 130 121 131 122 132 123 133 124 134 125 135 126 136 127 137 128 138 129 139 120 130
 130 140 131 141 132 142 133 143 134 144 135 145 136 146 137 147 138 148 139 149 130 140
 140 150 141 151 142 152 143 153 144 154 145 155 146 156 147 157 148 158 149 159 140 150
 150 160 151 161 152 162 153 163 154 164 155 165 156 166 157 167 158 168 159 169 150 160
 160 170 161 171 162 172 163 173 164 174 165 175 166 176 167 177 168 178 169 179 160 170
 170 180 171 181 172 182 173 183 174 184 175 185 176 186 177 187 178 188 179 189 170 180
 180 190 181 191 182 192 183 193 184 194 185 195 186 196 187 197 188 198 189 199 180 190
 190 200 191 201 192 202 193 203 194 204 195 205 196 206 197 207 198 208 199 209 190 200
 200 210 201 211 202 212 203 213 204 214 205 215 206 216 207 217 208 218 209 219 200 210
 210 220 211 221 212 222 213 223 214 224 215 225 216 226 217 227 218 228 219 229 210 220
 220 230 221 231 222 232 223 233 224 234 225 235 226 236 227 237 228 238 229 239 220 230
 230 240 231 241 232 242 233 243 234 244 235 245 236 246 237 247 238 248 239 249 230 240
 240 250 241 251 242 252 243 253 244 254 245 255 246 256 247 257 248 258 249 259 240 250

            </DataArray>
            <DataArray type="Int32" Name="offsets" NumberOfComponents="1" format="ascii">
 22 44 66 88 110 132 154 176 198 220 242 264 286 308 330 352 374 396 418 440 462 484 506 528
            </DataArray>
            <DataArray type="UInt8"  Name="types" NumberOfComponents="1" format="ascii">
6 6 6 6 6 6 6 6 6 6 6 6 6 6 6 6 6 6 6 6 6 6 6 6
            </DataArray>
         </Cells>
         <CellData>
           <DataArray type="Float32" Name="combinedRootClassID" NumberOfComponents="1" format="ascii">
 -2.000e+00 -2.000e+00 -2.000e+00 -2.000e+00 -2.000e+00 -2.000e+00 -2.000e+00 -2.000e+00 -2.000e+00 -2.000e+00 -4.000e+00 -4.000e+00 -4.000e+00 -4.000e+00 -4.000e+00 -4.000e+00 -4.000e+00 -4.000e+00 -4.000e+00 -4.000e+00 -4.000e+00 -4.000e+00 -4.000e+00 -4.000e+00
           </DataArray>
           <DataArray type="Float32" Name="nitrate/Cmin" NumberOfComponents="1" format="ascii">
 1.000e-03 1.000e-03 1.000e-03 1.000e-03 1.000e-03 1.000e-03 1.000e-03 1.000e-03 1.000e-03 1.000e-03 1.000e-03 1.000e-03 1.000e-03 1.000e-03 1.000e-03 1.000e-03 1.000e-03 1.000e-03 1.000e-03 1.000e-03 1.000e-03 1.000e-03 1.000e-03 1.000e-03
           </DataArray>
           <DataArray type="Float32" Name="nitrate/Imax" NumberOfComponents="1" format="ascii">
 1.900e+00 1.900e+00 1.900e+00 1.900e+00 1.900e+00 1.900e+00 1.900e+00 1.900e+00 1.900e+00 1.900e+00 1.900e+00 1.900e+00 1.900e+00 1.900e+00 1.900e+00 1.900e+00 1.900e+00 1.900e+00 1.900e+00 1.900e+00 1.900e+00 1.900e+00 1.900e+00 1.900e+00
           </DataArray>
           <DataArray type="Float32" Name="nitrate/Km" NumberOfComponents="1" format="ascii">
 1.610e-02 1.610e-02 1.610e-02 1.610e-02 1.610e-02 1.610e-02 1.610e-02 1.610e-02 1.610e-02 1.610e-02 1.610e-02 1.610e-02 1.610e-02 1.610e-02 1.610e-02 1.610e-02 1.610e-02 1.610e-02 1.610e-02 1.610e-02 1.610e-02 1.610e-02 1.610e-02 1.610e-02
           </DataArray>
           <DataArray type="Float32" Name="nitrate/minimalNutrientConcentration" NumberOfComponents="1" format="ascii">
 6.000e+02 6.000e+02 6.000e+02 6.000e+02 6.000e+02 6.000e+02 6.000e+02 6.000e+02 6.000e+02 6.000e+02 6.000e+02 6.000e+02 6.000e+02 6.000e+02 6.000e+02 6.000e+02 6.000e+02 6.000e+02 6.000e+02 6.000e+02 6.000e+02 6.000e+02 6.000e+02 6.000e+02
           </DataArray>
           <DataArray type="Float32" Name="nitrate/nutrientConcentrationAtTheRootSurface" NumberOfComponents="1" format="ascii">
 2.570e-01 2.293e-01 2.057e-01 1.608e-01 1.391e-01 1.133e-01 7.758e-02 0.000e+00 0.000e+00 0.000e+00 2.570e-01 2.747e-01 2.886e-01 2.969e-01 3.094e-01 3.247e-01 3.251e-01 3.335e-01 3.544e-01 3.584e-01 3.544e-01 3.683e-01 3.881e-01 4.045e-01
           </DataArray>
           <DataArray type="Float32" Name="nitrate/optimalNutrientConcentration" NumberOfComponents="1" format="ascii">
 1.200e+03 1.200e+03 1.200e+03 1.200e+03 1.200e+03 1.200e+03 1.200e+03 1.200e+03 1.200e+03 1.200e+03 1.200e+03 1.200e+03 1.200e+03 1.200e+03 1.200e+03 1.200e+03 1.200e+03 1.200e+03 1.200e+03 1.200e+03 1.200e+03 1.200e+03 1.200e+03 1.200e+03
           </DataArray>
           <DataArray type="Float32" Name="nitrate/rootSegmentMinimalNutrientContent" NumberOfComponents="1" format="ascii">
 5.503e+00 5.022e+00 8.407e+00 4.326e+00 4.316e+00 6.459e+00 6.154e+00 6.281e+00 6.238e+00 1.089e+00 2.768e-01 2.734e-01 2.703e-01 2.674e-01 2.649e-01 2.626e-01 2.606e-01 2.588e-01 2.573e-01 2.561e-01 2.551e-01 2.544e-01 2.539e-01 8.457e-02
           </DataArray>
           <DataArray type="Float32" Name="nitrate/rootSegmentNutrientUptake" NumberOfComponents="1" format="ascii">
 0.000e+00 2.648e-01 2.359e-01 1.799e-01 1.489e-01 1.126e-01 5.724e-02 0.000e+00 0.000e+00 0.000e+00 0.000e+00 3.021e-01 3.006e-01 2.924e-01 2.847e-01 2.766e-01 2.528e-01 2.312e-01 2.103e-01 1.759e-01 1.351e-01 9.888e-02 5.696e-02 1.218e-02
           </DataArray>
           <DataArray type="Float32" Name="nitrate/rootSegmentOptimalNutrientContent" NumberOfComponents="1" format="ascii">
 1.101e+01 1.004e+01 1.681e+01 8.651e+00 8.631e+00 1.292e+01 1.231e+01 1.256e+01 1.248e+01 2.178e+00 5.535e-01 5.467e-01 5.405e-01 5.349e-01 5.298e-01 5.252e-01 5.212e-01 5.176e-01 5.147e-01 5.122e-01 5.102e-01 5.088e-01 5.079e-01 1.691e-01
           </DataArray>
           <DataArray type="Float32" Name="parentRootClassID" NumberOfComponents="1" format="ascii">
 -3.000e+00 -3.000e+00 -3.000e+00 -3.000e+00 -3.000e+00 -3.000e+00 -3.000e+00 -3.000e+00 -3.000e+00 -3.000e+00 -3.000e+00 -3.000e+00 -3.000e+00 -3.000e+00 -3.000e+00 -3.000e+00 -3.000e+00 -3.000e+00 -3.000e+00 -3.000e+00 -3.000e+00 -3.000e+00 -3.000e+00 -3.000e+00
           </DataArray>
           <DataArray type="Float32" Name="plantID" NumberOfComponents="1" format="ascii">
 5.000e+00 5.000e+00 5.000e+00 5.000e+00 5.000e+00 5.000e+00 5.000e+00 5.000e+00 5.000e+00 5.000e+00 5.000e+00 5.000e+00 5.000e+00 5.000e+00 5.000e+00 5.000e+00 5.000e+00 5.000e+00 5.000e+00 5.000e+00 5.000e+00 5.000e+00 5.000e+00 5.000e+00
           </DataArray>
           <DataArray type="Float32" Name="plantTypeID" NumberOfComponents="1" format="ascii">
 0.000e+00 0.000e+00 0.000e+00 0.000e+00 0.000e+00 0.000e+00 0.000e+00 0.000e+00 0.000e+00 0.000e+00 0.000e+00 0.000e+00 0.000e+00 0.000e+00 0.000e+00 0.000e+00 0.000e+00 0.000e+00 0.000e+00 0.000e+00 0.000e+00 0.000e+00 0.000e+00 0.000e+00
           </DataArray>
           <DataArray type="Float32" Name="rootCircumference" NumberOfComponents="1" format="ascii">
 1.279e+00 1.273e+00 1.271e+00 1.267e+00 1.266e+00 1.265e+00 1.263e+00 1.261e+00 1.259e+00 1.257e+00 2.953e-01 2.935e-01 2.918e-01 2.903e-01 2.889e-01 2.877e-01 2.865e-01 2.856e-01 2.848e-01 2.841e-01 2.835e-01 2.831e-01 2.829e-01 2.828e-01
           </DataArray>
           <DataArray type="Float32" Name="rootClassID" NumberOfComponents="1" format="ascii">
 -2.000e+00 -2.000e+00 -2.000e+00 -2.000e+00 -2.000e+00 -2.000e+00 -2.000e+00 -2.000e+00 -2.000e+00 -2.000e+00 -4.000e+00 -4.000e+00 -4.000e+00 -4.000e+00 -4.000e+00 -4.000e+00 -4.000e+00 -4.000e+00 -4.000e+00 -4.000e+00 -4.000e+00 -4.000e+00 -4.000e+00 -4.000e+00
           </DataArray>
           <DataArray type="Float32" Name="rootDiameter" NumberOfComponents="1" format="ascii">
 4.070e-01 4.054e-01 4.045e-01 4.034e-01 4.030e-01 4.025e-01 4.019e-01 4.014e-01 4.009e-01 4.001e-01 9.400e-02 9.342e-02 9.289e-02 9.240e-02 9.196e-02 9.156e-02 9.121e-02 9.090e-02 9.064e-02 9.042e-02 9.025e-02 9.012e-02 9.004e-02 9.000e-02
           </DataArray>
           <DataArray type="Float32" Name="rootHairDensity" NumberOfComponents="1" format="ascii">
 0.000e+00 0.000e+00 0.000e+00 0.000e+00 0.000e+00 0.000e+00 0.000e+00 0.000e+00 0.000e+00 0.000e+00 2.000e+03 2.000e+03 2.000e+03 2.000e+03 2.000e+03 2.000e+03 2.000e+03 2.000e+03 2.000e+03 2.000e+03 2.000e+03 2.000e+03 2.000e+03 2.000e+03
           </DataArray>
           <DataArray type="Float32" Name="rootHairDiameter" NumberOfComponents="1" format="ascii">
 5.000e-04 5.000e-04 5.000e-04 5.000e-04 5.000e-04 5.000e-04 5.000e-04 5.000e-04 5.000e-04 5.000e-04 5.000e-04 5.000e-04 5.000e-04 5.000e-04 5.000e-04 5.000e-04 5.000e-04 5.000e-04 5.000e-04 5.000e-04 5.000e-04 5.000e-04 5.000e-04 5.000e-04
           </DataArray>
           <DataArray type="Float32" Name="rootHairLength" NumberOfComponents="1" format="ascii">
 3.000e-02 3.000e-02 3.000e-02 3.000e-02 3.000e-02 3.000e-02 3.000e-02 2.400e-02 1.200e-02 0.000e+00 3.000e-02 3.000e-02 3.000e-02 3.000e-02 3.000e-02 3.000e-02 3.000e-02 2.700e-02 1.800e-02 9.000e-03 0.000e+00 0.000e+00 0.000e+00 0.000e+00
           </DataArray>
           <DataArray type="Float32" Name="rootHairSurfaceArea" NumberOfComponents="1" format="ascii">
 0.000e+00 0.000e+00 0.000e+00 0.000e+00 0.000e+00 0.000e+00 0.000e+00 0.000e+00 0.000e+00 0.000e+00 9.425e-02 9.425e-02 9.425e-02 9.425e-02 9.425e-02 9.425e-02 9.425e-02 8.482e-02 5.655e-02 2.827e-02 0.000e+00 0.000e+00 0.000e+00 0.000e+00
           </DataArray>
           <DataArray type="Float32" Name="rootLength2Base" NumberOfComponents="1" format="ascii">
 0.000e+00 7.500e-01 1.440e+00 2.600e+00 3.200e+00 3.800e+00 4.700e+00 5.560e+00 6.440e+00 7.316e+00 0.000e+00 7.071e-01 1.414e+00 2.121e+00 2.828e+00 3.535e+00 4.243e+00 4.950e+00 5.657e+00 6.364e+00 7.071e+00 7.778e+00 8.485e+00 9.192e+00
           </DataArray>
           <DataArray type="Float32" Name="rootPotentialSecondaryGrowth" NumberOfComponents="1" format="ascii">
 4.070e-01 4.054e-01 4.045e-01 4.034e-01 4.030e-01 4.025e-01 4.019e-01 4.014e-01 4.009e-01 4.001e-01 9.400e-02 9.342e-02 9.289e-02 9.240e-02 9.196e-02 9.156e-02 9.121e-02 9.090e-02 9.064e-02 9.042e-02 9.025e-02 9.012e-02 9.004e-02 9.000e-02
           </DataArray>
           <DataArray type="Float32" Name="rootSegmentAge" NumberOfComponents="1" format="ascii">
 4.000e+00 3.500e+00 3.200e+00 2.800e+00 2.600e+00 2.400e+00 2.100e+00 1.800e+00 1.400e+00 5.000e-01 4.000e+00 3.700e+00 3.400e+00 3.100e+00 2.800e+00 2.500e+00 2.200e+00 1.900e+00 1.600e+00 1.300e+00 1.000e+00 7.000e-01 4.000e-01 1.000e-01
           </DataArray>
           <DataArray type="Float32" Name="rootSegmentCarbonCostOfExudates" NumberOfComponents="1" format="ascii">
 0.000e+00 0.000e+00 0.000e+00 0.000e+00 0.000e+00 0.000e+00 0.000e+00 0.000e+00 0.000e+00 0.000e+00 4.469e-05 4.143e-05 3.814e-05 3.455e-05 3.106e-05 2.752e-05 2.422e-05 2.087e-05 1.770e-05 1.425e-05 1.081e-05 7.083e-06 3.355e-06 2.239e-07
           </DataArray>
           <DataArray type="Float32" Name="rootSegmentDryWeight" NumberOfComponents="1" format="ascii">
 9.172e-03 8.370e-03 1.401e-02 7.210e-03 7.193e-03 1.077e-02 1.026e-02 1.047e-02 1.040e-02 1.815e-03 4.613e-04 4.556e-04 4.504e-04 4.457e-04 4.415e-04 4.377e-04 4.343e-04 4.314e-04 4.289e-04 4.268e-04 4.252e-04 4.240e-04 4.232e-04 1.410e-04
           </DataArray>
           <DataArray type="Float32" Name="rootSegmentLength" NumberOfComponents="1" format="ascii">
 7.500e-01 6.900e-01 1.160e+00 6.000e-01 6.000e-01 9.000e-01 8.600e-01 8.800e-01 8.764e-01 1.536e-01 7.071e-01 7.071e-01 7.071e-01 7.071e-01 7.071e-01 7.071e-01 7.071e-01 7.071e-01 7.071e-01 7.071e-01 7.071e-01 7.071e-01 7.071e-01 2.357e-01
           </DataArray>
           <DataArray type="Float32" Name="rootSegmentLengthDuration" NumberOfComponents="1" format="ascii">
 2.795e+00 2.311e+00 3.475e+00 1.620e+00 1.500e+00 2.030e+00 1.685e+00 1.419e+00 9.335e-01 4.388e-02 2.726e+00 2.514e+00 2.302e+00 2.090e+00 1.878e+00 1.666e+00 1.453e+00 1.241e+00 1.029e+00 8.171e-01 6.050e-01 3.928e-01 1.807e-01 2.357e-02
           </DataArray>
           <DataArray type="Float32" Name="rootSegmentRespiration" NumberOfComponents="1" format="ascii">
 3.669e-04 3.348e-04 5.604e-04 2.884e-04 2.877e-04 4.306e-04 4.103e-04 4.711e-04 5.718e-04 1.407e-04 1.845e-05 1.822e-05 1.802e-05 1.783e-05 1.766e-05 1.751e-05 1.737e-05 1.833e-05 2.144e-05 2.454e-05 2.764e-05 3.074e-05 3.386e-05 1.233e-05
           </DataArray>
           <DataArray type="Float32" Name="rootSegmentSecondaryPotentialCarbonSinkForGrowth" NumberOfComponents="1" format="ascii">
 1.239e-04 9.071e-05 1.223e-04 5.111e-05 4.379e-05 5.323e-05 3.820e-05 2.641e-05 1.039e-05 1.618e-07 1.603e-05 1.359e-05 1.136e-05 9.334e-06 7.515e-06 5.899e-06 4.482e-06 3.262e-06 2.239e-06 1.410e-06 7.729e-07 3.280e-07 7.402e-08 1.175e-09
           </DataArray>
           <DataArray type="Float32" Name="rootSegmentSurfaceArea" NumberOfComponents="1" format="ascii">
 9.590e-01 8.787e-01 1.474e+00 7.604e-01 7.596e-01 1.138e+00 1.086e+00 1.110e+00 1.104e+00 1.930e-01 2.088e-01 2.075e-01 2.063e-01 2.053e-01 2.043e-01 2.034e-01 2.026e-01 2.019e-01 2.013e-01 2.009e-01 2.005e-01 2.002e-01 2.000e-01 6.664e-02
           </DataArray>
           <DataArray type="Float32" Name="rootSegmentVolume" NumberOfComponents="1" format="ascii">
 9.758e-02 8.905e-02 1.491e-01 7.670e-02 7.652e-02 1.145e-01 1.091e-01 1.114e-01 1.106e-01 1.931e-02 4.907e-03 4.847e-03 4.792e-03 4.742e-03 4.696e-03 4.656e-03 4.620e-03 4.589e-03 4.563e-03 4.541e-03 4.523e-03 4.511e-03 4.502e-03 1.500e-03
           </DataArray>
           <DataArray type="Float32" Name="rootSegmentWaterUptake" NumberOfComponents="1" format="ascii">
 2.837e-02 2.610e-02 4.388e-02 2.269e-02 2.269e-02 3.404e-02 3.251e-02 0.000e+00 0.000e+00 0.000e+00 2.675e-02 2.675e-02 2.675e-02 2.675e-02 2.675e-02 2.675e-02 2.675e-02 2.661e-02 2.592e-02 2.400e-02 2.064e-02 1.533e-02 7.959e-03 5.638e-04
           </DataArray>
           <DataArray type="Float32" Name="spatialRootDensity" NumberOfComponents="1" format="ascii">
 3.376e-01 1.688e-01 0.000e+00 0.000e+00 0.000e+00 0.000e+00 0.000e+00 0.000e+00 0.000e+00 0.000e+00 3.438e-01 1.790e-01 0.000e+00 0.000e+00 0.000e+00 0.000e+00 0.000e+00 0.000e+00 0.000e+00 0.000e+00 0.000e+00 0.000e+00 0.000e+00 0.000e+00
           </DataArray>
           <DataArray type="Float32" Name="volumetricWaterContentAtTheRootSurface" NumberOfComponents="1" format="ascii">
 1.939e-01 1.939e-01 1.939e-01 1.939e-01 1.939e-01 1.939e-01 1.939e-01 0.000e+00 0.000e+00 0.000e+00 1.939e-01 1.939e-01 1.939e-01 1.939e-01 1.939e-01 1.939e-01 1.939e-01 1.939e-01 1.939e-01 1.939e-01 1.938e-01 1.938e-01 1.938e-01 1.938e-01
           </DataArray>
         </CellData>
      </Piece>
   </UnstructuredGrid>
</VTKFile>
