<?xml version="1.0"?>
<VTKFile type="UnstructuredGrid" version="0.1" byte_order="LittleEndian">
   <UnstructuredGrid>
      <Piece NumberOfPoints="44710" NumberOfCells="3210">
         <Points>
            <DataArray type="Float32" Name="Position" NumberOfComponents="3" format="ascii">
0.067	-5.026	0.141
0.070	-5.018	0.146
0.069	-5.009	0.147
0.065	-5.002	0.143
0.059	-4.999	0.137
0.053	-5.001	0.130
0.050	-5.009	0.125
0.051	-5.018	0.124
0.055	-5.025	0.128
0.061	-5.028	0.134
-0.568	-5.132	0.690
-0.565	-5.125	0.695
-0.566	-5.115	0.696
-0.570	-5.108	0.693
-0.576	-5.105	0.687
-0.582	-5.107	0.680
-0.585	-5.115	0.675
-0.584	-5.124	0.674
-0.580	-5.131	0.677
-0.574	-5.134	0.683
-1.209	-5.279	1.287
-1.206	-5.272	1.292
-1.207	-5.263	1.293
-1.211	-5.255	1.290
-1.217	-5.252	1.284
-1.223	-5.255	1.277
-1.226	-5.262	1.272
-1.226	-5.271	1.271
-1.221	-5.279	1.274
-1.215	-5.282	1.281
-1.857	-5.350	1.887
-1.854	-5.343	1.892
-1.855	-5.334	1.893
-1.860	-5.326	1.890
-1.866	-5.323	1.883
-1.871	-5.326	1.876
-1.874	-5.333	1.871
-1.873	-5.342	1.870
-1.868	-5.350	1.873
-1.862	-5.353	1.880
-2.298	-5.478	2.209
-2.298	-5.470	2.213
-2.298	-5.461	2.212
-2.298	-5.454	2.205
-2.298	-5.453	2.196
-2.298	-5.457	2.188
-2.298	-5.465	2.184
-2.298	-5.474	2.185
-2.298	-5.481	2.192
-2.298	-5.482	2.201
0.131	-5.064	0.261
0.133	-5.054	0.262
0.129	-5.046	0.264
0.121	-5.042	0.267
0.113	-5.044	0.271
0.106	-5.050	0.272
0.105	-5.059	0.271
0.108	-5.067	0.269
0.116	-5.072	0.265
0.124	-5.070	0.262
0.425	-5.177	1.048
0.428	-5.169	1.050
0.424	-5.160	1.052
0.417	-5.156	1.055
0.408	-5.157	1.057
0.401	-5.163	1.058
0.399	-5.172	1.056
0.402	-5.180	1.054
0.409	-5.184	1.051
0.418	-5.183	1.049
0.546	-5.429	1.853
0.549	-5.420	1.855
0.546	-5.412	1.858
0.539	-5.407	1.860
0.529	-5.407	1.861
0.522	-5.413	1.861
0.519	-5.422	1.859
0.522	-5.430	1.856
0.529	-5.435	1.854
0.539	-5.435	1.853
0.673	-5.621	2.697
0.676	-5.612	2.698
0.674	-5.603	2.700
0.667	-5.598	2.701
0.657	-5.597	2.702
0.650	-5.602	2.702
0.646	-5.611	2.701
0.649	-5.620	2.699
0.656	-5.626	2.698
0.665	-5.626	2.697
0.678	-5.645	2.956
0.682	-5.636	2.957
0.680	-5.627	2.958
0.673	-5.621	2.958
0.664	-5.620	2.959
0.656	-5.625	2.959
0.652	-5.633	2.958
0.654	-5.642	2.957
0.661	-5.649	2.956
0.670	-5.649	2.956
0.619	-5.801	1.278
0.622	-5.793	1.283
0.621	-5.784	1.284
0.616	-5.777	1.281
0.609	-5.774	1.275
0.603	-5.777	1.269
0.600	-5.784	1.264
0.601	-5.793	1.263
0.606	-5.800	1.265
0.613	-5.803	1.271
0.020	-5.942	1.882
0.023	-5.935	1.886
0.023	-5.926	1.887
0.018	-5.918	1.884
0.012	-5.915	1.878
0.006	-5.918	1.872
0.002	-5.925	1.867
0.003	-5.935	1.867
0.007	-5.942	1.870
0.014	-5.945	1.876
-0.592	-5.973	2.531
-0.588	-5.965	2.535
-0.588	-5.956	2.536
-0.592	-5.949	2.532
-0.598	-5.946	2.526
-0.605	-5.948	2.520
-0.608	-5.956	2.516
-0.608	-5.965	2.515
-0.604	-5.973	2.519
-0.598	-5.976	2.525
-1.236	-6.019	3.143
-1.233	-6.012	3.147
-1.234	-6.002	3.148
-1.238	-5.995	3.145
-1.244	-5.992	3.139
-1.250	-5.995	3.132
-1.253	-6.002	3.127
-1.253	-6.011	3.127
-1.249	-6.019	3.130
-1.242	-6.022	3.136
-1.528	-6.092	3.412
-1.525	-6.085	3.417
-1.526	-6.076	3.418
-1.531	-6.068	3.415
-1.537	-6.065	3.409
-1.543	-6.068	3.402
-1.546	-6.075	3.397
-1.545	-6.084	3.396
-1.540	-6.092	3.399
-1.534	-6.095	3.405
1.833	-18.363	5.477
1.842	-18.362	5.477
1.849	-18.366	5.480
1.853	-18.374	5.485
1.850	-18.382	5.489
1.843	-18.387	5.491
1.834	-18.388	5.491
1.826	-18.383	5.488
1.823	-18.376	5.484
1.825	-18.368	5.480
1.877	-18.770	4.740
1.887	-18.769	4.742
1.894	-18.774	4.746
1.896	-18.781	4.751
1.892	-18.789	4.755
1.885	-18.793	4.757
1.875	-18.794	4.755
1.868	-18.789	4.751
1.866	-18.782	4.746
1.870	-18.774	4.741
1.958	-18.934	4.518
1.966	-18.934	4.521
1.973	-18.938	4.526
1.974	-18.945	4.532
1.970	-18.952	4.536
1.962	-18.957	4.537
1.953	-18.957	4.534
1.947	-18.953	4.529
1.946	-18.946	4.523
1.950	-18.939	4.519
1.843	-18.535	5.505
1.848	-18.527	5.507
1.847	-18.518	5.508
1.841	-18.511	5.507
1.832	-18.509	5.505
1.824	-18.512	5.501
1.820	-18.520	5.499
1.821	-18.529	5.498
1.827	-18.536	5.499
1.835	-18.538	5.502
1.545	-18.651	6.332
1.549	-18.644	6.335
1.548	-18.634	6.335
1.543	-18.627	6.334
1.535	-18.625	6.331
1.527	-18.628	6.327
1.522	-18.636	6.324
1.523	-18.645	6.323
1.529	-18.652	6.325
1.537	-18.654	6.328
1.517	-18.655	6.388
1.522	-18.648	6.391
1.521	-18.639	6.391
1.516	-18.631	6.389
1.508	-18.629	6.385
1.500	-18.632	6.381
1.496	-18.639	6.379
1.496	-18.649	6.378
1.501	-18.656	6.380
1.509	-18.659	6.384
1.835	-18.666	5.510
1.835	-18.659	5.516
1.833	-18.658	5.525
1.829	-18.662	5.533
1.826	-18.670	5.536
1.824	-18.679	5.534
1.825	-18.685	5.527
1.827	-18.687	5.518
1.831	-18.683	5.511
1.834	-18.675	5.507
2.653	-18.884	5.768
2.653	-18.878	5.774
2.650	-18.875	5.783
2.646	-18.879	5.790
2.642	-18.887	5.794
2.640	-18.895	5.792
2.641	-18.902	5.786
2.644	-18.904	5.777
2.648	-18.901	5.770
2.651	-18.893	5.766
2.708	-18.904	5.795
2.708	-18.897	5.800
2.705	-18.894	5.809
2.700	-18.897	5.816
2.696	-18.904	5.820
2.693	-18.913	5.819
2.694	-18.920	5.813
2.697	-18.923	5.805
2.702	-18.920	5.797
2.706	-18.913	5.793
1.832	-18.815	5.525
1.832	-18.809	5.532
1.830	-18.807	5.541
1.826	-18.811	5.549
1.823	-18.819	5.552
1.821	-18.828	5.550
1.821	-18.834	5.543
1.823	-18.836	5.534
1.827	-18.832	5.527
1.830	-18.824	5.523
2.451	-19.001	5.724
2.450	-18.995	5.731
2.448	-18.993	5.740
2.444	-18.997	5.747
2.441	-19.005	5.751
2.439	-19.014	5.749
2.439	-19.020	5.742
2.442	-19.022	5.733
2.445	-19.018	5.725
2.449	-19.010	5.722
1.835	-18.980	5.551
1.838	-18.972	5.554
1.836	-18.963	5.556
1.829	-18.957	5.557
1.820	-18.957	5.557
1.812	-18.961	5.555
1.809	-18.969	5.552
1.811	-18.978	5.550
1.818	-18.984	5.549
1.827	-18.985	5.549
1.769	-19.222	6.361
1.772	-19.214	6.364
1.769	-19.206	6.368
1.762	-19.200	6.370
1.752	-19.200	6.370
1.745	-19.205	6.368
1.742	-19.213	6.364
1.744	-19.221	6.360
1.752	-19.226	6.358
1.761	-19.226	6.358
1.774	-19.299	6.481
1.778	-19.290	6.481
1.777	-19.281	6.481
1.770	-19.275	6.481
1.761	-19.273	6.481
1.753	-19.277	6.481
1.749	-19.286	6.481
1.750	-19.295	6.481
1.757	-19.301	6.481
1.766	-19.303	6.481
1.823	-19.131	5.578
1.819	-19.124	5.582
1.817	-19.115	5.582
1.815	-19.108	5.576
1.816	-19.106	5.567
1.819	-19.108	5.559
1.822	-19.116	5.554
1.825	-19.124	5.554
1.826	-19.131	5.560
1.825	-19.134	5.569
1.086	-19.363	5.437
1.094	-19.363	5.441
1.104	-19.363	5.440
1.110	-19.363	5.433
1.112	-19.363	5.424
1.107	-19.363	5.416
1.099	-19.363	5.411
1.090	-19.363	5.413
1.083	-19.363	5.419
1.082	-19.363	5.429
1.822	-19.260	5.572
1.823	-19.255	5.580
1.823	-19.255	5.589
1.822	-19.261	5.596
1.820	-19.270	5.598
1.818	-19.279	5.594
1.818	-19.283	5.587
1.818	-19.283	5.577
1.819	-19.277	5.570
1.821	-19.268	5.568
2.568	-19.390	5.583
2.569	-19.385	5.591
2.568	-19.386	5.600
2.567	-19.392	5.607
2.566	-19.401	5.609
2.564	-19.409	5.606
2.564	-19.414	5.598
2.564	-19.413	5.588
2.565	-19.407	5.581
2.567	-19.398	5.579
1.832	-19.427	5.594
1.835	-19.418	5.597
1.832	-19.410	5.599
1.825	-19.405	5.601
1.816	-19.405	5.602
1.808	-19.410	5.601
1.805	-19.418	5.599
1.808	-19.427	5.597
1.815	-19.432	5.595
1.824	-19.432	5.594
1.898	-19.630	6.325
1.901	-19.621	6.327
1.898	-19.613	6.330
1.891	-19.608	6.332
1.881	-19.608	6.333
1.874	-19.613	6.332
1.871	-19.622	6.330
1.873	-19.630	6.328
1.881	-19.635	6.325
1.890	-19.635	6.325
1.825	-19.580	5.622
1.824	-19.573	5.628
1.822	-19.564	5.629
1.819	-19.556	5.624
1.817	-19.553	5.615
1.816	-19.555	5.607
1.817	-19.562	5.600
1.819	-19.571	5.600
1.822	-19.579	5.604
1.824	-19.582	5.613
1.021	-19.805	5.753
1.020	-19.798	5.759
1.018	-19.789	5.760
1.015	-19.782	5.756
1.012	-19.778	5.748
1.011	-19.780	5.739
1.012	-19.787	5.732
1.014	-19.796	5.731
1.018	-19.803	5.735
1.020	-19.807	5.744
0.956	-19.829	5.766
0.955	-19.823	5.772
0.952	-19.814	5.774
0.948	-19.807	5.770
0.945	-19.803	5.762
0.944	-19.805	5.753
0.945	-19.811	5.746
0.948	-19.820	5.745
0.952	-19.827	5.749
0.955	-19.831	5.757
1.812	-19.706	5.631
1.821	-19.702	5.630
1.830	-19.703	5.630
1.836	-19.710	5.630
1.837	-19.719	5.631
1.833	-19.727	5.632
1.825	-19.731	5.633
1.816	-19.729	5.634
1.809	-19.723	5.633
1.808	-19.714	5.632
1.747	-19.810	4.767
1.755	-19.806	4.766
1.765	-19.807	4.765
1.771	-19.813	4.764
1.773	-19.822	4.765
1.769	-19.831	4.766
1.761	-19.835	4.767
1.752	-19.834	4.768
1.745	-19.828	4.768
1.743	-19.819	4.768
1.734	-19.812	4.692
1.742	-19.807	4.691
1.751	-19.808	4.689
1.758	-19.814	4.688
1.761	-19.823	4.688
1.757	-19.831	4.689
1.749	-19.836	4.690
1.740	-19.835	4.692
1.733	-19.829	4.693
1.731	-19.820	4.693
0.669	-5.900	1.357
0.669	-5.891	1.358
0.664	-5.884	1.363
0.657	-5.882	1.368
0.650	-5.886	1.373
0.645	-5.894	1.375
0.646	-5.903	1.373
0.650	-5.910	1.369
0.657	-5.912	1.363
0.665	-5.908	1.359
1.160	-6.001	2.039
1.160	-5.991	2.040
1.155	-5.984	2.043
1.148	-5.981	2.048
1.140	-5.984	2.052
1.135	-5.992	2.054
1.135	-6.001	2.054
1.140	-6.009	2.050
1.147	-6.011	2.045
1.155	-6.008	2.041
1.565	-6.054	2.836
1.566	-6.045	2.837
1.562	-6.037	2.839
1.554	-6.033	2.843
1.546	-6.035	2.847
1.540	-6.042	2.849
1.539	-6.051	2.848
1.543	-6.059	2.846
1.550	-6.063	2.842
1.559	-6.061	2.838
1.905	-6.175	3.651
1.906	-6.166	3.652
1.902	-6.158	3.655
1.894	-6.155	3.659
1.886	-6.158	3.663
1.880	-6.165	3.665
1.879	-6.174	3.664
1.883	-6.182	3.660
1.891	-6.185	3.656
1.899	-6.182	3.652
2.107	-6.226	3.995
2.107	-6.222	4.003
2.107	-6.224	4.012
2.107	-6.230	4.019
2.107	-6.239	4.020
2.107	-6.248	4.016
2.107	-6.252	4.008
2.107	-6.250	3.998
2.107	-6.244	3.992
2.107	-6.235	3.990
1.828	-19.857	5.638
1.829	-19.852	5.645
1.829	-19.852	5.655
1.827	-19.857	5.662
1.824	-19.866	5.664
1.822	-19.874	5.661
1.820	-19.879	5.653
1.821	-19.879	5.644
1.823	-19.873	5.637
1.825	-19.865	5.634
2.479	-20.072	5.653
2.483	-20.071	5.661
2.481	-20.071	5.670
2.474	-20.070	5.677
2.465	-20.070	5.678
2.457	-20.070	5.673
2.453	-20.071	5.665
2.455	-20.071	5.656
2.461	-20.072	5.649
2.471	-20.072	5.648
1.831	-20.007	5.654
1.833	-20.002	5.661
1.833	-20.001	5.670
1.830	-20.006	5.678
1.826	-20.014	5.681
1.823	-20.022	5.678
1.821	-20.027	5.670
1.821	-20.027	5.661
1.824	-20.023	5.654
1.828	-20.015	5.651
2.451	-20.302	5.690
2.453	-20.297	5.697
[...]
         <CellData>
           <DataArray type="Float32" Name="combinedRootClassID" NumberOfComponents="1" format="ascii">
 -1.300e+01 -1.300e+01 -1.300e+01 -1.300e+01 -1.300e+01 -1.300e+01 -1.300e+01 -1.300e+01 -1.300e+01 -1.300e+01 -1.300e+01 -1.300e+01 -1.300e+01 -1.300e+01 -1.300e+01 -1.300e+01 -1.300e+01 -1.300e+01 -1.300e+01 -1.300e+01 -1.300e+01 -1.300e+01 -1.300e+01 -1.300e+01 -1.300e+01 -1.300e+01 -1.300e+01 -1.300e+01 -1.300e+01 -1.300e+01 -1.300e+01 -1.300e+01 -1.300e+01 -1.300e+01 -1.300e+01 -1.300e+01 -1.300e+01 -1.300e+01 -1.300e+01 -1.300e+01 -1.300e+01 -1.300e+01 -1.300e+01 -1.300e+01 -1.300e+01 -1.300e+01 -1.300e+01 -1.300e+01 -1.300e+01 -1.300e+01 -1.300e+01 -1.300e+01 -1.300e+01 -1.300e+01 -1.300e+01 -1.300e+01 -1.300e+01 -1.300e+01 -1.300e+01 -1.300e+01 -1.300e+01 -1.300e+01 -1.300e+01 -1.300e+01 -1.300e+01 -1.300e+01 -1.300e+01 -1.300e+01 -1.300e+01 -1.300e+01 -1.300e+01 -1.300e+01 -1.300e+01 -1.300e+01 -1.300e+01 -1.300e+01 -1.300e+01 -1.300e+01 -1.300e+01 -1.300e+01 -1.300e+01 -1.300e+01 -1.300e+01 -1.300e+01 -1.300e+01 -1.300e+01 -1.300e+01 -1.300e+01 -1.300e+01 -1.300e+01 -1.300e+01 -1.300e+01 -1.300e+01 -1.300e+01 -1.300e+01 -1.300e+01 -1.300e+01 -1.300e+01 -1.300e+01 -1.300e+01 -1.300e+01 -1.300e+01 -1.300e+01 -1.300e+01 -1.300e+01 -1.300e+01 -1.300e+01 -1.300e+01 -1.300e+01 -1.300e+01 -1.300e+01 -1.300e+01 -1.300e+01 -1.300e+01 -1.300e+01 -1.300e+01 -1.300e+01 -1.300e+01 -1.300e+01 -1.300e+01 -1.300e+01 -1.300e+01 -1.300e+01 -1.300e+01 -1.300e+01 -1.300e+01 -1.300e+01 -1.300e+01 -1.300e+01 -1.300e+01 -1.300e+01 -1.300e+01 -1.300e+01 -1.300e+01 -1.300e+01 -1.300e+01 -1.300e+01 -1.300e+01 -1.300e+01 -1.300e+01 -1.300e+01 -1.300e+01 -1.300e+01 -1.300e+01 -1.300e+01 -1.300e+01 -1.300e+01 -1.300e+01 -1.300e+01 -1.300e+01 -1.300e+01 -1.300e+01 -1.300e+01 -1.300e+01 -1.300e+01 -1.300e+01 -1.300e+01 -1.300e+01 -1.300e+01 -1.300e+01 -1.300e+01 -1.300e+01 -1.300e+01 -1.300e+01 -1.300e+01 -1.300e+01 -1.300e+01 -1.300e+01 -1.300e+01 -1.300e+01 -1.300e+01 -1.300e+01 -1.300e+01 -1.300e+01 -1.300e+01 -1.300e+01 -1.300e+01 -1.300e+01 -1.300e+01 -1.300e+01 -1.300e+01 -1.300e+01 -1.300e+01 -1.300e+01 -1.300e+01 -1.300e+01 -1.300e+01 -1.300e+01 -1.300e+01 -1.300e+01 -1.300e+01 -1.300e+01 -1.300e+01 -1.300e+01 -1.300e+01 -1.300e+01 -1.300e+01 -1.300e+01 -1.300e+01 -1.300e+01 -1.300e+01 -1.300e+01 -1.300e+01 -1.300e+01 -1.300e+01 -1.300e+01 -1.300e+01 -1.300e+01 -1.300e+01 -1.300e+01 -1.300e+01 -1.300e+01 -1.300e+01 -1.300e+01 -1.300e+01 -1.300e+01 -1.300e+01 -1.300e+01 -1.300e+01 -1.300e+01 -1.300e+01 -1.300e+01 -1.300e+01 -1.300e+01 -1.300e+01 -1.300e+01 -1.300e+01 -1.300e+01 -1.300e+01 -1.300e+01 -1.300e+01 -1.300e+01 -1.300e+01 -1.300e+01 -1.300e+01 -1.300e+01 -1.300e+01 -1.300e+01 -1.300e+01 -1.300e+01 -1.300e+01 -1.300e+01 -1.300e+01 -1.300e+01 -1.300e+01 -1.300e+01 -1.300e+01 -1.300e+01 -1.300e+01 -1.300e+01 -1.300e+01 -1.300e+01 -1.300e+01 -1.300e+01 -1.300e+01 -1.300e+01 -1.300e+01 -1.300e+01 -1.300e+01 -1.300e+01 -1.300e+01 -1.300e+01 -1.300e+01 -1.300e+01 -1.300e+01 -1.300e+01 -1.300e+01 -1.300e+01 -1.300e+01 -1.300e+01 -1.300e+01 -1.300e+01 -1.300e+01 -1.300e+01 -1.300e+01 -1.300e+01 -1.300e+01 -1.300e+01 -1.300e+01 -1.300e+01 -1.300e+01 -1.300e+01 -1.300e+01 -1.300e+01 -1.300e+01 -1.300e+01 -1.300e+01 -1.300e+01 -1.300e+01 -1.300e+01 -1.300e+01 -1.300e+01 -1.300e+01 -1.300e+01 -1.300e+01 -1.300e+01 -1.300e+01 -1.300e+01 -1.300e+01 -1.300e+01 -1.300e+01 -1.300e+01 -1.300e+01 -1.300e+01 -1.300e+01 -1.300e+01 -1.300e+01 -1.300e+01 -1.300e+01 -1.300e+01 -1.300e+01 -1.300e+01 -1.300e+01 -1.300e+01 -1.300e+01 -1.300e+01 -1.300e+01 -1.300e+01 -1.300e+01 -1.300e+01 -1.300e+01 -1.300e+01 -1.300e+01 -1.300e+01 -1.300e+01 -1.300e+01 -1.300e+01 -1.300e+01 -1.300e+01 -1.300e+01 -1.300e+01 -1.300e+01 -1.300e+01 -1.300e+01 -1.300e+01 -1.300e+01 -1.300e+01 -1.300e+01 -1.300e+01 -1.300e+01 -1.300e+01 -1.300e+01 -1.300e+01 -5.000e+00 -5.000e+00 -5.000e+00 -5.000e+00 -5.000e+00 -5.000e+00 -5.000e+00 -5.000e+00 -5.000e+00 -5.000e+00 -5.000e+00 -5.000e+00 -5.000e+00 -5.000e+00 -5.000e+00 -5.000e+00 -5.000e+00 -5.000e+00 -5.000e+00 -5.000e+00 -5.000e+00 -5.000e+00 -5.000e+00 -5.000e+00 -5.000e+00 -5.000e+00 -5.000e+00 -5.000e+00 -5.000e+00 -5.000e+00 -5.000e+00 -5.000e+00 -5.000e+00 -5.000e+00 -5.000e+00 -5.000e+00 -5.000e+00 -5.000e+00 -1.300e+01 -1.300e+01 -1.300e+01 -1.300e+01 -1.300e+01 -1.300e+01 -1.300e+01 -1.300e+01 -1.300e+01 -1.300e+01 -1.300e+01 -1.300e+01 -1.300e+01 -1.300e+01 -1.300e+01 -1.300e+01 -1.300e+01 -1.300e+01 -1.300e+01 -1.300e+01 -1.300e+01 -1.300e+01 -1.300e+01 -1.300e+01 -1.300e+01 -1.300e+01 -1.300e+01 -1.300e+01 -1.300e+01 -1.300e+01 -1.300e+01 -1.300e+01 -1.300e+01 -1.300e+01 -1.300e+01 -1.300e+01 -1.300e+01 -1.300e+01 -1.300e+01 -1.300e+01 -1.300e+01 -1.300e+01 -1.300e+01 -1.300e+01 -1.300e+01 -1.300e+01 -1.300e+01 -1.300e+01 -1.300e+01 -1.300e+01 -1.300e+01 -1.300e+01 -1.300e+01 -1.300e+01 -1.300e+01 -1.300e+01 -1.300e+01 -1.300e+01 -1.300e+01 -1.300e+01 -1.300e+01 -1.300e+01 -1.300e+01 -1.300e+01 -1.300e+01 -1.300e+01 -1.300e+01 -1.300e+01 -1.300e+01 -1.300e+01 -1.300e+01 -1.300e+01 -1.300e+01 -1.300e+01 -1.300e+01 -1.300e+01 -1.300e+01 -1.300e+01 -1.300e+01 -1.300e+01 -1.300e+01 -1.300e+01 -1.300e+01 -1.300e+01 -1.300e+01 -1.300e+01 -1.300e+01 -1.300e+01 -1.300e+01 -1.300e+01 -1.300e+01 -1.300e+01 -1.300e+01 -1.300e+01 -1.300e+01 -1.300e+01 -1.300e+01 -1.300e+01 -1.300e+01 -1.300e+01 -1.300e+01 -1.300e+01 -1.300e+01 -1.300e+01 -1.300e+01 -1.300e+01 -1.300e+01 -1.300e+01 -1.300e+01 -1.300e+01 -1.300e+01 -1.300e+01 -1.300e+01 -1.300e+01 -1.300e+01 -1.300e+01 -1.300e+01 -1.300e+01 -1.300e+01 -1.300e+01 -1.300e+01 -1.300e+01 -1.300e+01 -1.300e+01 -1.300e+01 -1.300e+01 -1.300e+01 -1.300e+01 -1.300e+01 -1.300e+01 -1.300e+01 -1.300e+01 -1.300e+01 -1.300e+01 -1.300e+01 -1.300e+01 -1.300e+01 -1.300e+01 -1.300e+01 -1.300e+01 -1.300e+01 -1.300e+01 -1.300e+01 -1.300e+01 -1.300e+01 -1.300e+01 -1.300e+01 -1.300e+01 -1.300e+01 -1.300e+01 -1.300e+01 -1.300e+01 -1.300e+01 -1.300e+01 -1.300e+01 -1.300e+01 -1.300e+01 -1.300e+01 -1.300e+01 -1.300e+01 -1.300e+01 -1.300e+01 -1.300e+01 -1.300e+01 -1.300e+01 -1.300e+01 -1.300e+01 -1.300e+01 -1.300e+01 -1.300e+01 -1.300e+01 -1.300e+01 -1.300e+01 -1.300e+01 -1.300e+01 -1.300e+01 -1.300e+01 -1.300e+01 -1.300e+01 -1.300e+01 -1.300e+01 -1.300e+01 -1.300e+01 -1.300e+01 -1.300e+01 -1.300e+01 -1.300e+01 -1.300e+01 -1.300e+01 -1.300e+01 -1.300e+01 -1.300e+01 -1.300e+01 -1.300e+01 -1.300e+01 -1.300e+01 -1.300e+01 -1.300e+01 -1.300e+01 -1.300e+01 -1.300e+01 -1.300e+01 -1.300e+01 -1.300e+01 -1.300e+01 -1.300e+01 -1.300e+01 -1.300e+01 -1.300e+01 -1.300e+01 -1.300e+01 -1.300e+01 -1.300e+01 -1.300e+01 -1.300e+01 -1.300e+01 -1.300e+01 -1.300e+01 -1.300e+01 -1.300e+01 -1.300e+01 -1.300e+01 -1.300e+01 -1.300e+01 -1.300e+01 -1.300e+01 -1.300e+01 -1.300e+01 -1.300e+01 -1.300e+01 -1.300e+01 -1.300e+01 -1.300e+01 -1.300e+01 -1.300e+01 -1.300e+01 -1.300e+01 -1.300e+01 -1.300e+01 -1.300e+01 -1.300e+01 -1.300e+01 -1.300e+01 -1.300e+01 -1.300e+01 -1.300e+01 -1.300e+01 -1.300e+01 -1.300e+01 -1.300e+01 -1.300e+01 -1.300e+01 -1.300e+01 -1.300e+01 -1.300e+01 -1.300e+01 -1.300e+01 -1.300e+01 -1.300e+01 -1.300e+01 -1.300e+01 -1.300e+01 -1.300e+01 -1.300e+01 -1.300e+01 -1.300e+01 -1.300e+01 -1.300e+01 -1.300e+01 -1.300e+01 -1.300e+01 -1.300e+01 -1.300e+01 -1.300e+01 -1.300e+01 -1.300e+01 -1.300e+01 -1.300e+01 -1.300e+01 -1.300e+01 -1.300e+01 -1.300e+01 -1.300e+01 -1.300e+01 -1.300e+01 -1.300e+01 -1.300e+01 -1.300e+01 -1.300e+01 -1.300e+01 -1.300e+01 -1.300e+01 -1.300e+01 -1.300e+01 -1.300e+01 -1.300e+01 -1.300e+01 -1.300e+01 -1.300e+01 -1.300e+01 -1.300e+01 -1.300e+01 -1.300e+01 -1.300e+01 -1.300e+01 -1.300e+01 -1.300e+01 -1.300e+01 -1.300e+01 -1.300e+01 -1.300e+01 -1.300e+01 -1.300e+01 -1.300e+01 -1.300e+01 -1.300e+01 -1.300e+01 -1.300e+01 -1.300e+01 -1.300e+01 -1.300e+01 -1.300e+01 -1.300e+01 -1.300e+01 -1.300e+01 -1.300e+01 -1.300e+01 -1.300e+01 -1.300e+01 -1.300e+01 -1.300e+01 -1.300e+01 -1.300e+01 -1.300e+01 -1.300e+01 -1.300e+01 -1.300e+01 -1.300e+01 -1.300e+01 -1.300e+01 -1.300e+01 -1.300e+01 -1.300e+01 -1.300e+01 -5.000e+00 -5.000e+00 -5.000e+00 -5.000e+00 -5.000e+00 -5.000e+00 -5.000e+00 -5.000e+00 -5.000e+00 -5.000e+00 -5.000e+00 -5.000e+00 -5.000e+00 -5.000e+00 -5.000e+00 -5.000e+00 -5.000e+00 -5.000e+00 -5.000e+00 -5.000e+00 -5.000e+00 -5.000e+00 -5.000e+00 -5.000e+00 -5.000e+00 -5.000e+00 -5.000e+00 -5.000e+00 -5.000e+00 -5.000e+00 -5.000e+00 -5.000e+00 -5.000e+00 -5.000e+00 -5.000e+00 -5.000e+00 -5.000e+00 -5.000e+00 -1.300e+01 -1.300e+01 -1.300e+01 -1.300e+01 -1.300e+01 -1.300e+01 -1.300e+01 -1.300e+01 -1.300e+01 -1.300e+01 -1.300e+01 -1.300e+01 -1.300e+01 -1.300e+01 -1.300e+01 -1.300e+01 -1.300e+01 -1.300e+01 -1.300e+01 -1.300e+01 -1.300e+01 -1.300e+01 -1.300e+01 -1.300e+01 -1.300e+01 -1.300e+01 -1.300e+01 -1.300e+01 -1.300e+01 -1.300e+01 -1.300e+01 -1.300e+01 -1.300e+01 -1.300e+01 -1.300e+01 -1.300e+01 -1.300e+01 -1.300e+01 -1.300e+01 -1.300e+01 -1.300e+01 -1.300e+01 -1.300e+01 -1.300e+01 -1.300e+01 -1.300e+01 -1.300e+01 -1.300e+01 -1.300e+01 -1.300e+01 -1.300e+01 -1.300e+01 -1.300e+01 -1.300e+01 -1.300e+01 -1.300e+01 -1.300e+01 -1.300e+01 -1.300e+01 -1.300e+01 -1.300e+01 -1.300e+01 -1.300e+01 -1.300e+01 -1.300e+01 -1.300e+01 -1.300e+01 -1.300e+01 -1.300e+01 -1.300e+01 -1.300e+01 -1.300e+01 -1.300e+01 -1.300e+01 -1.300e+01 -1.300e+01 -1.300e+01 -1.300e+01 -1.300e+01 -1.300e+01 -1.300e+01 -1.300e+01 -1.300e+01 -1.300e+01 -1.300e+01 -1.300e+01 -1.300e+01 -1.300e+01 -1.300e+01 -1.300e+01 -1.300e+01 -1.300e+01 -1.300e+01 -1.300e+01 -1.300e+01 -1.300e+01 -1.300e+01 -1.300e+01 -1.300e+01 -1.300e+01 -1.300e+01 -1.300e+01 -1.300e+01 -1.300e+01 -1.300e+01 -1.300e+01 -1.300e+01 -1.300e+01 -1.300e+01 -1.300e+01 -1.300e+01 -1.300e+01 -1.300e+01 -1.300e+01 -1.300e+01 -1.300e+01 -1.300e+01 -1.300e+01 -1.300e+01 -1.300e+01 -1.300e+01 -1.300e+01 -1.300e+01 -1.300e+01 -1.300e+01 -1.300e+01 -1.300e+01 -1.300e+01 -1.300e+01 -1.300e+01 -1.300e+01 -1.300e+01 -1.300e+01 -1.300e+01 -1.300e+01 -1.300e+01 -1.300e+01 -1.300e+01 -1.300e+01 -1.300e+01 -1.300e+01 -1.300e+01 -1.300e+01 -1.300e+01 -1.300e+01 -1.300e+01 -1.300e+01 -1.300e+01 -1.300e+01 -1.300e+01 -1.300e+01 -1.300e+01 -1.300e+01 -1.300e+01 -1.300e+01 -1.300e+01 -1.300e+01 -1.300e+01 -1.300e+01 -1.300e+01 -1.300e+01 -1.300e+01 -1.300e+01 -1.300e+01 -1.300e+01 -1.300e+01 -1.300e+01 -1.300e+01 -1.300e+01 -1.300e+01 -1.300e+01 -1.300e+01 -1.300e+01 -1.300e+01 -1.300e+01 -1.300e+01 -1.300e+01 -1.300e+01 -1.300e+01 -1.300e+01 -1.300e+01 -1.300e+01 -1.300e+01 -1.300e+01 -1.300e+01 -1.300e+01 -1.300e+01 -1.300e+01 -1.300e+01 -1.300e+01 -1.300e+01 -1.300e+01 -1.300e+01 -1.300e+01 -1.300e+01 -1.300e+01 -1.300e+01 -1.300e+01 -1.300e+01 -1.300e+01 -1.300e+01 -1.300e+01 -1.300e+01 -1.300e+01 -1.300e+01 -1.300e+01 -1.300e+01 -1.300e+01 -1.300e+01 -1.300e+01 -1.300e+01 -1.300e+01 -1.300e+01 -1.300e+01 -1.300e+01 -1.300e+01 -1.300e+01 -1.300e+01 -1.300e+01 -1.300e+01 -1.300e+01 -1.300e+01 -1.300e+01 -1.300e+01 -1.300e+01 -1.300e+01 -1.300e+01 -1.300e+01 -1.300e+01 -1.300e+01 -1.300e+01 -1.300e+01 -1.300e+01 -1.300e+01 -1.300e+01 -1.300e+01 -1.300e+01 -1.300e+01 -1.300e+01 -1.300e+01 -1.300e+01 -1.300e+01 -1.300e+01 -1.300e+01 -1.300e+01 -1.300e+01 -1.300e+01 -1.300e+01 -1.300e+01 -1.300e+01 -1.300e+01 -1.300e+01 -1.300e+01 -1.300e+01 -1.300e+01 -1.300e+01 -1.300e+01 -1.300e+01 -1.300e+01 -1.300e+01 -1.300e+01 -1.300e+01 -1.300e+01 -1.300e+01 -1.300e+01 -1.300e+01 -1.300e+01 -1.300e+01 -1.300e+01 -1.300e+01 -1.300e+01 -1.300e+01 -1.300e+01 -1.300e+01 -1.300e+01 -1.300e+01 -1.300e+01 -1.300e+01 -1.300e+01 -1.300e+01 -1.300e+01 -1.300e+01 -1.300e+01 -1.300e+01 -1.300e+01 -1.300e+01 -1.300e+01 -1.300e+01 -1.300e+01 -1.300e+01 -1.300e+01 -1.300e+01 -1.300e+01 -1.300e+01 -1.300e+01 -1.300e+01 -1.300e+01 -1.300e+01 -1.300e+01 -1.300e+01 -1.300e+01 -1.300e+01 -1.300e+01 -1.300e+01 -1.300e+01 -1.300e+01 -1.300e+01 -1.300e+01 -1.300e+01 -1.300e+01 -1.300e+01 -1.300e+01 -1.300e+01 -1.300e+01 -1.300e+01 -1.300e+01 -1.300e+01 -1.300e+01 -1.300e+01 -1.300e+01 -1.300e+01 -1.300e+01 -1.300e+01 -1.300e+01 -1.300e+01 -1.300e+01 -1.300e+01 -1.300e+01 -1.300e+01 -1.300e+01 -1.300e+01 -1.300e+01 -1.300e+01 -1.300e+01 -1.300e+01 -1.300e+01 -1.300e+01 -1.300e+01 -1.300e+01 -5.000e+00 -5.000e+00 -5.000e+00 -5.000e+00 -5.000e+00 -5.000e+00 -5.000e+00 -5.000e+00 -5.000e+00 -5.000e+00 -5.000e+00 -5.000e+00 -5.000e+00 -5.000e+00 -5.000e+00 -5.000e+00 -5.000e+00 -5.000e+00 -5.000e+00 -5.000e+00 -5.000e+00 -5.000e+00 -5.000e+00 -5.000e+00 -5.000e+00 -5.000e+00 -5.000e+00 -5.000e+00 -5.000e+00 -5.000e+00 -5.000e+00 -5.000e+00 -5.000e+00 -5.000e+00 -5.000e+00 -5.000e+00 -5.000e+00 -5.000e+00 -1.300e+01 -1.300e+01 -1.300e+01 -1.300e+01 -1.300e+01 -1.300e+01 -1.300e+01 -1.300e+01 -1.300e+01 -1.300e+01 -1.300e+01 -1.300e+01 -1.300e+01 -1.300e+01 -1.300e+01 -1.300e+01 -1.300e+01 -1.300e+01 -1.300e+01 -1.300e+01 -1.300e+01 -1.300e+01 -1.300e+01 -1.300e+01 -1.300e+01 -1.300e+01 -1.300e+01 -1.300e+01 -1.300e+01 -1.300e+01 -1.300e+01 -1.300e+01 -1.300e+01 -1.300e+01 -1.300e+01 -1.300e+01 -1.300e+01 -1.300e+01 -1.300e+01 -1.300e+01 -1.300e+01 -1.300e+01 -1.300e+01 -1.300e+01 -1.300e+01 -1.300e+01 -1.300e+01 -1.300e+01 -1.300e+01 -1.300e+01 -1.300e+01 -1.300e+01 -1.300e+01 -1.300e+01 -1.300e+01 -1.300e+01 -1.300e+01 -1.300e+01 -1.300e+01 -1.300e+01 -1.300e+01 -1.300e+01 -1.300e+01 -1.300e+01 -1.300e+01 -1.300e+01 -1.300e+01 -1.300e+01 -1.300e+01 -1.300e+01 -1.300e+01 -1.300e+01 -1.300e+01 -1.300e+01 -1.300e+01 -1.300e+01 -1.300e+01 -1.300e+01 -1.300e+01 -1.300e+01 -1.300e+01 -1.300e+01 -1.300e+01 -1.300e+01 -1.300e+01 -1.300e+01 -1.300e+01 -1.300e+01 -1.300e+01 -1.300e+01 -1.300e+01 -1.300e+01 -1.300e+01 -1.300e+01 -1.300e+01 -1.300e+01 -1.300e+01 -1.300e+01 -1.300e+01 -1.300e+01 -1.300e+01 -1.300e+01 -1.300e+01 -1.300e+01 -1.300e+01 -1.300e+01 -1.300e+01 -1.300e+01 -1.300e+01 -1.300e+01 -1.300e+01 -1.300e+01 -1.300e+01 -1.300e+01 -1.300e+01 -1.300e+01 -1.300e+01 -1.300e+01 -1.300e+01 -1.300e+01 -1.300e+01 -1.300e+01 -1.300e+01 -1.300e+01 -1.300e+01 -1.300e+01 -1.300e+01 -1.300e+01 -1.300e+01 -1.300e+01 -1.300e+01 -1.300e+01 -1.300e+01 -1.300e+01 -1.300e+01 -1.300e+01 -1.300e+01 -1.300e+01 -1.300e+01 -1.300e+01 -1.300e+01 -1.300e+01 -1.300e+01 -1.300e+01 -1.300e+01 -1.300e+01 -1.300e+01 -1.300e+01 -1.300e+01 -1.300e+01 -1.300e+01 -1.300e+01 -1.300e+01 -1.300e+01 -1.300e+01 -1.300e+01 -1.300e+01 -1.300e+01 -1.300e+01 -1.300e+01 -1.300e+01 -1.300e+01 -1.300e+01 -1.300e+01 -1.300e+01 -1.300e+01 -1.300e+01 -1.300e+01 -1.300e+01 -1.300e+01 -1.300e+01 -1.300e+01 -1.300e+01 -1.300e+01 -1.300e+01 -1.300e+01 -1.300e+01 -1.300e+01 -1.300e+01 -1.300e+01 -1.300e+01 -1.300e+01 -1.300e+01 -1.300e+01 -1.300e+01 -1.300e+01 -1.300e+01 -1.300e+01 -1.300e+01 -1.300e+01 -1.300e+01 -1.300e+01 -1.300e+01 -1.300e+01 -1.300e+01 -1.300e+01 -1.300e+01 -1.300e+01 -1.300e+01 -1.300e+01 -1.300e+01 -1.300e+01 -1.300e+01 -1.300e+01 -1.300e+01 -1.300e+01 -1.300e+01 -1.300e+01 -1.300e+01 -1.300e+01 -1.300e+01 -1.300e+01 -1.300e+01 -1.300e+01 -1.300e+01 -1.300e+01 -1.300e+01 -1.300e+01 -1.300e+01 -1.300e+01 -1.300e+01 -1.300e+01 -1.300e+01 -1.300e+01 -1.300e+01 -1.300e+01 -1.300e+01 -1.300e+01 -1.300e+01 -1.300e+01 -1.300e+01 -1.300e+01 -1.300e+01 -1.300e+01 -1.300e+01 -1.300e+01 -1.300e+01 -1.300e+01 -1.300e+01 -1.300e+01 -1.300e+01 -1.300e+01 -1.300e+01 -1.300e+01 -1.300e+01 -1.300e+01 -1.300e+01 -1.300e+01 -1.300e+01 -1.300e+01 -1.300e+01 -1.300e+01 -1.300e+01 -1.300e+01 -1.300e+01 -1.300e+01 -1.300e+01 -1.300e+01 -1.300e+01 -1.300e+01 -1.300e+01 -1.300e+01 -1.300e+01 -1.300e+01 -1.300e+01 -1.300e+01 -1.300e+01 -1.300e+01 -1.300e+01 -1.300e+01 -1.300e+01 -1.300e+01 -1.300e+01 -1.300e+01 -1.300e+01 -1.300e+01 -1.300e+01 -1.300e+01 -1.300e+01 -1.300e+01 -1.300e+01 -1.300e+01 -1.300e+01 -1.300e+01 -1.300e+01 -1.300e+01 -1.300e+01 -1.300e+01 -1.300e+01 -1.300e+01 -1.300e+01 -1.300e+01 -1.300e+01 -1.300e+01 -1.300e+01 -1.300e+01 -1.300e+01 -1.300e+01 -1.300e+01 -1.300e+01 -1.300e+01 -1.300e+01 -1.300e+01 -1.300e+01 -1.300e+01 -1.300e+01 -1.300e+01 -1.300e+01 -1.300e+01 -1.300e+01 -1.300e+01 -1.300e+01 -1.300e+01 -1.300e+01 -1.300e+01 -1.300e+01 -1.300e+01 -1.300e+01 -1.300e+01 -1.300e+01 -1.300e+01 -1.300e+01 -1.300e+01 -1.300e+01 -1.300e+01 -1.300e+01 -1.300e+01 -1.300e+01 -1.300e+01 -1.300e+01 -1.300e+01 -1.300e+01 -1.300e+01 -1.300e+01 -1.300e+01 -1.300e+01 -1.300e+01 -5.000e+00 -5.000e+00 -5.000e+00 -5.000e+00 -5.000e+00 -5.000e+00 -5.000e+00 -5.000e+00 -5.000e+00 -5.000e+00 -5.000e+00 -5.000e+00 -5.000e+00 -5.000e+00 -5.000e+00 -5.000e+00 -5.000e+00 -5.000e+00 -5.000e+00 -5.000e+00 -5.000e+00 -5.000e+00 -5.000e+00 -5.000e+00 -5.000e+00 -5.000e+00 -5.000e+00 -5.000e+00 -5.000e+00 -5.000e+00 -5.000e+00 -5.000e+00 -5.000e+00 -5.000e+00 -5.000e+00 -5.000e+00 -5.000e+00 -5.000e+00 -1.900e+01 -1.900e+01 -1.900e+01 -1.900e+01 -1.900e+01 -1.900e+01 -1.900e+01 -1.900e+01 -1.900e+01 -1.900e+01 -1.900e+01 -1.900e+01 -1.900e+01 -1.900e+01 -1.900e+01 -1.900e+01 -1.900e+01 -1.900e+01 -1.900e+01 -1.900e+01 -1.900e+01 -1.900e+01 -1.900e+01 -1.900e+01 -1.900e+01 -1.900e+01 -1.900e+01 -1.900e+01 -1.900e+01 -1.900e+01 -1.900e+01 -1.900e+01 -1.900e+01 -1.900e+01 -1.900e+01 -1.900e+01 -1.900e+01 -1.900e+01 -1.900e+01 -1.900e+01 -1.900e+01 -1.900e+01 -1.900e+01 -1.900e+01 -1.900e+01 -1.900e+01 -1.900e+01 -1.900e+01 -1.900e+01 -1.900e+01 -1.900e+01 -1.900e+01 -1.900e+01 -1.900e+01 -1.900e+01 -1.900e+01 -1.900e+01 -1.900e+01 -1.900e+01 -1.900e+01 -1.900e+01 -1.900e+01 -1.900e+01 -1.900e+01 -1.900e+01 -1.900e+01 -1.900e+01 -1.900e+01 -1.900e+01 -1.900e+01 -1.900e+01 -1.900e+01 -1.900e+01 -1.900e+01 -1.900e+01 -1.900e+01 -1.900e+01 -1.900e+01 -1.900e+01 -1.900e+01 -1.900e+01 -1.900e+01 -1.900e+01 -1.900e+01 -1.900e+01 -1.900e+01 -1.900e+01 -1.900e+01 -1.900e+01 -1.900e+01 -1.900e+01 -1.900e+01 -1.900e+01 -1.900e+01 -1.900e+01 -1.900e+01 -1.900e+01 -1.900e+01 -1.900e+01 -1.900e+01 -1.900e+01 -1.900e+01 -1.900e+01 -1.900e+01 -1.900e+01 -1.900e+01 -1.900e+01 -1.900e+01 -1.900e+01 -1.900e+01 -1.900e+01 -1.900e+01 -1.100e+01 -1.100e+01 -1.100e+01 -1.100e+01 -1.100e+01 -1.100e+01 -1.100e+01 -1.100e+01 -1.100e+01 -1.100e+01 -1.100e+01 -1.100e+01 -1.100e+01 -1.100e+01 -1.100e+01 -1.100e+01 -1.100e+01 -1.100e+01 -1.100e+01 -1.100e+01 -1.100e+01 -1.100e+01 -1.100e+01 -1.100e+01 -1.100e+01 -1.100e+01 -1.100e+01 -1.900e+01 -1.900e+01 -1.900e+01 -1.900e+01 -1.900e+01 -1.900e+01 -1.900e+01 -1.900e+01 -1.900e+01 -1.900e+01 -1.900e+01 -1.900e+01 -1.900e+01 -1.900e+01 -1.900e+01 -1.900e+01 -1.900e+01 -1.900e+01 -1.900e+01 -1.900e+01 -1.900e+01 -1.900e+01 -1.900e+01 -1.900e+01 -1.900e+01 -1.900e+01 -1.900e+01 -1.900e+01 -1.900e+01 -1.900e+01 -1.900e+01 -1.900e+01 -1.900e+01 -1.900e+01 -1.900e+01 -1.900e+01 -1.900e+01 -1.900e+01 -1.900e+01 -1.900e+01 -1.900e+01 -1.900e+01 -1.900e+01 -1.900e+01 -1.900e+01 -1.900e+01 -1.900e+01 -1.900e+01 -1.900e+01 -1.900e+01 -1.900e+01 -1.900e+01 -1.900e+01 -1.900e+01 -1.900e+01 -1.900e+01 -1.900e+01 -1.900e+01 -1.900e+01 -1.900e+01 -1.900e+01 -1.900e+01 -1.900e+01 -1.900e+01 -1.900e+01 -1.900e+01 -1.900e+01 -1.900e+01 -1.900e+01 -1.900e+01 -1.900e+01 -1.900e+01 -1.900e+01 -1.900e+01 -1.900e+01 -1.900e+01 -1.900e+01 -1.900e+01 -1.900e+01 -1.900e+01 -1.900e+01 -1.900e+01 -1.900e+01 -1.900e+01 -1.900e+01 -1.900e+01 -1.900e+01 -1.900e+01 -1.900e+01 -1.900e+01 -1.900e+01 -1.900e+01 -1.900e+01 -1.900e+01 -1.900e+01 -1.900e+01 -1.900e+01 -1.900e+01 -1.900e+01 -1.900e+01 -1.900e+01 -1.900e+01 -1.900e+01 -1.900e+01 -1.900e+01 -1.900e+01 -1.900e+01 -1.100e+01 -1.100e+01 -1.100e+01 -1.100e+01 -1.100e+01 -1.100e+01 -1.100e+01 -1.100e+01 -1.100e+01 -1.100e+01 -1.100e+01 -1.100e+01 -1.100e+01 -1.100e+01 -1.100e+01 -1.100e+01 -1.100e+01 -1.100e+01 -1.100e+01 -1.100e+01 -1.100e+01 -1.100e+01 -1.100e+01 -1.100e+01 -1.100e+01 -1.100e+01 -1.100e+01 -1.900e+01 -1.900e+01 -1.900e+01 -1.900e+01 -1.900e+01 -1.900e+01 -1.900e+01 -1.900e+01 -1.900e+01 -1.900e+01 -1.900e+01 -1.900e+01 -1.900e+01 -1.900e+01 -1.900e+01 -1.900e+01 -1.900e+01 -1.900e+01 -1.900e+01