<?xml version="1.0"?>
<VTKFile type="UnstructuredGrid" version="0.1" byte_order="LittleEndian">
   <UnstructuredGrid>
      <Piece NumberOfPoints="58450" NumberOfCells="4263">
         <Points>
            <DataArray type="Float32" Name="Position" NumberOfComponents="3" format="ascii">
0.067	-5.026	0.141
0.070	-5.018	0.146
0.069	-5.009	0.147
0.065	-5.002	0.143
0.059	-4.999	0.137
0.053	-5.001	0.130
0.050	-5.009	0.125
0.051	-5.018	0.124
0.055	-5.025	0.128
0.061	-5.028	0.134
-0.568	-5.132	0.690
-0.565	-5.125	0.695
-0.566	-5.115	0.696
-0.570	-5.108	0.693
-0.576	-5.105	0.687
-0.582	-5.107	0.680
-0.585	-5.115	0.675
-0.584	-5.124	0.674
-0.580	-5.131	0.677
-0.574	-5.134	0.683
-1.209	-5.279	1.287
-1.206	-5.272	1.292
-1.207	-5.263	1.293
-1.211	-5.255	1.290
-1.217	-5.252	1.284
-1.223	-5.255	1.277
-1.226	-5.262	1.272
-1.226	-5.271	1.271
-1.221	-5.279	1.274
-1.215	-5.282	1.281
-1.857	-5.350	1.887
-1.855	-5.343	1.892
-1.856	-5.334	1.893
-1.860	-5.326	1.890
-1.865	-5.323	1.883
-1.871	-5.326	1.876
-1.873	-5.333	1.871
-1.872	-5.342	1.870
-1.868	-5.350	1.873
-1.863	-5.353	1.880
-2.479	-5.509	2.290
-2.475	-5.501	2.290
-2.476	-5.492	2.290
-2.483	-5.485	2.290
-2.492	-5.484	2.290
-2.500	-5.488	2.290
-2.505	-5.496	2.290
-2.503	-5.506	2.290
-2.497	-5.512	2.290
-2.487	-5.514	2.290
0.131	-5.064	0.261
0.133	-5.054	0.262
0.129	-5.046	0.264
0.121	-5.042	0.267
0.113	-5.044	0.271
0.106	-5.050	0.272
0.105	-5.059	0.271
0.108	-5.067	0.269
0.116	-5.072	0.265
0.124	-5.070	0.262
0.425	-5.177	1.048
0.428	-5.169	1.050
0.424	-5.160	1.052
0.417	-5.156	1.055
0.408	-5.157	1.057
0.401	-5.163	1.058
0.399	-5.172	1.056
0.402	-5.180	1.054
0.409	-5.184	1.051
0.418	-5.183	1.049
0.546	-5.429	1.853
0.549	-5.420	1.855
0.546	-5.412	1.858
0.539	-5.407	1.860
0.529	-5.407	1.861
0.522	-5.413	1.861
0.519	-5.422	1.859
0.522	-5.430	1.856
0.529	-5.435	1.854
0.539	-5.435	1.853
0.673	-5.621	2.697
0.676	-5.612	2.698
0.674	-5.603	2.700
0.667	-5.598	2.701
0.657	-5.597	2.702
0.650	-5.602	2.702
0.646	-5.611	2.701
0.649	-5.620	2.699
0.656	-5.625	2.698
0.665	-5.626	2.697
0.673	-5.662	3.154
0.677	-5.653	3.155
0.675	-5.644	3.156
0.669	-5.638	3.156
0.659	-5.637	3.156
0.651	-5.641	3.156
0.647	-5.650	3.155
0.649	-5.659	3.155
0.656	-5.665	3.154
0.665	-5.666	3.154
0.619	-5.801	1.278
0.622	-5.793	1.283
0.621	-5.784	1.284
0.616	-5.777	1.281
0.609	-5.774	1.275
0.603	-5.777	1.269
0.600	-5.784	1.264
0.601	-5.793	1.263
0.606	-5.800	1.265
0.613	-5.803	1.271
0.020	-5.942	1.882
0.023	-5.935	1.886
0.023	-5.926	1.887
0.018	-5.918	1.884
0.012	-5.915	1.878
0.006	-5.918	1.872
0.002	-5.925	1.867
0.003	-5.935	1.867
0.007	-5.942	1.870
0.014	-5.945	1.876
-0.592	-5.973	2.531
-0.588	-5.965	2.535
-0.588	-5.956	2.536
-0.592	-5.949	2.532
-0.598	-5.946	2.526
-0.605	-5.948	2.520
-0.608	-5.956	2.516
-0.608	-5.965	2.515
-0.604	-5.973	2.519
-0.598	-5.976	2.525
-1.236	-6.019	3.142
-1.233	-6.012	3.147
-1.234	-6.003	3.148
-1.238	-5.995	3.145
-1.245	-5.992	3.139
-1.251	-5.995	3.133
-1.254	-6.002	3.128
-1.253	-6.011	3.127
-1.248	-6.019	3.130
-1.242	-6.022	3.136
-1.704	-6.198	3.618
-1.702	-6.191	3.623
-1.703	-6.182	3.625
-1.708	-6.175	3.623
-1.715	-6.172	3.617
-1.721	-6.174	3.611
-1.724	-6.182	3.605
-1.722	-6.191	3.603
-1.717	-6.198	3.606
-1.710	-6.201	3.611
1.833	-18.363	5.477
1.842	-18.362	5.477
1.849	-18.366	5.480
1.853	-18.374	5.485
1.850	-18.382	5.489
1.843	-18.387	5.491
1.834	-18.388	5.491
1.826	-18.383	5.488
1.823	-18.376	5.484
1.825	-18.368	5.480
1.877	-18.770	4.740
1.886	-18.769	4.742
1.893	-18.773	4.746
1.896	-18.781	4.751
1.892	-18.788	4.755
1.885	-18.794	4.756
1.876	-18.794	4.755
1.869	-18.790	4.750
1.866	-18.783	4.745
1.869	-18.775	4.741
2.172	-19.208	4.064
2.180	-19.206	4.068
2.186	-19.210	4.074
2.188	-19.217	4.079
2.184	-19.225	4.083
2.177	-19.231	4.082
2.168	-19.232	4.078
2.162	-19.228	4.073
2.161	-19.221	4.067
2.164	-19.213	4.064
2.241	-19.277	3.960
2.250	-19.275	3.964
2.255	-19.279	3.970
2.257	-19.286	3.976
2.253	-19.294	3.979
2.246	-19.300	3.978
2.238	-19.301	3.974
2.232	-19.298	3.967
2.231	-19.291	3.962
2.234	-19.283	3.959
1.843	-18.535	5.505
1.848	-18.527	5.507
1.847	-18.518	5.508
1.841	-18.511	5.507
1.832	-18.509	5.505
1.824	-18.512	5.501
1.820	-18.520	5.499
1.821	-18.529	5.498
1.827	-18.536	5.499
1.835	-18.538	5.502
1.545	-18.651	6.331
1.550	-18.643	6.334
1.549	-18.634	6.335
1.543	-18.627	6.334
1.534	-18.625	6.331
1.526	-18.628	6.327
1.522	-18.636	6.325
1.523	-18.645	6.324
1.529	-18.652	6.325
1.537	-18.654	6.328
1.300	-18.732	6.956
1.304	-18.724	6.959
1.303	-18.715	6.960
1.298	-18.708	6.958
1.289	-18.706	6.955
1.281	-18.709	6.952
1.277	-18.717	6.949
1.278	-18.726	6.948
1.284	-18.733	6.950
1.292	-18.736	6.953
1.835	-18.666	5.510
1.835	-18.659	5.516
1.833	-18.658	5.525
1.829	-18.662	5.533
1.826	-18.670	5.536
1.824	-18.679	5.534
1.825	-18.685	5.527
1.827	-18.687	5.518
1.831	-18.683	5.511
1.834	-18.675	5.507
2.653	-18.884	5.768
2.652	-18.877	5.774
2.649	-18.875	5.783
2.646	-18.879	5.790
2.642	-18.887	5.794
2.641	-18.896	5.792
2.641	-18.903	5.786
2.644	-18.904	5.777
2.648	-18.901	5.770
2.651	-18.893	5.766
3.271	-19.027	6.045
3.270	-19.020	6.051
3.267	-19.018	6.060
3.263	-19.021	6.067
3.259	-19.029	6.071
3.258	-19.038	6.070
3.259	-19.045	6.064
3.262	-19.047	6.055
3.266	-19.044	6.048
3.270	-19.036	6.044
1.832	-18.815	5.525
1.832	-18.809	5.532
1.829	-18.807	5.541
1.826	-18.811	5.549
1.823	-18.819	5.552
1.821	-18.828	5.550
1.821	-18.834	5.543
1.824	-18.836	5.534
1.827	-18.832	5.527
1.831	-18.824	5.523
2.621	-19.032	5.784
2.620	-19.025	5.791
2.618	-19.024	5.800
2.615	-19.029	5.807
2.612	-19.037	5.811
2.611	-19.046	5.808
2.611	-19.052	5.802
2.614	-19.053	5.793
2.617	-19.049	5.785
2.620	-19.041	5.782
2.883	-19.073	5.856
2.882	-19.067	5.863
2.880	-19.067	5.872
2.877	-19.071	5.879
2.875	-19.080	5.883
2.874	-19.089	5.880
2.875	-19.095	5.873
2.877	-19.096	5.864
2.880	-19.091	5.857
2.882	-19.082	5.854
1.835	-18.980	5.551
1.838	-18.972	5.554
1.836	-18.963	5.556
1.829	-18.957	5.557
1.820	-18.957	5.557
1.812	-18.961	5.555
1.809	-18.969	5.552
1.811	-18.978	5.550
1.818	-18.984	5.549
1.827	-18.985	5.549
1.769	-19.222	6.361
1.772	-19.214	6.364
1.769	-19.205	6.366
1.762	-19.200	6.368
1.753	-19.200	6.369
1.745	-19.205	6.367
1.742	-19.213	6.365
1.744	-19.221	6.362
1.752	-19.227	6.360
1.761	-19.227	6.360
1.880	-19.500	7.128
1.883	-19.492	7.131
1.880	-19.484	7.134
1.873	-19.479	7.137
1.863	-19.479	7.138
1.856	-19.485	7.137
1.853	-19.493	7.134
1.856	-19.502	7.131
1.864	-19.506	7.128
1.873	-19.506	7.127
1.822	-19.131	5.578
1.819	-19.124	5.583
1.817	-19.115	5.582
1.816	-19.108	5.576
1.817	-19.105	5.567
1.819	-19.109	5.558
1.822	-19.116	5.554
1.825	-19.125	5.555
1.826	-19.132	5.561
1.825	-19.134	5.569
0.987	-19.389	5.415
0.985	-19.381	5.419
0.983	-19.372	5.417
0.983	-19.366	5.410
0.986	-19.364	5.401
0.989	-19.369	5.394
0.992	-19.377	5.390
0.993	-19.386	5.392
0.993	-19.392	5.399
0.991	-19.393	5.408
0.570	-19.453	5.267
0.567	-19.445	5.269
0.567	-19.436	5.266
0.569	-19.430	5.259
0.572	-19.430	5.250
0.575	-19.435	5.243
0.577	-19.444	5.241
0.578	-19.453	5.244
0.576	-19.458	5.251
0.573	-19.459	5.260
1.822	-19.260	5.572
1.823	-19.255	5.579
1.823	-19.255	5.589
1.822	-19.261	5.596
1.820	-19.270	5.598
1.818	-19.279	5.594
1.817	-19.283	5.587
1.818	-19.283	5.577
1.819	-19.277	5.570
1.821	-19.268	5.568
2.672	-19.430	5.574
2.673	-19.425	5.582
2.674	-19.426	5.592
2.672	-19.432	5.599
2.670	-19.441	5.601
2.668	-19.449	5.597
2.667	-19.454	5.589
2.667	-19.453	5.580
2.668	-19.447	5.573
2.670	-19.438	5.571
3.105	-19.538	5.550
3.106	-19.533	5.557
3.107	-19.534	5.567
3.106	-19.540	5.574
3.104	-19.549	5.576
3.101	-19.557	5.572
3.100	-19.562	5.564
3.099	-19.561	5.555
3.100	-19.555	5.548
3.103	-19.546	5.546
1.832	-19.427	5.594
1.835	-19.418	5.597
1.832	-19.410	5.599
1.825	-19.405	5.601
1.816	-19.405	5.602
1.808	-19.410	5.601
1.805	-19.418	5.599
1.808	-19.427	5.596
1.815	-19.432	5.594
1.824	-19.432	5.594
1.900	-19.669	6.435
1.903	-19.661	6.437
1.901	-19.652	6.440
1.893	-19.647	6.441
1.884	-19.646	6.441
1.876	-19.651	6.440
1.873	-19.660	6.438
1.875	-19.668	6.436
1.883	-19.674	6.434
1.892	-19.674	6.434
1.871	-19.774	6.885
1.875	-19.766	6.887
1.872	-19.757	6.889
1.866	-19.751	6.890
1.856	-19.750	6.890
1.848	-19.754	6.888
1.845	-19.763	6.886
1.847	-19.771	6.884
1.854	-19.777	6.883
1.863	-19.778	6.883
1.825	-19.580	5.622
1.824	-19.573	5.628
1.822	-19.564	5.629
1.819	-19.556	5.624
1.817	-19.553	5.615
1.816	-19.555	5.607
1.817	-19.562	5.600
1.819	-19.571	5.600
1.822	-19.579	5.604
1.824	-19.582	5.613
1.022	-19.805	5.752
1.020	-19.798	5.759
1.017	-19.790	5.760
1.014	-19.782	5.756
1.011	-19.779	5.748
1.010	-19.780	5.739
1.012	-19.787	5.733
1.015	-19.795	5.731
1.019	-19.803	5.735
1.021	-19.806	5.743
0.331	-20.164	5.845
0.329	-20.158	5.852
0.325	-20.150	5.854
0.321	-20.143	5.851
0.318	-20.138	5.844
0.317	-20.139	5.834
0.319	-20.145	5.827
0.323	-20.153	5.825
0.327	-20.160	5.828
0.330	-20.165	5.836
1.812	-19.706	5.631
1.821	-19.702	5.630
1.830	-19.703	5.630
1.836	-19.710	5.630
1.837	-19.719	5.631
1.833	-19.727	5.632
1.825	-19.731	5.633
1.816	-19.729	5.634
1.809	-19.723	5.633
1.808	-19.714	5.632
1.749	-19.809	4.765
1.757	-19.806	4.764
1.766	-19.808	4.764
1.772	-19.815	4.765
1.773	-19.824	4.767
1.768	-19.832	4.768
1.759	-19.835	4.768
1.750	-19.833	4.768
1.744	-19.826	4.767
1.744	-19.817	4.766
1.815	-19.968	3.953
1.815	-19.959	3.957
1.815	-19.950	3.955
1.815	-19.944	3.949
1.815	-19.942	3.940
1.815	-19.946	3.931
1.815	-19.955	3.927
1.815	-19.964	3.929
1.815	-19.970	3.935
1.815	-19.972	3.944
0.669	-5.900	1.357
0.669	-5.891	1.358
0.664	-5.884	1.363
0.657	-5.882	1.368
0.650	-5.886	1.373
0.645	-5.894	1.375
0.646	-5.903	1.373
0.650	-5.910	1.369
0.657	-5.912	1.363
0.665	-5.908	1.359
1.160	-6.001	2.039
1.160	-5.991	2.040
1.155	-5.984	2.043
1.148	-5.981	2.048
1.140	-5.984	2.052
1.135	-5.992	2.054
1.135	-6.001	2.054
1.140	-6.009	2.050
1.147	-6.011	2.045
1.155	-6.008	2.041
1.565	-6.054	2.836
1.566	-6.045	2.837
1.562	-6.037	2.839
1.554	-6.033	2.843
1.546	-6.035	2.847
1.540	-6.042	2.849
1.539	-6.051	2.848
1.543	-6.059	2.846
1.550	-6.063	2.842
1.559	-6.061	2.838
1.905	-6.175	3.651
[...]
         <CellData>
           <DataArray type="Float32" Name="combinedRootClassID" NumberOfComponents="1" format="ascii">
 -1.300e+01 -1.300e+01 -1.300e+01 -1.300e+01 -1.300e+01 -1.300e+01 -1.300e+01 -1.300e+01 -1.300e+01 -1.300e+01 -1.300e+01 -1.300e+01 -1.300e+01 -1.300e+01 -1.300e+01 -1.300e+01 -1.300e+01 -1.300e+01 -1.300e+01 -1.300e+01 -1.300e+01 -1.300e+01 -1.300e+01 -1.300e+01 -1.300e+01 -1.300e+01 -1.300e+01 -1.300e+01 -1.300e+01 -1.300e+01 -1.300e+01 -1.300e+01 -1.300e+01 -1.300e+01 -1.300e+01 -1.300e+01 -1.300e+01 -1.300e+01 -1.300e+01 -1.300e+01 -1.300e+01 -1.300e+01 -1.300e+01 -1.300e+01 -1.300e+01 -1.300e+01 -1.300e+01 -1.300e+01 -1.300e+01 -1.300e+01 -1.300e+01 -1.300e+01 -1.300e+01 -1.300e+01 -1.300e+01 -1.300e+01 -1.300e+01 -1.300e+01 -1.300e+01 -1.300e+01 -1.300e+01 -1.300e+01 -1.300e+01 -1.300e+01 -1.300e+01 -1.300e+01 -1.300e+01 -1.300e+01 -1.300e+01 -1.300e+01 -1.300e+01 -1.300e+01 -1.300e+01 -1.300e+01 -1.300e+01 -1.300e+01 -1.300e+01 -1.300e+01 -1.300e+01 -1.300e+01 -1.300e+01 -1.300e+01 -1.300e+01 -1.300e+01 -1.300e+01 -1.300e+01 -1.300e+01 -1.300e+01 -1.300e+01 -1.300e+01 -1.300e+01 -1.300e+01 -1.300e+01 -1.300e+01 -1.300e+01 -1.300e+01 -1.300e+01 -1.300e+01 -1.300e+01 -1.300e+01 -1.300e+01 -1.300e+01 -1.300e+01 -1.300e+01 -1.300e+01 -1.300e+01 -1.300e+01 -1.300e+01 -1.300e+01 -1.300e+01 -1.300e+01 -1.300e+01 -1.300e+01 -1.300e+01 -1.300e+01 -1.300e+01 -1.300e+01 -1.300e+01 -1.300e+01 -1.300e+01 -1.300e+01 -1.300e+01 -1.300e+01 -1.300e+01 -1.300e+01 -1.300e+01 -1.300e+01 -1.300e+01 -1.300e+01 -1.300e+01 -1.300e+01 -1.300e+01 -1.300e+01 -1.300e+01 -1.300e+01 -1.300e+01 -1.300e+01 -1.300e+01 -1.300e+01 -1.300e+01 -1.300e+01 -1.300e+01 -1.300e+01 -1.300e+01 -1.300e+01 -1.300e+01 -1.300e+01 -1.300e+01 -1.300e+01 -1.300e+01 -1.300e+01 -1.300e+01 -1.300e+01 -1.300e+01 -1.300e+01 -1.300e+01 -1.300e+01 -1.300e+01 -1.300e+01 -1.300e+01 -1.300e+01 -1.300e+01 -1.300e+01 -1.300e+01 -1.300e+01 -1.300e+01 -1.300e+01 -1.300e+01 -1.300e+01 -1.300e+01 -1.300e+01 -1.300e+01 -1.300e+01 -1.300e+01 -1.300e+01 -1.300e+01 -1.300e+01 -1.300e+01 -1.300e+01 -1.300e+01 -1.300e+01 -1.300e+01 -1.300e+01 -1.300e+01 -1.300e+01 -1.300e+01 -1.300e+01 -1.300e+01 -1.300e+01 -1.300e+01 -1.300e+01 -1.300e+01 -1.300e+01 -1.300e+01 -1.300e+01 -1.300e+01 -1.300e+01 -1.300e+01 -1.300e+01 -1.300e+01 -1.300e+01 -1.300e+01 -1.300e+01 -1.300e+01 -1.300e+01 -1.300e+01 -1.300e+01 -1.300e+01 -1.300e+01 -1.300e+01 -1.300e+01 -1.300e+01 -1.300e+01 -1.300e+01 -1.300e+01 -1.300e+01 -1.300e+01 -1.300e+01 -1.300e+01 -1.300e+01 -1.300e+01 -1.300e+01 -1.300e+01 -1.300e+01 -1.300e+01 -1.300e+01 -1.300e+01 -1.300e+01 -1.300e+01 -1.300e+01 -1.300e+01 -1.300e+01 -1.300e+01 -1.300e+01 -1.300e+01 -1.300e+01 -1.300e+01 -1.300e+01 -1.300e+01 -1.300e+01 -1.300e+01 -1.300e+01 -1.300e+01 -1.300e+01 -1.300e+01 -1.300e+01 -1.300e+01 -1.300e+01 -1.300e+01 -1.300e+01 -1.300e+01 -1.300e+01 -1.300e+01 -1.300e+01 -1.300e+01 -1.300e+01 -1.300e+01 -1.300e+01 -1.300e+01 -1.300e+01 -1.300e+01 -1.300e+01 -1.300e+01 -1.300e+01 -1.300e+01 -1.300e+01 -1.300e+01 -1.300e+01 -1.300e+01 -1.300e+01 -1.300e+01 -1.300e+01 -1.300e+01 -1.300e+01 -1.300e+01 -1.300e+01 -1.300e+01 -1.300e+01 -1.300e+01 -1.300e+01 -1.300e+01 -1.300e+01 -1.300e+01 -1.300e+01 -1.300e+01 -1.300e+01 -1.300e+01 -1.300e+01 -1.300e+01 -1.300e+01 -1.300e+01 -1.300e+01 -1.300e+01 -1.300e+01 -1.300e+01 -1.300e+01 -1.300e+01 -1.300e+01 -1.300e+01 -1.300e+01 -1.300e+01 -1.300e+01 -1.300e+01 -1.300e+01 -1.300e+01 -1.300e+01 -1.300e+01 -1.300e+01 -1.300e+01 -1.300e+01 -1.300e+01 -1.300e+01 -1.300e+01 -1.300e+01 -1.300e+01 -1.300e+01 -1.300e+01 -1.300e+01 -1.300e+01 -1.300e+01 -1.300e+01 -1.300e+01 -1.300e+01 -1.300e+01 -1.300e+01 -1.300e+01 -1.300e+01 -1.300e+01 -1.300e+01 -1.300e+01 -1.300e+01 -1.300e+01 -1.300e+01 -1.300e+01 -1.300e+01 -1.300e+01 -1.300e+01 -1.300e+01 -1.300e+01 -1.300e+01 -1.300e+01 -1.300e+01 -1.300e+01 -1.300e+01 -1.300e+01 -1.300e+01 -1.300e+01 -1.300e+01 -1.300e+01 -1.300e+01 -1.300e+01 -1.300e+01 -1.300e+01 -1.300e+01 -1.300e+01 -1.300e+01 -1.300e+01 -1.300e+01 -1.300e+01 -1.300e+01 -1.300e+01 -1.300e+01 -1.300e+01 -1.300e+01 -1.300e+01 -1.300e+01 -1.300e+01 -1.300e+01 -1.300e+01 -1.300e+01 -1.300e+01 -1.300e+01 -1.300e+01 -1.300e+01 -1.300e+01 -1.300e+01 -1.300e+01 -1.300e+01 -1.300e+01 -1.300e+01 -1.300e+01 -1.300e+01 -1.300e+01 -1.300e+01 -1.300e+01 -1.300e+01 -1.300e+01 -1.300e+01 -1.300e+01 -1.300e+01 -1.300e+01 -1.300e+01 -1.300e+01 -1.300e+01 -1.300e+01 -1.300e+01 -1.300e+01 -1.300e+01 -1.300e+01 -1.300e+01 -1.300e+01 -1.300e+01 -1.300e+01 -1.300e+01 -1.300e+01 -1.300e+01 -1.300e+01 -1.300e+01 -1.300e+01 -1.300e+01 -1.300e+01 -1.300e+01 -1.300e+01 -1.300e+01 -1.300e+01 -1.300e+01 -1.300e+01 -1.300e+01 -1.300e+01 -1.300e+01 -1.300e+01 -1.300e+01 -1.300e+01 -1.300e+01 -1.300e+01 -1.300e+01 -1.300e+01 -1.300e+01 -1.300e+01 -1.300e+01 -1.300e+01 -1.300e+01 -1.300e+01 -1.300e+01 -1.300e+01 -1.300e+01 -1.300e+01 -1.300e+01 -1.300e+01 -1.300e+01 -1.300e+01 -5.000e+00 -5.000e+00 -5.000e+00 -5.000e+00 -5.000e+00 -5.000e+00 -5.000e+00 -5.000e+00 -5.000e+00 -5.000e+00 -5.000e+00 -5.000e+00 -5.000e+00 -5.000e+00 -5.000e+00 -5.000e+00 -5.000e+00 -5.000e+00 -5.000e+00 -5.000e+00 -5.000e+00 -5.000e+00 -5.000e+00 -5.000e+00 -5.000e+00 -5.000e+00 -5.000e+00 -5.000e+00 -5.000e+00 -5.000e+00 -5.000e+00 -5.000e+00 -5.000e+00 -5.000e+00 -5.000e+00 -5.000e+00 -5.000e+00 -5.000e+00 -5.000e+00 -5.000e+00 -5.000e+00 -5.000e+00 -5.000e+00 -1.300e+01 -1.300e+01 -1.300e+01 -1.300e+01 -1.300e+01 -1.300e+01 -1.300e+01 -1.300e+01 -1.300e+01 -1.300e+01 -1.300e+01 -1.300e+01 -1.300e+01 -1.300e+01 -1.300e+01 -1.300e+01 -1.300e+01 -1.300e+01 -1.300e+01 -1.300e+01 -1.300e+01 -1.300e+01 -1.300e+01 -1.300e+01 -1.300e+01 -1.300e+01 -1.300e+01 -1.300e+01 -1.300e+01 -1.300e+01 -1.300e+01 -1.300e+01 -1.300e+01 -1.300e+01 -1.300e+01 -1.300e+01 -1.300e+01 -1.300e+01 -1.300e+01 -1.300e+01 -1.300e+01 -1.300e+01 -1.300e+01 -1.300e+01 -1.300e+01 -1.300e+01 -1.300e+01 -1.300e+01 -1.300e+01 -1.300e+01 -1.300e+01 -1.300e+01 -1.300e+01 -1.300e+01 -1.300e+01 -1.300e+01 -1.300e+01 -1.300e+01 -1.300e+01 -1.300e+01 -1.300e+01 -1.300e+01 -1.300e+01 -1.300e+01 -1.300e+01 -1.300e+01 -1.300e+01 -1.300e+01 -1.300e+01 -1.300e+01 -1.300e+01 -1.300e+01 -1.300e+01 -1.300e+01 -1.300e+01 -1.300e+01 -1.300e+01 -1.300e+01 -1.300e+01 -1.300e+01 -1.300e+01 -1.300e+01 -1.300e+01 -1.300e+01 -1.300e+01 -1.300e+01 -1.300e+01 -1.300e+01 -1.300e+01 -1.300e+01 -1.300e+01 -1.300e+01 -1.300e+01 -1.300e+01 -1.300e+01 -1.300e+01 -1.300e+01 -1.300e+01 -1.300e+01 -1.300e+01 -1.300e+01 -1.300e+01 -1.300e+01 -1.300e+01 -1.300e+01 -1.300e+01 -1.300e+01 -1.300e+01 -1.300e+01 -1.300e+01 -1.300e+01 -1.300e+01 -1.300e+01 -1.300e+01 -1.300e+01 -1.300e+01 -1.300e+01 -1.300e+01 -1.300e+01 -1.300e+01 -1.300e+01 -1.300e+01 -1.300e+01 -1.300e+01 -1.300e+01 -1.300e+01 -1.300e+01 -1.300e+01 -1.300e+01 -1.300e+01 -1.300e+01 -1.300e+01 -1.300e+01 -1.300e+01 -1.300e+01 -1.300e+01 -1.300e+01 -1.300e+01 -1.300e+01 -1.300e+01 -1.300e+01 -1.300e+01 -1.300e+01 -1.300e+01 -1.300e+01 -1.300e+01 -1.300e+01 -1.300e+01 -1.300e+01 -1.300e+01 -1.300e+01 -1.300e+01 -1.300e+01 -1.300e+01 -1.300e+01 -1.300e+01 -1.300e+01 -1.300e+01 -1.300e+01 -1.300e+01 -1.300e+01 -1.300e+01 -1.300e+01 -1.300e+01 -1.300e+01 -1.300e+01 -1.300e+01 -1.300e+01 -1.300e+01 -1.300e+01 -1.300e+01 -1.300e+01 -1.300e+01 -1.300e+01 -1.300e+01 -1.300e+01 -1.300e+01 -1.300e+01 -1.300e+01 -1.300e+01 -1.300e+01 -1.300e+01 -1.300e+01 -1.300e+01 -1.300e+01 -1.300e+01 -1.300e+01 -1.300e+01 -1.300e+01 -1.300e+01 -1.300e+01 -1.300e+01 -1.300e+01 -1.300e+01 -1.300e+01 -1.300e+01 -1.300e+01 -1.300e+01 -1.300e+01 -1.300e+01 -1.300e+01 -1.300e+01 -1.300e+01 -1.300e+01 -1.300e+01 -1.300e+01 -1.300e+01 -1.300e+01 -1.300e+01 -1.300e+01 -1.300e+01 -1.300e+01 -1.300e+01 -1.300e+01 -1.300e+01 -1.300e+01 -1.300e+01 -1.300e+01 -1.300e+01 -1.300e+01 -1.300e+01 -1.300e+01 -1.300e+01 -1.300e+01 -1.300e+01 -1.300e+01 -1.300e+01 -1.300e+01 -1.300e+01 -1.300e+01 -1.300e+01 -1.300e+01 -1.300e+01 -1.300e+01 -1.300e+01 -1.300e+01 -1.300e+01 -1.300e+01 -1.300e+01 -1.300e+01 -1.300e+01 -1.300e+01 -1.300e+01 -1.300e+01 -1.300e+01 -1.300e+01 -1.300e+01 -1.300e+01 -1.300e+01 -1.300e+01 -1.300e+01 -1.300e+01 -1.300e+01 -1.300e+01 -1.300e+01 -1.300e+01 -1.300e+01 -1.300e+01 -1.300e+01 -1.300e+01 -1.300e+01 -1.300e+01 -1.300e+01 -1.300e+01 -1.300e+01 -1.300e+01 -1.300e+01 -1.300e+01 -1.300e+01 -1.300e+01 -1.300e+01 -1.300e+01 -1.300e+01 -1.300e+01 -1.300e+01 -1.300e+01 -1.300e+01 -1.300e+01 -1.300e+01 -1.300e+01 -1.300e+01 -1.300e+01 -1.300e+01 -1.300e+01 -1.300e+01 -1.300e+01 -1.300e+01 -1.300e+01 -1.300e+01 -1.300e+01 -1.300e+01 -1.300e+01 -1.300e+01 -1.300e+01 -1.300e+01 -1.300e+01 -1.300e+01 -1.300e+01 -1.300e+01 -1.300e+01 -1.300e+01 -1.300e+01 -1.300e+01 -1.300e+01 -1.300e+01 -1.300e+01 -1.300e+01 -1.300e+01 -1.300e+01 -1.300e+01 -1.300e+01 -1.300e+01 -1.300e+01 -1.300e+01 -1.300e+01 -1.300e+01 -1.300e+01 -1.300e+01 -1.300e+01 -1.300e+01 -1.300e+01 -1.300e+01 -1.300e+01 -1.300e+01 -1.300e+01 -1.300e+01 -1.300e+01 -1.300e+01 -1.300e+01 -1.300e+01 -1.300e+01 -1.300e+01 -1.300e+01 -1.300e+01 -1.300e+01 -1.300e+01 -1.300e+01 -1.300e+01 -1.300e+01 -1.300e+01 -1.300e+01 -1.300e+01 -1.300e+01 -1.300e+01 -1.300e+01 -1.300e+01 -1.300e+01 -1.300e+01 -1.300e+01 -1.300e+01 -1.300e+01 -1.300e+01 -1.300e+01 -1.300e+01 -1.300e+01 -1.300e+01 -1.300e+01 -1.300e+01 -1.300e+01 -1.300e+01 -1.300e+01 -1.300e+01 -1.300e+01 -1.300e+01 -1.300e+01 -1.300e+01 -1.300e+01 -1.300e+01 -1.300e+01 -1.300e+01 -1.300e+01 -1.300e+01 -1.300e+01 -1.300e+01 -1.300e+01 -1.300e+01 -1.300e+01 -1.300e+01 -1.300e+01 -1.300e+01 -1.300e+01 -1.300e+01 -1.300e+01 -1.300e+01 -1.300e+01 -1.300e+01 -1.300e+01 -1.300e+01 -1.300e+01 -1.300e+01 -1.300e+01 -1.300e+01 -1.300e+01 -1.300e+01 -1.300e+01 -1.300e+01 -1.300e+01 -1.300e+01 -1.300e+01 -1.300e+01 -1.300e+01 -1.300e+01 -1.300e+01 -1.300e+01 -1.300e+01 -1.300e+01 -1.300e+01 -1.300e+01 -1.300e+01 -1.300e+01 -1.300e+01 -1.300e+01 -1.300e+01 -1.300e+01 -1.300e+01 -1.300e+01 -1.300e+01 -1.300e+01 -1.300e+01 -1.300e+01 -1.300e+01 -1.300e+01 -1.300e+01 -1.300e+01 -1.300e+01 -1.300e+01 -1.300e+01 -1.300e+01 -1.300e+01 -1.300e+01 -1.300e+01 -1.300e+01 -1.300e+01 -1.300e+01 -1.300e+01 -1.300e+01 -1.300e+01 -1.300e+01 -1.300e+01 -1.300e+01 -1.300e+01 -1.300e+01 -1.300e+01 -1.300e+01 -1.300e+01 -1.300e+01 -1.300e+01 -1.300e+01 -1.300e+01 -1.300e+01 -1.300e+01 -1.300e+01 -1.300e+01 -1.300e+01 -1.300e+01 -1.300e+01 -1.300e+01 -1.300e+01 -5.000e+00 -5.000e+00 -5.000e+00 -5.000e+00 -5.000e+00 -5.000e+00 -5.000e+00 -5.000e+00 -5.000e+00 -5.000e+00 -5.000e+00 -5.000e+00 -5.000e+00 -5.000e+00 -5.000e+00 -5.000e+00 -5.000e+00 -5.000e+00 -5.000e+00 -5.000e+00 -5.000e+00 -5.000e+00 -5.000e+00 -5.000e+00 -5.000e+00 -5.000e+00 -5.000e+00 -5.000e+00 -5.000e+00 -5.000e+00 -5.000e+00 -5.000e+00 -5.000e+00 -5.000e+00 -5.000e+00 -5.000e+00 -5.000e+00 -5.000e+00 -5.000e+00 -5.000e+00 -5.000e+00 -5.000e+00 -5.000e+00 -1.300e+01 -1.300e+01 -1.300e+01 -1.300e+01 -1.300e+01 -1.300e+01 -1.300e+01 -1.300e+01 -1.300e+01 -1.300e+01 -1.300e+01 -1.300e+01 -1.300e+01 -1.300e+01 -1.300e+01 -1.300e+01 -1.300e+01 -1.300e+01 -1.300e+01 -1.300e+01 -1.300e+01 -1.300e+01 -1.300e+01 -1.300e+01 -1.300e+01 -1.300e+01 -1.300e+01 -1.300e+01 -1.300e+01 -1.300e+01 -1.300e+01 -1.300e+01 -1.300e+01 -1.300e+01 -1.300e+01 -1.300e+01 -1.300e+01 -1.300e+01 -1.300e+01 -1.300e+01 -1.300e+01 -1.300e+01 -1.300e+01 -1.300e+01 -1.300e+01 -1.300e+01 -1.300e+01 -1.300e+01 -1.300e+01 -1.300e+01 -1.300e+01 -1.300e+01 -1.300e+01 -1.300e+01 -1.300e+01 -1.300e+01 -1.300e+01 -1.300e+01 -1.300e+01 -1.300e+01 -1.300e+01 -1.300e+01 -1.300e+01 -1.300e+01 -1.300e+01 -1.300e+01 -1.300e+01 -1.300e+01 -1.300e+01 -1.300e+01 -1.300e+01 -1.300e+01 -1.300e+01 -1.300e+01 -1.300e+01 -1.300e+01 -1.300e+01 -1.300e+01 -1.300e+01 -1.300e+01 -1.300e+01 -1.300e+01 -1.300e+01 -1.300e+01 -1.300e+01 -1.300e+01 -1.300e+01 -1.300e+01 -1.300e+01 -1.300e+01 -1.300e+01 -1.300e+01 -1.300e+01 -1.300e+01 -1.300e+01 -1.300e+01 -1.300e+01 -1.300e+01 -1.300e+01 -1.300e+01 -1.300e+01 -1.300e+01 -1.300e+01 -1.300e+01 -1.300e+01 -1.300e+01 -1.300e+01 -1.300e+01 -1.300e+01 -1.300e+01 -1.300e+01 -1.300e+01 -1.300e+01 -1.300e+01 -1.300e+01 -1.300e+01 -1.300e+01 -1.300e+01 -1.300e+01 -1.300e+01 -1.300e+01 -1.300e+01 -1.300e+01 -1.300e+01 -1.300e+01 -1.300e+01 -1.300e+01 -1.300e+01 -1.300e+01 -1.300e+01 -1.300e+01 -1.300e+01 -1.300e+01 -1.300e+01 -1.300e+01 -1.300e+01 -1.300e+01 -1.300e+01 -1.300e+01 -1.300e+01 -1.300e+01 -1.300e+01 -1.300e+01 -1.300e+01 -1.300e+01 -1.300e+01 -1.300e+01 -1.300e+01 -1.300e+01 -1.300e+01 -1.300e+01 -1.300e+01 -1.300e+01 -1.300e+01 -1.300e+01 -1.300e+01 -1.300e+01 -1.300e+01 -1.300e+01 -1.300e+01 -1.300e+01 -1.300e+01 -1.300e+01 -1.300e+01 -1.300e+01 -1.300e+01 -1.300e+01 -1.300e+01 -1.300e+01 -1.300e+01 -1.300e+01 -1.300e+01 -1.300e+01 -1.300e+01 -1.300e+01 -1.300e+01 -1.300e+01 -1.300e+01 -1.300e+01 -1.300e+01 -1.300e+01 -1.300e+01 -1.300e+01 -1.300e+01 -1.300e+01 -1.300e+01 -1.300e+01 -1.300e+01 -1.300e+01 -1.300e+01 -1.300e+01 -1.300e+01 -1.300e+01 -1.300e+01 -1.300e+01 -1.300e+01 -1.300e+01 -1.300e+01 -1.300e+01 -1.300e+01 -1.300e+01 -1.300e+01 -1.300e+01 -1.300e+01 -1.300e+01 -1.300e+01 -1.300e+01 -1.300e+01 -1.300e+01 -1.300e+01 -1.300e+01 -1.300e+01 -1.300e+01 -1.300e+01 -1.300e+01 -1.300e+01 -1.300e+01 -1.300e+01 -1.300e+01 -1.300e+01 -1.300e+01 -1.300e+01 -1.300e+01 -1.300e+01 -1.300e+01 -1.300e+01 -1.300e+01 -1.300e+01 -1.300e+01 -1.300e+01 -1.300e+01 -1.300e+01 -1.300e+01 -1.300e+01 -1.300e+01 -1.300e+01 -1.300e+01 -1.300e+01 -1.300e+01 -1.300e+01 -1.300e+01 -1.300e+01 -1.300e+01 -1.300e+01 -1.300e+01 -1.300e+01 -1.300e+01 -1.300e+01 -1.300e+01 -1.300e+01 -1.300e+01 -1.300e+01 -1.300e+01 -1.300e+01 -1.300e+01 -1.300e+01 -1.300e+01 -1.300e+01 -1.300e+01 -1.300e+01 -1.300e+01 -1.300e+01 -1.300e+01 -1.300e+01 -1.300e+01 -1.300e+01 -1.300e+01 -1.300e+01 -1.300e+01 -1.300e+01 -1.300e+01 -1.300e+01 -1.300e+01 -1.300e+01 -1.300e+01 -1.300e+01 -1.300e+01 -1.300e+01 -1.300e+01 -1.300e+01 -1.300e+01 -1.300e+01 -1.300e+01 -1.300e+01 -1.300e+01 -1.300e+01 -1.300e+01 -1.300e+01 -1.300e+01 -1.300e+01 -1.300e+01 -1.300e+01 -1.300e+01 -1.300e+01 -1.300e+01 -1.300e+01 -1.300e+01 -1.300e+01 -1.300e+01 -1.300e+01 -1.300e+01 -1.300e+01 -1.300e+01 -1.300e+01 -1.300e+01 -1.300e+01 -1.300e+01 -1.300e+01 -1.300e+01 -1.300e+01 -1.300e+01 -1.300e+01 -1.300e+01 -1.300e+01 -1.300e+01 -1.300e+01 -1.300e+01 -1.300e+01 -1.300e+01 -1.300e+01 -1.300e+01 -1.300e+01 -1.300e+01 -1.300e+01 -1.300e+01 -1.300e+01 -1.300e+01 -1.300e+01 -1.300e+01 -1.300e+01 -1.300e+01 -1.300e+01 -1.300e+01 -1.300e+01 -1.300e+01 -1.300e+01 -1.300e+01 -1.300e+01 -1.300e+01 -1.300e+01 -1.300e+01 -1.300e+01 -1.300e+01 -1.300e+01 -1.300e+01 -1.300e+01 -1.300e+01 -1.300e+01 -1.300e+01 -1.300e+01 -1.300e+01 -1.300e+01 -1.300e+01 -1.300e+01 -1.300e+01 -1.300e+01 -1.300e+01 -1.300e+01 -1.300e+01 -1.300e+01 -1.300e+01 -1.300e+01 -1.300e+01 -1.300e+01 -1.300e+01 -1.300e+01 -1.300e+01 -1.300e+01 -1.300e+01 -1.300e+01 -1.300e+01 -1.300e+01 -1.300e+01 -1.300e+01 -1.300e+01 -1.300e+01 -1.300e+01 -1.300e+01 -1.300e+01 -1.300e+01 -1.300e+01 -1.300e+01 -1.300e+01 -1.300e+01 -1.300e+01 -1.300e+01 -1.300e+01 -1.300e+01 -1.300e+01 -1.300e+01 -1.300e+01 -1.300e+01 -1.300e+01 -1.300e+01 -1.300e+01 -1.300e+01 -1.300e+01 -1.300e+01 -1.300e+01 -1.300e+01 -1.300e+01 -1.300e+01 -1.300e+01 -1.300e+01 -1.300e+01 -1.300e+01 -1.300e+01 -1.300e+01 -1.300e+01 -1.300e+01 -1.300e+01 -1.300e+01 -1.300e+01 -1.300e+01 -1.300e+01 -1.300e+01 -1.300e+01 -1.300e+01 -1.300e+01 -1.300e+01 -1.300e+01 -1.300e+01 -1.300e+01 -1.300e+01 -1.300e+01 -1.300e+01 -1.300e+01 -1.300e+01 -1.300e+01 -1.300e+01 -1.300e+01 -1.300e+01 -1.300e+01 -1.300e+01 -1.300e+01 -1.300e+01 -1.300e+01 -1.300e+01 -1.300e+01 -1.300e+01 -1.300e+01 -5.000e+00 -5.000e+00 -5.000e+00 -5.000e+00 -5.000e+00 -5.000e+00 -5.000e+00 -5.000e+00 -5.000e+00 -5.000e+00 -5.000e+00 -5.000e+00 -5.000e+00 -5.000e+00 -5.000e+00 -5.000e+00 -5.000e+00 -5.000e+00 -5.000e+00 -5.000e+00 -5.000e+00 -5.000e+00 -5.000e+00 -5.000e+00 -5.000e+00 -5.000e+00 -5.000e+00 -5.000e+00 -5.000e+00 -5.000e+00 -5.000e+00 -5.000e+00 -5.000e+00 -5.000e+00 -5.000e+00 -5.000e+00 -5.000e+00 -5.000e+00 -5.000e+00 -5.000e+00 -5.000e+00 -5.000e+00 -5.000e+00 -1.300e+01 -1.300e+01 -1.300e+01 -1.300e+01 -1.300e+01 -1.300e+01 -1.300e+01 -1.300e+01 -1.300e+01 -1.300e+01 -1.300e+01 -1.300e+01 -1.300e+01 -1.300e+01 -1.300e+01 -1.300e+01 -1.300e+01 -1.300e+01 -1.300e+01 -1.300e+01 -1.300e+01 -1.300e+01 -1.300e+01 -1.300e+01 -1.300e+01 -1.300e+01 -1.300e+01 -1.300e+01 -1.300e+01 -1.300e+01 -1.300e+01 -1.300e+01 -1.300e+01 -1.300e+01 -1.300e+01 -1.300e+01 -1.300e+01 -1.300e+01 -1.300e+01 -1.300e+01 -1.300e+01 -1.300e+01 -1.300e+01 -1.300e+01 -1.300e+01 -1.300e+01 -1.300e+01 -1.300e+01 -1.300e+01 -1.300e+01 -1.300e+01 -1.300e+01 -1.300e+01 -1.300e+01 -1.300e+01 -1.300e+01 -1.300e+01 -1.300e+01 -1.300e+01 -1.300e+01 -1.300e+01 -1.300e+01 -1.300e+01 -1.300e+01 -1.300e+01 -1.300e+01 -1.300e+01 -1.300e+01 -1.300e+01 -1.300e+01 -1.300e+01 -1.300e+01 -1.300e+01 -1.300e+01 -1.300e+01 -1.300e+01 -1.300e+01 -1.300e+01 -1.300e+01 -1.300e+01 -1.300e+01 -1.300e+01 -1.300e+01 -1.300e+01 -1.300e+01 -1.300e+01 -1.300e+01 -1.300e+01 -1.300e+01 -1.300e+01 -1.300e+01 -1.300e+01 -1.300e+01 -1.300e+01 -1.300e+01 -1.300e+01 -1.300e+01 -1.300e+01 -1.300e+01 -1.300e+01 -1.300e+01 -1.300e+01 -1.300e+01 -1.300e+01 -1.300e+01 -1.300e+01 -1.300e+01 -1.300e+01 -1.300e+01 -1.300e+01 -1.300e+01 -1.300e+01 -1.300e+01 -1.300e+01 -1.300e+01 -1.300e+01 -1.300e+01 -1.300e+01 -1.300e+01 -1.300e+01 -1.300e+01 -1.300e+01 -1.300e+01 -1.300e+01 -1.300e+01 -1.300e+01 -1.300e+01 -1.300e+01 -1.300e+01 -1.300e+01 -1.300e+01 -1.300e+01 -1.300e+01 -1.300e+01 -1.300e+01 -1.300e+01 -1.300e+01 -1.300e+01 -1.300e+01 -1.300e+01 -1.300e+01 -1.300e+01 -1.300e+01 -1.300e+01 -1.300e+01 -1.300e+01 -1.300e+01 -1.300e+01 -1.300e+01 -1.300e+01 -1.300e+01 -1.300e+01 -1.300e+01 -1.300e+01 -1.300e+01 -1.300e+01 -1.300e+01 -1.300e+01 -1.300e+01 -1.300e+01 -1.300e+01 -1.300e+01 -1.300e+01 -1.300e+01 -1.300e+01 -1.300e+01 -1.300e+01 -1.300e+01 -1.300e+01 -1.300e+01 -1.300e+01 -1.300e+01 -1.300e+01 -1.300e+01 -1.300e+01 -1.300e+01 -1.300e+01 -1.300e+01 -1.300e+01 -1.300e+01 -1.300e+01 -1.300e+01 -1.300e+01 -1.300e+01 -1.300e+01 -1.300e+01 -1.300e+01 -1.300e+01 -1.300e+01 -1.300e+01 -1.300e+01 -1.300e+01 -1.300e+01 -1.300e+01 -1.300e+01 -1.300e+01 -1.300e+01 -1.300e+01 -1.300e+01 -1.300e+01 -1.300e+01 -1.300e+01 -1.300e+01 -1.300e+01 -1.300e+01 -1.300e+01 -1.300e+01 -1.300e+01 -1.300e+01 -1.300e+01 -1.300e+01 -1.300e+01 -1.300e+01 -1.300e+01 -1.300e+01 -1.300e+01 -1.300e+01 -1.300e+01 -1.300e+01 -1.300e+01 -1.300e+01 -1.300e+01 -1.300e+01 -1.300e+01 -1.300e+01 -1.300e+01 -1.300e+01 -1.300e+01 -1.300e+01 -1.300e+01 -1.300e+01 -1.300e+01 -1.300e+01 -1.300e+01 -1.300e+01 -1.300e+01 -1.300e+01 -1.300e+01 -1.300e+01 -1.300e+01 -1.300e+01 -1.300e+01 -1.300e+01 -1.300e+01 -1.300e+01 -1.300e+01 -1.300e+01 -1.300e+01 -1.300e+01 -1.300e+01 -1.300e+01 -1.300e+01 -1.300e+01 -1.300e+01 -1.300e+01 -1.300e+01 -1.300e+01 -1.300e+01 -1.300e+01 -1.300e+01 -1.300e+01 -1.300e+01 -1.300e+01 -1.300e+01 -1.300e+01 -1.300e+01 -1.300e+01 -1.300e+01 -1.300e+01 -1.300e+01 -1.300e+01 -1.300e+01 -1.300e+01 -1.300e+01 -1.300e+01 -1.300e+01 -1.300e+01 -1.300e+01 -1.300e+01 -1.300e+01 -1.300e+01 -1.300e+01 -1.300e+01 -1.300e+01 -1.300e+01 -1.300e+01 -1.300e+01 -1.300e+01 -1.300e+01 -1.300e+01 -1.300e+01 -1.300e+01 -1.300e+01 -1.300e+01 -1.300e+01 -1.300e+01 -1.300e+01 -1.300e+01 -1.300e+01 -1.300e+01 -1.300e+01 -1.300e+01 -1.300e+01 -1.300e+01 -1.300e+01 -1.300e+01 -1.300e+01 -1.300e+01 -1.300e+01 -1.300e+01 -1.300e+01 -1.300e+01 -1.300e+01 -1.300e+01 -1.300e+01 -1.300e+01 -1.300e+01 -1.300e+01 -1.300e+01 -1.300e+01 -1.300e+01 -1.300e+01 -1.300e+01 -1.300e+01 -1.300e+01 -1.300e+01 -1.300e+01 -1.300e+01 -1.300e+01 -1.300e+01 -1.300e+01 -1.300e+01 -1.300e+01 -1.300e+01 -1.300e+01 -1.300e+01 -1.300e+01 -1.300e+01