<?xml version="1.0"?>
<VTKFile type="UnstructuredGrid" version="0.1" byte_order="LittleEndian">
   <UnstructuredGrid>
      <Piece NumberOfPoints="21670" NumberOfCells="1514">
         <Points>
            <DataArray type="Float32" Name="Position" NumberOfComponents="3" format="ascii">
0.067	-5.026	0.141
0.070	-5.018	0.146
0.069	-5.009	0.147
0.065	-5.002	0.143
0.059	-4.999	0.137
0.053	-5.001	0.130
0.050	-5.009	0.125
0.051	-5.018	0.124
0.055	-5.025	0.128
0.061	-5.028	0.134
-0.568	-5.132	0.690
-0.565	-5.125	0.695
-0.566	-5.115	0.696
-0.570	-5.108	0.693
-0.576	-5.105	0.687
-0.582	-5.107	0.680
-0.585	-5.115	0.675
-0.584	-5.124	0.674
-0.580	-5.131	0.677
-0.574	-5.134	0.683
-1.209	-5.279	1.287
-1.206	-5.272	1.292
-1.207	-5.263	1.293
-1.211	-5.255	1.289
-1.217	-5.252	1.283
-1.223	-5.255	1.277
-1.226	-5.262	1.272
-1.226	-5.272	1.271
-1.222	-5.279	1.275
-1.215	-5.282	1.281
-1.478	-5.299	1.558
-1.474	-5.292	1.563
-1.474	-5.283	1.563
-1.478	-5.275	1.559
-1.485	-5.272	1.553
-1.491	-5.275	1.547
-1.495	-5.282	1.543
-1.494	-5.291	1.542
-1.490	-5.299	1.546
-1.484	-5.302	1.552
0.131	-5.064	0.261
0.133	-5.054	0.262
0.129	-5.046	0.264
0.121	-5.042	0.267
0.113	-5.044	0.271
0.106	-5.050	0.272
0.105	-5.059	0.271
0.108	-5.067	0.269
0.116	-5.072	0.265
0.124	-5.070	0.262
0.425	-5.177	1.048
0.428	-5.169	1.050
0.424	-5.160	1.052
0.417	-5.156	1.055
0.408	-5.157	1.057
0.401	-5.163	1.058
0.399	-5.172	1.056
0.402	-5.180	1.054
0.409	-5.184	1.051
0.418	-5.183	1.049
0.546	-5.429	1.853
0.549	-5.420	1.855
0.546	-5.412	1.858
0.539	-5.407	1.860
0.529	-5.407	1.861
0.522	-5.413	1.861
0.519	-5.422	1.859
0.522	-5.430	1.857
0.530	-5.435	1.854
0.539	-5.435	1.853
0.574	-5.463	2.019
0.577	-5.454	2.020
0.574	-5.446	2.022
0.567	-5.441	2.025
0.558	-5.441	2.026
0.550	-5.447	2.026
0.547	-5.455	2.025
0.550	-5.464	2.023
0.558	-5.469	2.020
0.567	-5.469	2.019
0.619	-5.801	1.278
0.622	-5.793	1.283
0.621	-5.784	1.284
0.616	-5.777	1.281
0.609	-5.774	1.275
0.603	-5.777	1.269
0.600	-5.784	1.264
0.601	-5.793	1.263
0.606	-5.800	1.265
0.613	-5.803	1.271
0.020	-5.942	1.882
0.023	-5.935	1.886
0.023	-5.926	1.887
0.018	-5.918	1.884
0.012	-5.915	1.878
0.006	-5.918	1.872
0.002	-5.925	1.867
0.003	-5.935	1.867
0.007	-5.942	1.870
0.014	-5.945	1.876
-0.591	-5.973	2.531
-0.588	-5.965	2.535
-0.588	-5.956	2.536
-0.592	-5.949	2.532
-0.598	-5.946	2.526
-0.605	-5.948	2.520
-0.608	-5.956	2.516
-0.608	-5.965	2.515
-0.604	-5.973	2.519
-0.598	-5.976	2.525
-0.684	-5.981	2.619
-0.681	-5.974	2.623
-0.681	-5.964	2.624
-0.685	-5.957	2.620
-0.691	-5.954	2.614
-0.697	-5.957	2.607
-0.701	-5.964	2.603
-0.700	-5.973	2.602
-0.696	-5.981	2.606
-0.690	-5.984	2.612
0.669	-5.900	1.357
0.669	-5.891	1.358
0.664	-5.884	1.363
0.657	-5.882	1.368
0.650	-5.886	1.373
0.645	-5.894	1.375
0.646	-5.903	1.373
0.650	-5.910	1.369
0.657	-5.912	1.363
0.665	-5.908	1.359
1.160	-6.001	2.039
1.160	-5.991	2.040
1.155	-5.984	2.043
1.148	-5.981	2.048
1.140	-5.984	2.052
1.135	-5.992	2.054
1.135	-6.001	2.054
1.140	-6.009	2.050
1.147	-6.011	2.045
1.155	-6.008	2.041
1.565	-6.054	2.837
1.566	-6.045	2.837
1.562	-6.037	2.839
1.554	-6.033	2.843
1.546	-6.035	2.846
1.540	-6.042	2.848
1.539	-6.051	2.848
1.543	-6.059	2.846
1.550	-6.063	2.842
1.558	-6.061	2.839
1.608	-6.067	2.958
1.610	-6.058	2.958
1.606	-6.049	2.960
1.599	-6.045	2.963
1.590	-6.046	2.966
1.584	-6.053	2.968
1.582	-6.062	2.968
1.585	-6.070	2.965
1.593	-6.074	2.962
1.602	-6.073	2.959
0.714	-6.013	1.447
0.715	-6.004	1.448
0.710	-5.997	1.451
0.702	-5.994	1.456
0.695	-5.997	1.460
0.690	-6.005	1.463
0.690	-6.014	1.462
0.695	-6.021	1.459
0.702	-6.024	1.454
0.710	-6.021	1.449
1.187	-6.066	2.199
1.187	-6.057	2.200
1.183	-6.050	2.204
1.176	-6.047	2.209
1.168	-6.051	2.213
1.163	-6.058	2.215
1.163	-6.067	2.214
1.167	-6.075	2.210
1.175	-6.077	2.205
1.182	-6.074	2.201
1.618	-6.233	2.890
1.619	-6.225	2.893
1.615	-6.218	2.898
1.608	-6.216	2.904
1.600	-6.220	2.907
1.595	-6.227	2.907
1.594	-6.236	2.904
1.598	-6.243	2.899
1.605	-6.245	2.894
1.613	-6.241	2.890
1.682	-6.290	2.986
1.683	-6.282	2.990
1.679	-6.276	2.996
1.672	-6.275	3.002
1.664	-6.278	3.005
1.659	-6.285	3.004
1.657	-6.294	3.000
1.661	-6.300	2.994
1.668	-6.301	2.989
1.676	-6.298	2.986
0.752	-6.118	1.527
0.758	-6.123	1.531
0.761	-6.129	1.537
0.758	-6.133	1.545
0.750	-6.134	1.550
0.741	-6.132	1.552
0.735	-6.126	1.548
0.732	-6.120	1.542
0.735	-6.116	1.534
0.743	-6.115	1.529
0.481	-6.763	1.037
0.487	-6.769	1.041
0.489	-6.776	1.047
0.485	-6.779	1.055
0.477	-6.779	1.060
0.469	-6.775	1.062
0.463	-6.769	1.058
0.462	-6.763	1.052
0.466	-6.759	1.044
0.473	-6.759	1.038
0.002	-7.340	0.546
0.007	-7.347	0.550
0.007	-7.353	0.557
0.003	-7.355	0.565
-0.004	-7.353	0.571
-0.011	-7.347	0.572
-0.016	-7.340	0.568
-0.016	-7.334	0.561
-0.012	-7.332	0.553
-0.005	-7.334	0.547
-0.134	-7.483	0.477
-0.140	-7.482	0.484
-0.147	-7.477	0.488
-0.152	-7.470	0.487
-0.155	-7.463	0.481
-0.153	-7.460	0.472
-0.147	-7.461	0.465
-0.141	-7.466	0.461
-0.135	-7.473	0.462
-0.132	-7.479	0.468
0.790	-6.256	1.629
0.792	-6.249	1.634
0.791	-6.240	1.635
0.788	-6.232	1.631
0.783	-6.229	1.623
0.779	-6.232	1.615
0.777	-6.239	1.610
0.778	-6.248	1.609
0.781	-6.256	1.613
0.786	-6.259	1.621
0.020	-6.363	2.044
0.021	-6.356	2.050
0.020	-6.347	2.050
0.017	-6.339	2.046
0.013	-6.336	2.038
0.010	-6.339	2.030
0.008	-6.346	2.025
0.009	-6.355	2.024
0.013	-6.363	2.028
0.017	-6.366	2.036
-0.685	-6.468	2.319
-0.684	-6.460	2.324
-0.685	-6.451	2.325
-0.688	-6.444	2.320
-0.692	-6.441	2.312
-0.694	-6.443	2.304
-0.695	-6.451	2.298
-0.694	-6.460	2.298
-0.691	-6.467	2.302
-0.688	-6.470	2.310
0.825	-6.356	1.692
0.827	-6.351	1.699
0.827	-6.351	1.709
0.824	-6.356	1.716
0.821	-6.364	1.719
0.817	-6.372	1.716
0.815	-6.377	1.708
0.815	-6.377	1.699
0.818	-6.372	1.692
0.821	-6.364	1.689
1.622	-6.724	1.710
1.624	-6.718	1.718
1.622	-6.718	1.727
1.619	-6.722	1.734
1.616	-6.730	1.737
1.613	-6.739	1.735
1.611	-6.744	1.727
1.612	-6.745	1.718
1.615	-6.740	1.711
1.619	-6.732	1.708
2.009	-6.870	1.813
2.009	-6.864	1.820
2.007	-6.863	1.829
2.004	-6.867	1.837
2.000	-6.874	1.840
1.997	-6.883	1.838
1.997	-6.889	1.831
1.999	-6.890	1.822
2.002	-6.886	1.814
2.006	-6.879	1.811
0.869	-6.492	1.779
0.870	-6.483	1.779
0.866	-6.475	1.781
0.859	-6.471	1.785
0.850	-6.472	1.788
0.844	-6.479	1.790
0.843	-6.488	1.790
0.846	-6.496	1.788
0.854	-6.501	1.784
0.862	-6.499	1.781
1.199	-6.553	2.579
1.201	-6.544	2.579
1.197	-6.536	2.582
1.190	-6.532	2.585
1.181	-6.533	2.588
1.174	-6.540	2.589
1.172	-6.549	2.588
1.176	-6.557	2.586
1.183	-6.561	2.583
1.192	-6.560	2.580
1.424	-6.727	3.376
1.426	-6.718	3.377
1.422	-6.710	3.380
1.415	-6.706	3.383
1.406	-6.707	3.386
1.399	-6.714	3.387
1.397	-6.723	3.386
1.401	-6.731	3.383
1.408	-6.735	3.380
1.417	-6.734	3.377
1.447	-6.738	3.436
1.449	-6.729	3.437
1.445	-6.721	3.440
1.437	-6.717	3.443
1.429	-6.719	3.446
1.422	-6.725	3.448
1.421	-6.734	3.447
1.424	-6.742	3.444
1.432	-6.746	3.440
1.441	-6.745	3.437
0.903	-6.614	1.859
0.901	-6.618	1.868
0.895	-6.618	1.875
0.887	-6.613	1.878
0.881	-6.607	1.877
0.878	-6.601	1.870
0.880	-6.597	1.862
0.886	-6.598	1.855
0.893	-6.602	1.851
0.900	-6.608	1.853
0.413	-7.204	1.498
0.414	-7.209	1.506
0.411	-7.210	1.515
0.404	-7.206	1.520
0.397	-7.200	1.521
0.392	-7.194	1.517
0.392	-7.189	1.509
0.395	-7.188	1.500
0.402	-7.192	1.494
0.409	-7.198	1.494
-0.073	-7.665	1.336
-0.077	-7.664	1.345
-0.084	-7.659	1.349
-0.090	-7.653	1.349
-0.094	-7.646	1.343
-0.093	-7.643	1.334
-0.089	-7.644	1.326
-0.083	-7.649	1.321
-0.077	-7.656	1.322
-0.073	-7.662	1.328
0.936	-6.737	1.939
0.937	-6.728	1.939
0.933	-6.719	1.941
0.926	-6.715	1.945
0.917	-6.717	1.948
0.911	-6.724	1.951
0.910	-6.733	1.950
0.914	-6.741	1.948
0.921	-6.745	1.945
0.930	-6.743	1.941
1.285	-6.801	2.759
1.287	-6.792	2.759
1.283	-6.784	2.761
1.276	-6.780	2.764
1.267	-6.781	2.767
1.261	-6.787	2.769
1.259	-6.796	2.770
1.263	-6.805	2.768
1.270	-6.809	2.765
1.279	-6.808	2.761
1.486	-6.824	3.359
1.488	-6.815	3.358
1.485	-6.806	3.360
1.477	-6.801	3.363
1.469	-6.802	3.365
1.462	-6.808	3.367
1.460	-6.817	3.368
1.463	-6.826	3.366
1.471	-6.831	3.364
1.479	-6.830	3.361
0.955	-6.846	2.008
0.964	-6.848	2.008
0.970	-6.854	2.011
0.971	-6.861	2.017
0.967	-6.866	2.023
0.959	-6.868	2.027
0.950	-6.866	2.027
0.944	-6.860	2.024
0.942	-6.853	2.018
0.947	-6.847	2.012
0.786	-7.403	1.374
0.795	-7.404	1.375
0.801	-7.409	1.378
0.803	-7.417	1.384
0.799	-7.423	1.389
0.791	-7.426	1.392
0.782	-7.425	1.392
0.775	-7.420	1.388
0.773	-7.413	1.382
0.777	-7.406	1.377
0.850	-7.708	0.936
0.860	-7.708	0.938
0.866	-7.713	0.942
0.868	-7.720	0.947
0.865	-7.728	0.952
0.857	-7.732	0.954
0.847	-7.732	0.952
0.841	-7.727	0.948
0.839	-7.720	0.943
0.842	-7.713	0.938
0.191	-5.115	0.386
0.191	-5.106	0.387
0.187	-5.098	0.389
0.179	-5.095	0.393
0.172	-5.097	0.398
0.166	-5.104	0.400
0.166	-5.114	0.400
0.170	-5.121	0.397
0.177	-5.125	0.393
0.185	-5.122	0.389
0.603	-5.152	1.152
0.604	-5.143	1.152
0.600	-5.135	1.154
0.593	-5.131	1.158
0.584	-5.133	1.162
0.579	-5.140	1.164
0.577	-5.149	1.164
0.581	-5.157	1.161
0.589	-5.161	1.158
0.597	-5.159	1.154
0.909	-5.208	1.924
0.911	-5.199	1.923
0.908	-5.191	1.925
0.900	-5.186	1.928
0.891	-5.187	1.931
0.885	-5.194	1.933
0.883	-5.203	1.934
0.887	-5.211	1.932
0.894	-5.216	1.929
0.903	-5.215	1.926
1.037	-5.222	2.287
1.039	-5.213	2.287
1.036	-5.204	2.288
1.028	-5.200	2.291
1.020	-5.200	2.294
1.013	-5.207	2.296
1.011	-5.216	2.296
1.014	-5.224	2.295
1.022	-5.229	2.292
1.031	-5.228	2.289
0.996	-6.997	2.095
0.998	-6.990	2.100
0.997	-6.981	2.101
0.994	-6.973	2.096
0.989	-6.970	2.089
0.985	-6.973	2.081
0.983	-6.980	2.076
0.984	-6.989	2.075
0.987	-6.997	2.079
0.992	-7.000	2.087
0.235	-7.097	2.546
0.239	-7.090	2.551
0.238	-7.080	2.552
0.234	-7.073	2.548
0.228	-7.070	2.541
0.223	-7.072	2.534
0.220	-7.080	2.530
0.220	-7.089	2.529
0.224	-7.097	2.533
0.230	-7.100	2.540
-0.072	-7.106	2.911
-0.068	-7.098	2.915
-0.068	-7.089	2.915
-0.072	-7.081	2.911
-0.079	-7.078	2.906
-0.086	-7.081	2.900
-0.090	-7.089	2.896
-0.090	-7.098	2.896
-0.086	-7.105	2.900
-0.079	-7.108	2.905
1.027	-7.105	2.143
1.031	-7.101	2.150
1.033	-7.103	2.159
1.033	-7.109	2.166
1.030	-7.118	2.168
1.026	-7.125	2.165
[...]
         <CellData>
           <DataArray type="Float32" Name="combinedRootClassID" NumberOfComponents="1" format="ascii">
 -1.300e+01 -1.300e+01 -1.300e+01 -1.300e+01 -1.300e+01 -1.300e+01 -1.300e+01 -1.300e+01 -1.300e+01 -1.300e+01 -1.300e+01 -1.300e+01 -1.300e+01 -1.300e+01 -1.300e+01 -1.300e+01 -1.300e+01 -1.300e+01 -1.300e+01 -1.300e+01 -1.300e+01 -1.300e+01 -1.300e+01 -1.300e+01 -1.300e+01 -1.300e+01 -1.300e+01 -1.300e+01 -1.300e+01 -1.300e+01 -1.300e+01 -1.300e+01 -1.300e+01 -1.300e+01 -1.300e+01 -1.300e+01 -1.300e+01 -1.300e+01 -1.300e+01 -1.300e+01 -1.300e+01 -1.300e+01 -1.300e+01 -1.300e+01 -1.300e+01 -1.300e+01 -1.300e+01 -1.300e+01 -1.300e+01 -1.300e+01 -1.300e+01 -1.300e+01 -1.300e+01 -1.300e+01 -1.300e+01 -1.300e+01 -1.300e+01 -1.300e+01 -1.300e+01 -1.300e+01 -1.300e+01 -1.300e+01 -1.300e+01 -1.300e+01 -1.300e+01 -1.300e+01 -1.300e+01 -1.300e+01 -1.300e+01 -1.300e+01 -1.300e+01 -1.300e+01 -1.300e+01 -1.300e+01 -1.300e+01 -1.300e+01 -1.300e+01 -1.300e+01 -1.300e+01 -1.300e+01 -1.300e+01 -1.300e+01 -1.300e+01 -1.300e+01 -1.300e+01 -1.300e+01 -1.300e+01 -1.300e+01 -1.300e+01 -1.300e+01 -1.300e+01 -1.300e+01 -1.300e+01 -1.300e+01 -1.300e+01 -1.300e+01 -1.300e+01 -1.300e+01 -1.300e+01 -1.300e+01 -1.300e+01 -1.300e+01 -1.300e+01 -1.300e+01 -1.300e+01 -1.300e+01 -1.300e+01 -1.300e+01 -1.300e+01 -1.300e+01 -1.300e+01 -1.300e+01 -1.300e+01 -1.300e+01 -1.300e+01 -1.300e+01 -1.300e+01 -1.300e+01 -1.300e+01 -1.300e+01 -1.300e+01 -1.300e+01 -1.300e+01 -1.300e+01 -1.300e+01 -1.300e+01 -1.300e+01 -1.300e+01 -1.300e+01 -1.300e+01 -1.300e+01 -1.300e+01 -1.300e+01 -1.300e+01 -1.300e+01 -1.300e+01 -1.300e+01 -1.300e+01 -1.300e+01 -1.300e+01 -1.300e+01 -1.300e+01 -1.300e+01 -1.300e+01 -1.300e+01 -1.300e+01 -1.300e+01 -1.300e+01 -1.300e+01 -1.300e+01 -1.300e+01 -1.300e+01 -5.000e+00 -5.000e+00 -5.000e+00 -5.000e+00 -5.000e+00 -5.000e+00 -5.000e+00 -5.000e+00 -5.000e+00 -5.000e+00 -5.000e+00 -5.000e+00 -5.000e+00 -5.000e+00 -5.000e+00 -5.000e+00 -5.000e+00 -5.000e+00 -5.000e+00 -5.000e+00 -5.000e+00 -5.000e+00 -5.000e+00 -5.000e+00 -5.000e+00 -5.000e+00 -5.000e+00 -5.000e+00 -1.300e+01 -1.300e+01 -1.300e+01 -1.300e+01 -1.300e+01 -1.300e+01 -1.300e+01 -1.300e+01 -1.300e+01 -1.300e+01 -1.300e+01 -1.300e+01 -1.300e+01 -1.300e+01 -1.300e+01 -1.300e+01 -1.300e+01 -1.300e+01 -1.300e+01 -1.300e+01 -1.300e+01 -1.300e+01 -1.300e+01 -1.300e+01 -1.300e+01 -1.300e+01 -1.300e+01 -1.300e+01 -1.300e+01 -1.300e+01 -1.300e+01 -1.300e+01 -1.300e+01 -1.300e+01 -1.300e+01 -1.300e+01 -1.300e+01 -1.300e+01 -1.300e+01 -1.300e+01 -1.300e+01 -1.300e+01 -1.300e+01 -1.300e+01 -1.300e+01 -1.300e+01 -1.300e+01 -1.300e+01 -1.300e+01 -1.300e+01 -1.300e+01 -1.300e+01 -1.300e+01 -1.300e+01 -1.300e+01 -1.300e+01 -1.300e+01 -1.300e+01 -1.300e+01 -1.300e+01 -1.300e+01 -1.300e+01 -1.300e+01 -1.300e+01 -1.300e+01 -1.300e+01 -1.300e+01 -1.300e+01 -1.300e+01 -1.300e+01 -1.300e+01 -1.300e+01 -1.300e+01 -1.300e+01 -1.300e+01 -1.300e+01 -1.300e+01 -1.300e+01 -1.300e+01 -1.300e+01 -1.300e+01 -1.300e+01 -1.300e+01 -1.300e+01 -1.300e+01 -1.300e+01 -1.300e+01 -1.300e+01 -1.300e+01 -1.300e+01 -1.300e+01 -1.300e+01 -1.300e+01 -1.300e+01 -1.300e+01 -1.300e+01 -1.300e+01 -1.300e+01 -1.300e+01 -1.300e+01 -1.300e+01 -1.300e+01 -1.300e+01 -1.300e+01 -1.300e+01 -1.300e+01 -1.300e+01 -1.300e+01 -1.300e+01 -1.300e+01 -1.300e+01 -1.300e+01 -1.300e+01 -1.300e+01 -1.300e+01 -1.300e+01 -1.300e+01 -1.300e+01 -1.300e+01 -1.300e+01 -1.300e+01 -1.300e+01 -1.300e+01 -1.300e+01 -1.300e+01 -1.300e+01 -1.300e+01 -1.300e+01 -1.300e+01 -1.300e+01 -1.300e+01 -1.300e+01 -1.300e+01 -1.300e+01 -1.300e+01 -1.300e+01 -1.300e+01 -1.300e+01 -1.300e+01 -1.300e+01 -1.300e+01 -1.300e+01 -1.300e+01 -1.300e+01 -1.300e+01 -1.300e+01 -1.300e+01 -1.300e+01 -1.300e+01 -1.300e+01 -1.300e+01 -5.000e+00 -5.000e+00 -5.000e+00 -5.000e+00 -5.000e+00 -5.000e+00 -5.000e+00 -5.000e+00 -5.000e+00 -5.000e+00 -5.000e+00 -5.000e+00 -5.000e+00 -5.000e+00 -5.000e+00 -5.000e+00 -5.000e+00 -5.000e+00 -5.000e+00 -5.000e+00 -5.000e+00 -5.000e+00 -5.000e+00 -5.000e+00 -5.000e+00 -5.000e+00 -5.000e+00 -5.000e+00 -1.300e+01 -1.300e+01 -1.300e+01 -1.300e+01 -1.300e+01 -1.300e+01 -1.300e+01 -1.300e+01 -1.300e+01 -1.300e+01 -1.300e+01 -1.300e+01 -1.300e+01 -1.300e+01 -1.300e+01 -1.300e+01 -1.300e+01 -1.300e+01 -1.300e+01 -1.300e+01 -1.300e+01 -1.300e+01 -1.300e+01 -1.300e+01 -1.300e+01 -1.300e+01 -1.300e+01 -1.300e+01 -1.300e+01 -1.300e+01 -1.300e+01 -1.300e+01 -1.300e+01 -1.300e+01 -1.300e+01 -1.300e+01 -1.300e+01 -1.300e+01 -1.300e+01 -1.300e+01 -1.300e+01 -1.300e+01 -1.300e+01 -1.300e+01 -1.300e+01 -1.300e+01 -1.300e+01 -1.300e+01 -1.300e+01 -1.300e+01 -1.300e+01 -1.300e+01 -1.300e+01 -1.300e+01 -1.300e+01 -1.300e+01 -1.300e+01 -1.300e+01 -1.300e+01 -1.300e+01 -1.300e+01 -1.300e+01 -1.300e+01 -1.300e+01 -1.300e+01 -1.300e+01 -1.300e+01 -1.300e+01 -1.300e+01 -1.300e+01 -1.300e+01 -1.300e+01 -1.300e+01 -1.300e+01 -1.300e+01 -1.300e+01 -1.300e+01 -1.300e+01 -1.300e+01 -1.300e+01 -1.300e+01 -1.300e+01 -1.300e+01 -1.300e+01 -1.300e+01 -1.300e+01 -1.300e+01 -1.300e+01 -1.300e+01 -1.300e+01 -1.300e+01 -1.300e+01 -1.300e+01 -1.300e+01 -1.300e+01 -1.300e+01 -1.300e+01 -1.300e+01 -1.300e+01 -1.300e+01 -1.300e+01 -1.300e+01 -1.300e+01 -1.300e+01 -1.300e+01 -1.300e+01 -1.300e+01 -1.300e+01 -1.300e+01 -1.300e+01 -1.300e+01 -1.300e+01 -1.300e+01 -1.300e+01 -1.300e+01 -1.300e+01 -1.300e+01 -1.300e+01 -1.300e+01 -1.300e+01 -1.300e+01 -1.300e+01 -1.300e+01 -1.300e+01 -1.300e+01 -1.300e+01 -1.300e+01 -1.300e+01 -1.300e+01 -1.300e+01 -1.300e+01 -1.300e+01 -1.300e+01 -1.300e+01 -1.300e+01 -1.300e+01 -1.300e+01 -1.300e+01 -1.300e+01 -1.300e+01 -1.300e+01 -1.300e+01 -1.300e+01 -1.300e+01 -1.300e+01 -1.300e+01 -1.300e+01 -1.300e+01 -1.300e+01 -1.300e+01 -1.300e+01 -5.000e+00 -5.000e+00 -5.000e+00 -5.000e+00 -5.000e+00 -5.000e+00 -5.000e+00 -5.000e+00 -5.000e+00 -5.000e+00 -5.000e+00 -5.000e+00 -5.000e+00 -5.000e+00 -5.000e+00 -5.000e+00 -5.000e+00 -5.000e+00 -5.000e+00 -5.000e+00 -5.000e+00 -5.000e+00 -5.000e+00 -5.000e+00 -5.000e+00 -5.000e+00 -5.000e+00 -5.000e+00 -1.300e+01 -1.300e+01 -1.300e+01 -1.300e+01 -1.300e+01 -1.300e+01 -1.300e+01 -1.300e+01 -1.300e+01 -1.300e+01 -1.300e+01 -1.300e+01 -1.300e+01 -1.300e+01 -1.300e+01 -1.300e+01 -1.300e+01 -1.300e+01 -1.300e+01 -1.300e+01 -1.300e+01 -1.300e+01 -1.300e+01 -1.300e+01 -1.300e+01 -1.300e+01 -1.300e+01 -1.300e+01 -1.300e+01 -1.300e+01 -1.300e+01 -1.300e+01 -1.300e+01 -1.300e+01 -1.300e+01 -1.300e+01 -1.300e+01 -1.300e+01 -1.300e+01 -1.300e+01 -1.300e+01 -1.300e+01 -1.300e+01 -1.300e+01 -1.300e+01 -1.300e+01 -1.300e+01 -1.300e+01 -1.300e+01 -1.300e+01 -1.300e+01 -1.300e+01 -1.300e+01 -1.300e+01 -1.300e+01 -1.300e+01 -1.300e+01 -1.300e+01 -1.300e+01 -1.300e+01 -1.300e+01 -1.300e+01 -1.300e+01 -1.300e+01 -1.300e+01 -1.300e+01 -1.300e+01 -1.300e+01 -1.300e+01 -1.300e+01 -1.300e+01 -1.300e+01 -1.300e+01 -1.300e+01 -1.300e+01 -1.300e+01 -1.300e+01 -1.300e+01 -1.300e+01 -1.300e+01 -1.300e+01 -1.300e+01 -1.300e+01 -1.300e+01 -1.300e+01 -1.300e+01 -1.300e+01 -1.300e+01 -1.300e+01 -1.300e+01 -1.300e+01 -1.300e+01 -1.300e+01 -1.300e+01 -1.300e+01 -1.300e+01 -1.300e+01 -1.300e+01 -1.300e+01 -1.300e+01 -1.300e+01 -1.300e+01 -1.300e+01 -1.300e+01 -1.300e+01 -1.300e+01 -1.300e+01 -1.300e+01 -1.300e+01 -1.300e+01 -1.300e+01 -1.300e+01 -1.300e+01 -1.300e+01 -1.300e+01 -1.300e+01 -1.300e+01 -1.300e+01 -1.300e+01 -1.300e+01 -1.300e+01 -1.300e+01 -1.300e+01 -1.300e+01 -1.300e+01 -1.300e+01 -1.300e+01 -1.300e+01 -1.300e+01 -1.300e+01 -1.300e+01 -1.300e+01 -1.300e+01 -1.300e+01 -1.300e+01 -1.300e+01 -1.300e+01 -1.300e+01 -1.300e+01 -1.300e+01 -1.300e+01 -1.300e+01 -1.300e+01 -1.300e+01 -1.300e+01 -1.300e+01 -1.300e+01 -1.300e+01 -5.000e+00 -5.000e+00 -5.000e+00 -5.000e+00 -5.000e+00 -5.000e+00 -5.000e+00 -5.000e+00 -5.000e+00 -5.000e+00 -5.000e+00 -5.000e+00 -5.000e+00 -5.000e+00 -5.000e+00 -5.000e+00 -5.000e+00 -5.000e+00 -5.000e+00 -5.000e+00 -5.000e+00 -5.000e+00 -5.000e+00 -5.000e+00 -5.000e+00 -5.000e+00 -5.000e+00 -5.000e+00 -1.900e+01 -1.900e+01 -1.900e+01 -1.900e+01 -1.900e+01 -1.900e+01 -1.900e+01 -1.900e+01 -1.900e+01 -1.900e+01 -1.900e+01 -1.900e+01 -1.900e+01 -1.900e+01 -1.900e+01 -1.900e+01 -1.900e+01 -1.900e+01 -1.900e+01 -1.900e+01 -1.100e+01 -1.100e+01 -1.100e+01 -1.100e+01 -1.100e+01 -1.100e+01 -1.100e+01 -1.100e+01 -1.100e+01 -1.100e+01 -1.100e+01 -1.100e+01 -1.100e+01 -1.100e+01 -1.100e+01 -1.100e+01 -1.100e+01 -1.900e+01 -1.900e+01 -1.900e+01 -1.900e+01 -1.900e+01 -1.900e+01 -1.900e+01 -1.900e+01 -1.900e+01 -1.900e+01 -1.900e+01 -1.900e+01 -1.900e+01 -1.900e+01 -1.900e+01 -1.900e+01 -1.900e+01 -1.900e+01 -1.900e+01 -1.900e+01 -1.100e+01 -1.100e+01 -1.100e+01 -1.100e+01 -1.100e+01 -1.100e+01 -1.100e+01 -1.100e+01 -1.100e+01 -1.100e+01 -1.100e+01 -1.100e+01 -1.100e+01 -1.100e+01 -1.100e+01 -1.100e+01 -1.100e+01 -1.900e+01 -1.900e+01 -1.900e+01 -1.900e+01 -1.900e+01 -1.900e+01 -1.900e+01 -1.900e+01 -1.900e+01 -1.900e+01 -1.900e+01 -1.900e+01 -1.900e+01 -1.900e+01 -1.900e+01 -1.900e+01 -1.900e+01 -1.900e+01 -1.900e+01 -1.900e+01 -1.100e+01 -1.100e+01 -1.100e+01 -1.100e+01 -1.100e+01 -1.100e+01 -1.100e+01 -1.100e+01 -1.100e+01 -1.100e+01 -1.100e+01 -1.100e+01 -1.100e+01 -1.100e+01 -1.100e+01 -1.100e+01 -1.100e+01 -1.900e+01 -1.900e+01 -1.900e+01 -1.900e+01 -1.900e+01 -1.900e+01 -1.900e+01 -1.900e+01 -1.900e+01 -1.900e+01 -1.900e+01 -1.900e+01 -1.900e+01 -1.900e+01 -1.900e+01 -1.900e+01 -1.900e+01 -1.900e+01 -1.900e+01 -1.900e+01 -1.100e+01 -1.100e+01 -1.100e+01 -1.100e+01 -1.100e+01 -1.100e+01 -1.100e+01 -1.100e+01 -1.100e+01 -1.100e+01 -1.100e+01 -1.100e+01 -1.100e+01 -1.100e+01 -1.100e+01 -1.100e+01 -1.100e+01 -2.000e+01 -2.000e+01 -2.000e+01 -2.000e+01 -2.000e+01 -2.000e+01 -2.000e+01 -2.000e+01 -2.000e+01 -2.000e+01 -2.000e+01 -2.000e+01 -2.000e+01 -2.000e+01 -2.000e+01 -2.000e+01 -2.000e+01 -2.000e+01 -2.000e+01 -2.000e+00 -2.000e+00 -2.000e+00 -2.000e+00 -2.000e+00 -2.000e+00 -2.000e+00 -2.000e+00 -2.000e+00 -2.000e+00 -1.700e+01 -1.700e+01 -1.700e+01 -7.000e+00 -7.000e+00 -7.000e+00 -7.000e+00 -7.000e+00 -7.000e+00 -7.000e+00 -1.700e+01 -7.000e+00 -7.000e+00 -7.000e+00 -7.000e+00 -7.000e+00 -7.000e+00 -1.700e+01 -1.700e+01 -7.000e+00 -7.000e+00 -7.000e+00 -7.000e+00 -7.000e+00 -7.000e+00 -7.000e+00 -7.000e+00 -7.000e+00 -7.000e+00 -7.000e+00 -7.000e+00 -7.000e+00 -7.000e+00 -7.000e+00 -7.000e+00 -7.000e+00 -7.000e+00 -7.000e+00 -7.000e+00 -7.000e+00 -7.000e+00 -7.000e+00 -7.000e+00 -7.000e+00 -7.000e+00 -7.000e+00 -7.000e+00 -7.000e+00 -1.700e+01 -1.700e+01 -7.000e+00 -7.000e+00 -7.000e+00 -7.000e+00 -7.000e+00 -7.000e+00 -7.000e+00 -7.000e+00 -7.000e+00 -7.000e+00 -7.000e+00 -7.000e+00 -7.000e+00 -7.000e+00 -7.000e+00 -7.000e+00 -7.000e+00 -7.000e+00 -7.000e+00 -7.000e+00 -7.000e+00 -7.000e+00 -7.000e+00 -7.000e+00 -7.000e+00 -7.000e+00 -7.000e+00 -7.000e+00 -1.700e+01 -7.000e+00 -7.000e+00 -7.000e+00 -7.000e+00 -7.000e+00 -7.000e+00 -7.000e+00 -7.000e+00 -7.000e+00 -7.000e+00 -7.000e+00 -7.000e+00 -7.000e+00 -7.000e+00 -7.000e+00 -7.000e+00 -7.000e+00 -7.000e+00 -7.000e+00 -7.000e+00 -7.000e+00 -7.000e+00 -7.000e+00 -7.000e+00 -7.000e+00 -7.000e+00 -7.000e+00 -7.000e+00 -7.000e+00 -7.000e+00 -7.000e+00 -7.000e+00 -7.000e+00 -7.000e+00 -7.000e+00 -7.000e+00 -7.000e+00 -7.000e+00 -7.000e+00 -7.000e+00 -1.700e+01 -7.000e+00 -7.000e+00 -7.000e+00 -7.000e+00 -7.000e+00 -7.000e+00 -7.000e+00 -7.000e+00 -7.000e+00 -7.000e+00 -7.000e+00 -7.000e+00 -7.000e+00 -7.000e+00 -7.000e+00 -7.000e+00 -7.000e+00 -7.000e+00 -7.000e+00 -7.000e+00 -7.000e+00 -7.000e+00 -7.000e+00 -7.000e+00 -7.000e+00 -7.000e+00 -7.000e+00 -7.000e+00 -7.000e+00 -7.000e+00 -1.700e+01 -1.700e+01 -7.000e+00 -7.000e+00 -7.000e+00 -7.000e+00 -7.000e+00 -7.000e+00 -1.700e+01 -7.000e+00 -7.000e+00 -7.000e+00 -7.000e+00 -7.000e+00 -7.000e+00 -1.700e+01 -7.000e+00 -7.000e+00 -7.000e+00 -7.000e+00 -7.000e+00 -7.000e+00 -7.000e+00 -7.000e+00 -7.000e+00 -7.000e+00 -7.000e+00 -1.700e+01 -1.700e+01 -7.000e+00 -7.000e+00 -7.000e+00 -7.000e+00 -7.000e+00 -7.000e+00 -1.700e+01 -7.000e+00 -7.000e+00 -7.000e+00 -7.000e+00 -7.000e+00 -7.000e+00 -7.000e+00 -7.000e+00 -7.000e+00 -7.000e+00 -7.000e+00 -1.700e+01 -7.000e+00 -7.000e+00 -7.000e+00 -7.000e+00 -7.000e+00 -7.000e+00 -7.000e+00 -7.000e+00 -7.000e+00 -7.000e+00 -7.000e+00 -7.000e+00 -7.000e+00 -7.000e+00 -7.000e+00 -7.000e+00 -1.700e+01 -7.000e+00 -7.000e+00 -7.000e+00 -7.000e+00 -7.000e+00 -7.000e+00 -7.000e+00 -7.000e+00 -7.000e+00 -7.000e+00 -7.000e+00 -7.000e+00 -7.000e+00 -7.000e+00 -7.000e+00 -7.000e+00 -7.000e+00 -7.000e+00 -7.000e+00 -7.000e+00 -7.000e+00 -1.700e+01 -7.000e+00 -7.000e+00 -7.000e+00 -7.000e+00 -7.000e+00 -7.000e+00 -7.000e+00 -7.000e+00 -7.000e+00 -7.000e+00 -7.000e+00 -7.000e+00 -7.000e+00 -7.000e+00 -7.000e+00 -7.000e+00 -7.000e+00 -7.000e+00 -7.000e+00 -7.000e+00 -7.000e+00 -7.000e+00 -7.000e+00 -7.000e+00 -7.000e+00 -7.000e+00 -7.000e+00 -7.000e+00 -7.000e+00 -7.000e+00 -7.000e+00 -7.000e+00 -7.000e+00 -7.000e+00 -7.000e+00 -7.000e+00 -7.000e+00 -7.000e+00 -7.000e+00 -7.000e+00 -7.000e+00 -7.000e+00 -7.000e+00 -7.000e+00 -7.000e+00 -7.000e+00 -7.000e+00 -7.000e+00 -7.000e+00 -7.000e+00 -7.000e+00 -7.000e+00 -7.000e+00 -7.000e+00 -7.000e+00 -7.000e+00 -7.000e+00 -7.000e+00 -7.000e+00 -7.000e+00 -1.700e+01 -1.700e+01 -7.000e+00 -7.000e+00 -7.000e+00 -7.000e+00 -7.000e+00 -7.000e+00 -7.000e+00 -7.000e+00 -7.000e+00 -7.000e+00 -7.000e+00 -7.000e+00 -7.000e+00 -7.000e+00 -7.000e+00 -7.000e+00 -7.000e+00 -7.000e+00 -7.000e+00 -7.000e+00 -7.000e+00 -7.000e+00 -7.000e+00 -7.000e+00 -7.000e+00 -7.000e+00 -7.000e+00 -7.000e+00 -7.000e+00 -7.000e+00 -7.000e+00 -7.000e+00 -7.000e+00 -7.000e+00 -7.000e+00 -7.000e+00 -7.000e+00 -7.000e+00 -7.000e+00 -7.000e+00 -7.000e+00 -7.000e+00 -7.000e+00 -7.000e+00 -7.000e+00 -7.000e+00 -7.000e+00 -7.000e+00 -7.000e+00 -7.000e+00 -7.000e+00 -1.700e+01 -7.000e+00 -7.000e+00 -7.000e+00 -7.000e+00 -7.000e+00 -7.000e+00 -7.000e+00 -7.000e+00 -7.000e+00 -7.000e+00 -7.000e+00 -7.000e+00 -7.000e+00 -7.000e+00 -7.000e+00 -7.000e+00 -7.000e+00 -7.000e+00 -7.000e+00 -7.000e+00 -7.000e+00 -7.000e+00 -7.000e+00 -7.000e+00 -7.000e+00 -7.000e+00 -7.000e+00 -7.000e+00 -7.000e+00 -7.000e+00 -7.000e+00 -7.000e+00 -7.000e+00 -7.000e+00 -7.000e+00 -7.000e+00 -7.000e+00 -7.000e+00 -7.000e+00 -7.000e+00 -7.000e+00 -7.000e+00 -7.000e+00 -7.000e+00 -7.000e+00 -7.000e+00 -7.000e+00 -1.700e+01 -7.000e+00 -7.000e+00 -7.000e+00 -7.000e+00 -7.000e+00 -7.000e+00 -7.000e+00 -7.000e+00 -7.000e+00 -7.000e+00 -7.000e+00 -7.000e+00 -7.000e+00 -7.000e+00 -7.000e+00 -7.000e+00 -7.000e+00 -7.000e+00 -7.000e+00 -7.000e+00 -7.000e+00 -7.000e+00 -7.000e+00 -7.000e+00 -7.000e+00 -7.000e+00 -7.000e+00 -7.000e+00 -7.000e+00 -7.000e+00 -7.000e+00 -7.000e+00 -7.000e+00 -7.000e+00 -7.000e+00 -7.000e+00 -7.000e+00 -7.000e+00 -7.000e+00 -7.000e+00 -7.000e+00 -7.000e+00 -7.000e+00 -7.000e+00 -7.000e+00 -1.700e+01 -7.000e+00 -7.000e+00 -7.000e+00 -7.000e+00 -7.000e+00 -7.000e+00 -7.000e+00 -7.000e+00 -7.000e+00 -7.000e+00 -7.000e+00 -7.000e+00 -7.000e+00 -7.000e+00 -7.000e+00 -7.000e+00 -7.000e+00 -7.000e+00 -7.000e+00 -7.000e+00 -7.000e+00 -7.000e+00 -7.000e+00 -7.000e+00 -7.000e+00 -7.000e+00 -7.000e+00 -7.000e+00 -7.000e+00 -7.000e+00 -7.000e+00 -7.000e+00 -7.000e+00 -7.000e+00 -7.000e+00 -7.000e+00 -7.000e+00 -7.000e+00 -7.000e+00 -7.000e+00 -7.000e+00 -7.000e+00 -7.000e+00 -7.000e+00 -7.000e+00 -7.000e+00 -7.000e+00 -7.000e+00 -7.000e+00 -7.000e+00 -7.000e+00 -7.000e+00 -7.000e+00 -7.000e+00 -7.000e+00 -7.000e+00 -7.000e+00 -7.000e+00 -7.000e+00 -7.000e+00 -7.000e+00 -7.000e+00 -7.000e+00 -7.000e+00 -7.000e+00 -7.000e+00 -7.000e+00 -7.000e+00 -7.000e+00 -7.000e+00 -7.000e+00 -7.000e+00 -7.000e+00 -7.000e+00 -7.000e+00 -7.000e+00 -7.000e+00 -7.000e+00 -7.000e+00 -1.700e+01 -1.700e+01 -7.000e+00 -7.000e+00 -7.000e+00 -7.000e+00 -7.000e+00 -7.000e+00 -7.000e+00 -7.000e+00 -7.000e+00 -7.000e+00 -7.000e+00 -7.000e+00 -7.000e+00 -7.000e+00 -7.000e+00 -7.000e+00 -7.000e+00 -7.000e+00 -7.000e+00 -7.000e+00 -7.000e+00 -7.000e+00 -7.000e+00 -7.000e+00 -7.000e+00 -7.000e+00 -7.000e+00 -7.000e+00 -7.000e+00 -7.000e+00 -7.000e+00 -7.000e+00 -7.000e+00 -7.000e+00 -7.000e+00 -7.000e+00 -1.500e+01 -1.500e+01 -1.500e+01 -1.500e+01 -1.500e+01 -1.500e+01 -9.000e+00 -9.000e+00 -9.000e+00 -9.000e+00 -9.000e+00 -9.000e+00 -9.000e+00 -9.000e+00 -9.000e+00 -1.500e+01 -9.000e+00 -9.000e+00 -9.000e+00 -9.000e+00 -9.000e+00 -9.000e+00 -9.000e+00 -9.000e+00 -9.000e+00 -4.000e+00 -4.000e+00 -4.000e+00 -4.000e+00 -4.000e+00 -4.000e+00 -4.000e+00 -4.000e+00 -4.000e+00 -4.000e+00 -4.000e+00 -4.000e+00 -4.000e+00 -4.000e+00 -4.000e+00 -4.000e+00 -4.000e+00 -4.000e+00 -4.000e+00 -4.000e+00 -4.000e+00 -4.000e+00 -4.000e+00 -4.000e+00 -4.000e+00 -4.000e+00 -4.000e+00 -4.000e+00 -4.000e+00 -4.000e+00 -4.000e+00 -4.000e+00 -4.000e+00 -4.000e+00 -4.000e+00 -4.000e+00
           </DataArray>
           <DataArray type="Float32" Name="nitrate/Cmin" NumberOfComponents="1" format="ascii">