<?xml version="1.0"?>
<VTKFile type="UnstructuredGrid" version="0.1" byte_order="LittleEndian">
   <UnstructuredGrid>
      <Piece NumberOfPoints="160" NumberOfCells="14">
         <Points>
            <DataArray type="Float32" Name="Position" NumberOfComponents="3" format="ascii">
-0.141	-5.001	0.143
-0.031	-5.002	0.199
0.092	-5.002	0.179
0.179	-5.002	0.090
0.198	-5.000	-0.032
0.141	-4.999	-0.143
0.031	-4.998	-0.199
-0.092	-4.998	-0.179
-0.179	-4.998	-0.090
-0.198	-5.000	0.032
-0.139	-4.251	0.151
-0.028	-4.252	0.207
0.094	-4.252	0.187
0.181	-4.252	0.099
0.200	-4.250	-0.023
0.144	-4.249	-0.133
0.033	-4.248	-0.189
-0.089	-4.248	-0.169
-0.176	-4.249	-0.082
-0.195	-4.250	0.041
-0.136	-3.560	0.155
-0.026	-3.561	0.212
0.096	-3.561	0.192
0.184	-3.561	0.105
0.203	-3.561	-0.018
0.147	-3.560	-0.128
0.037	-3.559	-0.184
-0.086	-3.559	-0.165
-0.173	-3.559	-0.077
-0.193	-3.559	0.045
-0.131	-2.400	0.156
-0.021	-2.400	0.213
0.101	-2.401	0.194
0.188	-2.401	0.106
0.208	-2.401	-0.016
0.152	-2.400	-0.126
0.042	-2.400	-0.182
-0.080	-2.400	-0.163
-0.168	-2.399	-0.076
-0.187	-2.399	0.046
-0.130	-1.800	0.157
-0.020	-1.800	0.213
0.103	-1.801	0.194
0.190	-1.801	0.106
0.209	-1.801	-0.016
0.153	-1.800	-0.126
0.043	-1.800	-0.182
-0.079	-1.800	-0.163
-0.167	-1.800	-0.075
-0.186	-1.800	0.047
-0.128	-1.200	0.159
-0.018	-1.201	0.215
0.104	-1.201	0.196
0.191	-1.201	0.108
0.211	-1.201	-0.014
0.155	-1.200	-0.124
0.044	-1.200	-0.180
-0.078	-1.199	-0.161
-0.165	-1.199	-0.073
-0.185	-1.200	0.049
-0.125	-0.300	0.161
-0.015	-0.300	0.217
0.107	-0.301	0.198
0.195	-0.301	0.111
0.214	-0.301	-0.011
0.158	-0.301	-0.121
0.048	-0.300	-0.178
-0.074	-0.299	-0.159
-0.161	-0.299	-0.071
-0.181	-0.299	0.051
-0.123	0.001	0.161
-0.013	-0.000	0.218
0.109	-0.001	0.199
0.197	-0.002	0.112
0.217	-0.002	-0.010
0.161	-0.001	-0.121
0.051	-0.000	-0.177
-0.071	0.001	-0.158
-0.159	0.001	-0.071
-0.179	0.001	0.051
0.032	-5.000	-0.032
0.045	-4.999	-0.007
0.040	-4.999	0.021
0.021	-4.999	0.041
-0.007	-4.999	0.045
-0.032	-5.000	0.032
-0.045	-5.001	0.007
-0.040	-5.001	-0.021
-0.021	-5.001	-0.041
0.007	-5.001	-0.045
0.046	-5.707	-0.016
0.058	-5.706	0.009
0.053	-5.705	0.037
0.033	-5.704	0.057
0.006	-5.704	0.061
-0.019	-5.705	0.047
-0.032	-5.707	0.022
-0.027	-5.708	-0.005
-0.007	-5.709	-0.025
0.021	-5.708	-0.029
0.055	-6.414	0.037
0.067	-6.412	0.062
0.062	-6.410	0.090
0.041	-6.409	0.109
0.013	-6.408	0.112
-0.011	-6.409	0.099
-0.023	-6.411	0.073
-0.018	-6.413	0.046
0.003	-6.414	0.027
0.031	-6.414	0.023
0.041	-7.120	0.083
0.053	-7.118	0.108
0.047	-7.116	0.135
0.027	-7.114	0.154
-0.001	-7.113	0.157
-0.025	-7.113	0.143
-0.037	-7.115	0.118
-0.031	-7.118	0.091
-0.010	-7.120	0.072
0.017	-7.120	0.069
0.025	-7.823	0.154
0.037	-7.821	0.179
0.031	-7.818	0.206
0.010	-7.816	0.225
-0.017	-7.816	0.228
-0.041	-7.817	0.214
-0.053	-7.819	0.189
-0.047	-7.822	0.162
-0.027	-7.823	0.143
0.001	-7.824	0.140
0.032	-8.528	0.214
0.043	-8.526	0.239
0.037	-8.523	0.266
0.017	-8.521	0.285
-0.011	-8.520	0.288
-0.035	-8.520	0.274
-0.046	-8.522	0.248
-0.040	-8.525	0.221
-0.020	-8.527	0.203
0.008	-8.528	0.200
-0.013	-9.229	0.288
-0.001	-9.227	0.313
-0.007	-9.225	0.340
-0.028	-9.223	0.359
-0.055	-9.222	0.362
-0.079	-9.222	0.348
-0.091	-9.224	0.322
-0.085	-9.226	0.295
-0.064	-9.228	0.277
-0.037	-9.229	0.274
-0.016	-9.698	0.303
-0.004	-9.697	0.328
-0.008	-9.696	0.356
-0.028	-9.695	0.375
-0.056	-9.695	0.379
-0.081	-9.695	0.366
-0.093	-9.696	0.341
-0.088	-9.697	0.313
-0.068	-9.698	0.294
-0.040	-9.698	0.290
		    </DataArray>
         </Points>
         <Cells>
            <DataArray type="Int32" Name="connectivity" NumberOfComponents="1" format="ascii">
 0 10 1 11 2 12 3 13 4 14 5 15 6 16 7 17 8 18 9 19 0 10
 10 20 11 21 12 22 13 23 14 24 15 25 16 26 17 27 18 28 19 29 10 20
 20 30 21 31 22 32 23 33 24 34 25 35 26 36 27 37 28 38 29 39 20 30
 30 40 31 41 32 42 33 43 34 44 35 45 36 46 37 47 38 48 39 49 30 40
 40 50 41 51 42 52 43 53 44 54 45 55 46 56 47 57 48 58 49 59 40 50
 50 60 51 61 52 62 53 63 54 64 55 65 56 66 57 67 58 68 59 69 50 60
 60 70 61 71 62 72 63 73 64 74 65 75 66 76 67 77 68 78 69 79 60 70
 80 90 81 91 82 92 83 93 84 94 85 95 86 96 87 97 88 98 89 99 80 90
 90 100 91 101 92 102 93 103 94 104 95 105 96 106 97 107 98 108 99 109 90 100
 100 110 101 111 102 112 103 113 104 114 105 115 106 116 107 117 108 118 109 119 100 110
 110 120 111 121 112 122 113 123 114 124 115 125 116 126 117 127 118 128 119 129 110 120
 120 130 121 131 122 132 123 133 124 134 125 135 126 136 127 137 128 138 129 139 120 130
 130 140 131 141 132 142 133 143 134 144 135 145 136 146 137 147 138 148 139 149 130 140
 140 150 141 151 142 152 143 153 144 154 145 155 146 156 147 157 148 158 149 159 140 150

            </DataArray>
            <DataArray type="Int32" Name="offsets" NumberOfComponents="1" format="ascii">
 22 44 66 88 110 132 154 176 198 220 242 264 286 308
            </DataArray>
            <DataArray type="UInt8"  Name="types" NumberOfComponents="1" format="ascii">
6 6 6 6 6 6 6 6 6 6 6 6 6 6
            </DataArray>
         </Cells>
         <CellData>
           <DataArray type="Float32" Name="combinedRootClassID" NumberOfComponents="1" format="ascii">
 -2.000e+00 -2.000e+00 -2.000e+00 -2.000e+00 -2.000e+00 -2.000e+00 -2.000e+00 -4.000e+00 -4.000e+00 -4.000e+00 -4.000e+00 -4.000e+00 -4.000e+00 -4.000e+00
           </DataArray>
           <DataArray type="Float32" Name="nitrate/Cmin" NumberOfComponents="1" format="ascii">
 1.000e-03 1.000e-03 1.000e-03 1.000e-03 1.000e-03 1.000e-03 1.000e-03 1.000e-03 1.000e-03 1.000e-03 1.000e-03 1.000e-03 1.000e-03 1.000e-03
           </DataArray>
           <DataArray type="Float32" Name="nitrate/Imax" NumberOfComponents="1" format="ascii">
 1.900e+00 1.900e+00 1.900e+00 1.900e+00 1.900e+00 1.900e+00 1.900e+00 1.900e+00 1.900e+00 1.900e+00 1.900e+00 1.900e+00 1.900e+00 1.900e+00
           </DataArray>
           <DataArray type="Float32" Name="nitrate/Km" NumberOfComponents="1" format="ascii">
 1.610e-02 1.610e-02 1.610e-02 1.610e-02 1.610e-02 1.610e-02 1.610e-02 1.610e-02 1.610e-02 1.610e-02 1.610e-02 1.610e-02 1.610e-02 1.610e-02
           </DataArray>
           <DataArray type="Float32" Name="nitrate/minimalNutrientConcentration" NumberOfComponents="1" format="ascii">
 6.000e+02 6.000e+02 6.000e+02 6.000e+02 6.000e+02 6.000e+02 6.000e+02 6.000e+02 6.000e+02 6.000e+02 6.000e+02 6.000e+02 6.000e+02 6.000e+02
           </DataArray>
           <DataArray type="Float32" Name="nitrate/nutrientConcentrationAtTheRootSurface" NumberOfComponents="1" format="ascii">
 2.280e-01 2.264e-01 2.284e-01 2.303e-01 2.273e-01 2.285e-01 1.956e-01 2.280e-01 2.228e-01 2.188e-01 2.123e-01 2.169e-01 2.334e-01 2.408e-01
           </DataArray>
           <DataArray type="Float32" Name="nitrate/optimalNutrientConcentration" NumberOfComponents="1" format="ascii">
 1.200e+03 1.200e+03 1.200e+03 1.200e+03 1.200e+03 1.200e+03 1.200e+03 1.200e+03 1.200e+03 1.200e+03 1.200e+03 1.200e+03 1.200e+03 1.200e+03
           </DataArray>
           <DataArray type="Float32" Name="nitrate/rootSegmentMinimalNutrientContent" NumberOfComponents="1" format="ascii">
 5.362e+00 4.914e+00 8.247e+00 4.258e+00 4.256e+00 6.381e+00 2.126e+00 2.594e-01 2.578e-01 2.565e-01 2.554e-01 2.546e-01 2.541e-01 1.692e-01
           </DataArray>
           <DataArray type="Float32" Name="nitrate/rootSegmentNutrientUptake" NumberOfComponents="1" format="ascii">
 0.000e+00 9.068e-02 7.955e-02 5.970e-02 4.645e-02 3.344e-02 8.548e-03 0.000e+00 9.687e-02 8.561e-02 7.195e-02 5.739e-02 4.132e-02 1.682e-02
           </DataArray>
           <DataArray type="Float32" Name="nitrate/rootSegmentOptimalNutrientContent" NumberOfComponents="1" format="ascii">
 1.072e+01 9.829e+00 1.649e+01 8.517e+00 8.512e+00 1.276e+01 4.253e+00 5.188e-01 5.156e-01 5.130e-01 5.108e-01 5.092e-01 5.081e-01 3.384e-01
           </DataArray>
           <DataArray type="Float32" Name="parentRootClassID" NumberOfComponents="1" format="ascii">
 -3.000e+00 -3.000e+00 -3.000e+00 -3.000e+00 -3.000e+00 -3.000e+00 -3.000e+00 -3.000e+00 -3.000e+00 -3.000e+00 -3.000e+00 -3.000e+00 -3.000e+00 -3.000e+00
           </DataArray>
           <DataArray type="Float32" Name="plantID" NumberOfComponents="1" format="ascii">
 3.000e+00 3.000e+00 3.000e+00 3.000e+00 3.000e+00 3.000e+00 3.000e+00 3.000e+00 3.000e+00 3.000e+00 3.000e+00 3.000e+00 3.000e+00 3.000e+00
           </DataArray>
           <DataArray type="Float32" Name="plantTypeID" NumberOfComponents="1" format="ascii">
 0.000e+00 0.000e+00 0.000e+00 0.000e+00 0.000e+00 0.000e+00 0.000e+00 0.000e+00 0.000e+00 0.000e+00 0.000e+00 0.000e+00 0.000e+00 0.000e+00
           </DataArray>
           <DataArray type="Float32" Name="rootCircumference" NumberOfComponents="1" format="ascii">
 1.262e+00 1.260e+00 1.259e+00 1.258e+00 1.257e+00 1.257e+00 1.257e+00 2.859e-01 2.850e-01 2.843e-01 2.837e-01 2.832e-01 2.829e-01 2.828e-01
           </DataArray>
           <DataArray type="Float32" Name="rootClassID" NumberOfComponents="1" format="ascii">
 -2.000e+00 -2.000e+00 -2.000e+00 -2.000e+00 -2.000e+00 -2.000e+00 -2.000e+00 -4.000e+00 -4.000e+00 -4.000e+00 -4.000e+00 -4.000e+00 -4.000e+00 -4.000e+00
           </DataArray>
           <DataArray type="Float32" Name="rootDiameter" NumberOfComponents="1" format="ascii">
 4.018e-01 4.010e-01 4.006e-01 4.003e-01 4.002e-01 4.001e-01 4.000e-01 9.100e-02 9.072e-02 9.049e-02 9.030e-02 9.016e-02 9.006e-02 9.001e-02
           </DataArray>
           <DataArray type="Float32" Name="rootHairDensity" NumberOfComponents="1" format="ascii">
 0.000e+00 0.000e+00 0.000e+00 0.000e+00 0.000e+00 0.000e+00 0.000e+00 2.000e+03 2.000e+03 2.000e+03 2.000e+03 2.000e+03 2.000e+03 2.000e+03
           </DataArray>
           <DataArray type="Float32" Name="rootHairDiameter" NumberOfComponents="1" format="ascii">
 5.000e-04 5.000e-04 5.000e-04 5.000e-04 5.000e-04 5.000e-04 5.000e-04 5.000e-04 5.000e-04 5.000e-04 5.000e-04 5.000e-04 5.000e-04 5.000e-04
           </DataArray>
           <DataArray type="Float32" Name="rootHairLength" NumberOfComponents="1" format="ascii">
 3.000e-02 1.500e-02 6.000e-03 0.000e+00 0.000e+00 0.000e+00 0.000e+00 3.000e-02 2.100e-02 1.200e-02 3.000e-03 0.000e+00 0.000e+00 0.000e+00
           </DataArray>
           <DataArray type="Float32" Name="rootHairSurfaceArea" NumberOfComponents="1" format="ascii">
 0.000e+00 0.000e+00 0.000e+00 0.000e+00 0.000e+00 0.000e+00 0.000e+00 9.425e-02 6.597e-02 3.770e-02 9.425e-03 0.000e+00 0.000e+00 0.000e+00
           </DataArray>
           <DataArray type="Float32" Name="rootLength2Base" NumberOfComponents="1" format="ascii">
 0.000e+00 7.500e-01 1.440e+00 2.600e+00 3.200e+00 3.800e+00 4.700e+00 0.000e+00 7.071e-01 1.414e+00 2.121e+00 2.828e+00 3.535e+00 4.243e+00
           </DataArray>
           <DataArray type="Float32" Name="rootPotentialSecondaryGrowth" NumberOfComponents="1" format="ascii">
 4.018e-01 4.010e-01 4.006e-01 4.003e-01 4.002e-01 4.001e-01 4.000e-01 9.100e-02 9.072e-02 9.049e-02 9.030e-02 9.016e-02 9.006e-02 9.001e-02
           </DataArray>
           <DataArray type="Float32" Name="rootSegmentAge" NumberOfComponents="1" format="ascii">
 2.000e+00 1.500e+00 1.200e+00 8.000e-01 6.000e-01 4.000e-01 1.000e-01 2.000e+00 1.700e+00 1.400e+00 1.100e+00 8.000e-01 5.000e-01 2.000e-01
           </DataArray>
           <DataArray type="Float32" Name="rootSegmentCarbonCostOfExudates" NumberOfComponents="1" format="ascii">
 0.000e+00 0.000e+00 0.000e+00 0.000e+00 0.000e+00 0.000e+00 0.000e+00 2.203e-05 1.872e-05 1.547e-05 1.193e-05 8.390e-06 4.565e-06 8.886e-07
           </DataArray>
           <DataArray type="Float32" Name="rootSegmentDryWeight" NumberOfComponents="1" format="ascii">
 8.937e-03 8.191e-03 1.375e-02 7.097e-03 7.093e-03 1.063e-02 3.544e-03 4.323e-04 4.297e-04 4.275e-04 4.257e-04 4.244e-04 4.234e-04 2.820e-04
           </DataArray>
           <DataArray type="Float32" Name="rootSegmentLength" NumberOfComponents="1" format="ascii">
 7.500e-01 6.900e-01 1.160e+00 6.000e-01 6.000e-01 9.000e-01 3.000e-01 7.071e-01 7.071e-01 7.071e-01 7.071e-01 7.071e-01 7.071e-01 4.714e-01
           </DataArray>
           <DataArray type="Float32" Name="rootSegmentLengthDuration" NumberOfComponents="1" format="ascii">
 1.295e+00 9.313e-01 1.155e+00 4.200e-01 3.000e-01 2.300e-01 2.983e-02 1.312e+00 1.100e+00 8.878e-01 6.757e-01 4.635e-01 2.514e-01 4.714e-02
           </DataArray>
           <DataArray type="Float32" Name="rootSegmentRespiration" NumberOfComponents="1" format="ascii">
 3.575e-04 4.300e-04 8.247e-04 4.968e-04 5.320e-04 8.508e-04 3.101e-04 1.729e-05 2.041e-05 2.351e-05 2.661e-05 2.970e-05 3.282e-05 2.397e-05
           </DataArray>
           <DataArray type="Float32" Name="rootSegmentSecondaryPotentialCarbonSinkForGrowth" NumberOfComponents="1" format="ascii">
 2.690e-05 1.469e-05 1.367e-05 3.443e-06 1.768e-06 7.326e-07 1.163e-08 3.647e-06 2.558e-06 1.665e-06 9.637e-07 4.550e-07 1.375e-07 9.397e-09
           </DataArray>
           <DataArray type="Float32" Name="rootSegmentSurfaceArea" NumberOfComponents="1" format="ascii">
 9.466e-01 8.692e-01 1.460e+00 7.545e-01 7.543e-01 1.131e+00 3.770e-01 2.021e-01 2.015e-01 2.010e-01 2.006e-01 2.003e-01 2.001e-01 1.333e-01
           </DataArray>
           <DataArray type="Float32" Name="rootSegmentVolume" NumberOfComponents="1" format="ascii">
 9.507e-02 8.714e-02 1.462e-01 7.550e-02 7.546e-02 1.131e-01 3.770e-02 4.599e-03 4.571e-03 4.547e-03 4.529e-03 4.514e-03 4.505e-03 3.000e-03
           </DataArray>
           <DataArray type="Float32" Name="rootSegmentWaterUptake" NumberOfComponents="1" format="ascii">
 0.000e+00 0.000e+00 0.000e+00 0.000e+00 0.000e+00 0.000e+00 0.000e+00 0.000e+00 0.000e+00 0.000e+00 0.000e+00 0.000e+00 0.000e+00 0.000e+00
           </DataArray>
           <DataArray type="Float32" Name="spatialRootDensity" NumberOfComponents="1" format="ascii">
 3.376e-01 1.688e-01 0.000e+00 0.000e+00 0.000e+00 0.000e+00 0.000e+00 3.438e-01 1.790e-01 0.000e+00 0.000e+00 0.000e+00 0.000e+00 0.000e+00
           </DataArray>
           <DataArray type="Float32" Name="volumetricWaterContentAtTheRootSurface" NumberOfComponents="1" format="ascii">
 1.820e-01 1.820e-01 1.819e-01 1.818e-01 1.817e-01 1.817e-01 1.816e-01 1.820e-01 1.821e-01 1.822e-01 1.822e-01 1.823e-01 1.823e-01 1.824e-01
           </DataArray>
         </CellData>
      </Piece>
   </UnstructuredGrid>
</VTKFile>
