<?xml version="1.0"?>
<VTKFile type="UnstructuredGrid" version="0.1" byte_order="LittleEndian">
   <UnstructuredGrid>
      <Piece NumberOfPoints="46040" NumberOfCells="3293">
         <Points>
            <DataArray type="Float32" Name="Position" NumberOfComponents="3" format="ascii">
-0.132	-5.024	0.023
-0.127	-5.025	0.031
-0.128	-5.027	0.040
-0.133	-5.028	0.047
-0.142	-5.029	0.050
-0.151	-5.029	0.046
-0.156	-5.028	0.039
-0.156	-5.026	0.030
-0.150	-5.025	0.022
-0.141	-5.024	0.020
-0.096	-5.885	-0.108
-0.091	-5.886	-0.100
-0.091	-5.888	-0.091
-0.097	-5.889	-0.084
-0.106	-5.889	-0.082
-0.115	-5.888	-0.085
-0.120	-5.887	-0.093
-0.119	-5.885	-0.102
-0.113	-5.884	-0.109
-0.104	-5.884	-0.111
-0.206	-6.704	-0.317
-0.201	-6.706	-0.309
-0.201	-6.709	-0.300
-0.206	-6.711	-0.293
-0.215	-6.711	-0.290
-0.224	-6.710	-0.293
-0.229	-6.708	-0.300
-0.229	-6.705	-0.309
-0.224	-6.703	-0.317
-0.215	-6.703	-0.319
-0.176	-7.521	-0.557
-0.170	-7.523	-0.550
-0.170	-7.526	-0.541
-0.175	-7.528	-0.534
-0.184	-7.529	-0.531
-0.193	-7.528	-0.534
-0.198	-7.526	-0.541
-0.199	-7.523	-0.550
-0.193	-7.521	-0.557
-0.184	-7.520	-0.560
-0.232	-8.343	-0.797
-0.227	-8.345	-0.789
-0.228	-8.348	-0.780
-0.234	-8.349	-0.773
-0.242	-8.349	-0.771
-0.251	-8.347	-0.773
-0.256	-8.345	-0.781
-0.256	-8.342	-0.790
-0.250	-8.341	-0.797
-0.241	-8.341	-0.799
-0.250	-8.458	-0.829
-0.246	-8.461	-0.821
-0.246	-8.463	-0.812
-0.252	-8.464	-0.805
-0.261	-8.463	-0.803
-0.270	-8.461	-0.806
-0.275	-8.458	-0.813
-0.274	-8.456	-0.822
-0.268	-8.455	-0.829
-0.259	-8.455	-0.832
-0.287	-5.075	0.085
-0.282	-5.068	0.080
-0.275	-5.066	0.075
-0.268	-5.069	0.071
-0.263	-5.077	0.069
-0.262	-5.086	0.071
-0.267	-5.093	0.075
-0.274	-5.096	0.080
-0.281	-5.092	0.085
-0.286	-5.085	0.086
-0.758	-5.223	-0.646
-0.753	-5.217	-0.650
-0.745	-5.216	-0.654
-0.737	-5.221	-0.657
-0.733	-5.229	-0.657
-0.734	-5.238	-0.655
-0.740	-5.244	-0.651
-0.748	-5.245	-0.646
-0.756	-5.240	-0.643
-0.760	-5.232	-0.643
-1.066	-5.406	-1.447
-1.059	-5.401	-1.450
-1.050	-5.402	-1.452
-1.043	-5.408	-1.453
-1.041	-5.417	-1.452
-1.044	-5.425	-1.449
-1.051	-5.430	-1.446
-1.060	-5.429	-1.444
-1.067	-5.423	-1.443
-1.069	-5.414	-1.444
-1.224	-5.533	-2.238
-1.216	-5.528	-2.241
-1.207	-5.530	-2.242
-1.200	-5.536	-2.243
-1.198	-5.545	-2.242
-1.202	-5.553	-2.239
-1.210	-5.558	-2.237
-1.219	-5.556	-2.236
-1.226	-5.550	-2.235
-1.228	-5.541	-2.236
-1.253	-5.898	0.517
-1.248	-5.891	0.514
-1.241	-5.888	0.509
-1.234	-5.892	0.504
-1.229	-5.899	0.502
-1.228	-5.909	0.503
-1.233	-5.916	0.507
-1.240	-5.918	0.512
-1.248	-5.915	0.516
-1.253	-5.907	0.518
-1.714	-5.996	-0.210
-1.710	-5.989	-0.215
-1.702	-5.988	-0.220
-1.694	-5.991	-0.224
-1.690	-5.999	-0.224
-1.690	-6.008	-0.222
-1.694	-6.015	-0.217
-1.701	-6.016	-0.212
-1.709	-6.013	-0.208
-1.714	-6.005	-0.207
-2.159	-6.318	-0.901
-2.155	-6.314	-0.908
-2.148	-6.314	-0.914
-2.141	-6.320	-0.917
-2.137	-6.328	-0.915
-2.137	-6.336	-0.910
-2.141	-6.340	-0.903
-2.148	-6.339	-0.897
-2.155	-6.334	-0.894
-2.159	-6.325	-0.896
-2.776	-6.733	-1.325
-2.773	-6.731	-1.333
-2.768	-6.735	-1.341
-2.764	-6.742	-1.343
-2.761	-6.751	-1.341
-2.761	-6.757	-1.334
-2.764	-6.759	-1.326
-2.769	-6.755	-1.319
-2.774	-6.748	-1.316
-2.777	-6.739	-1.318
-2.984	-6.787	-1.391
-2.976	-6.783	-1.391
-2.966	-6.785	-1.391
-2.960	-6.791	-1.391
-2.958	-6.800	-1.391
-2.963	-6.809	-1.391
-2.971	-6.813	-1.391
-2.980	-6.811	-1.391
-2.987	-6.805	-1.391
-2.988	-6.796	-1.391
-4.424	-18.789	0.626
-4.425	-18.781	0.631
-4.425	-18.771	0.630
-4.426	-18.765	0.624
-4.427	-18.763	0.615
-4.427	-18.766	0.606
-4.426	-18.774	0.601
-4.425	-18.783	0.602
-4.425	-18.790	0.608
-4.424	-18.792	0.618
-5.312	-18.859	0.656
-5.312	-18.851	0.660
-5.313	-18.842	0.659
-5.314	-18.835	0.653
-5.314	-18.833	0.644
-5.314	-18.836	0.636
-5.314	-18.844	0.631
-5.313	-18.854	0.632
-5.312	-18.860	0.638
-5.312	-18.862	0.647
-4.439	-18.915	0.608
-4.430	-18.915	0.608
-4.422	-18.919	0.611
-4.419	-18.927	0.615
-4.422	-18.934	0.620
-4.429	-18.939	0.622
-4.439	-18.940	0.622
-4.446	-18.935	0.619
-4.449	-18.928	0.615
-4.447	-18.920	0.610
-4.413	-19.360	-0.158
-4.404	-19.359	-0.159
-4.396	-19.363	-0.158
-4.391	-19.370	-0.155
-4.393	-19.379	-0.150
-4.399	-19.384	-0.147
-4.408	-19.385	-0.146
-4.417	-19.381	-0.147
-4.421	-19.374	-0.151
-4.419	-19.366	-0.155
-4.426	-19.383	-0.212
-4.417	-19.381	-0.215
-4.408	-19.384	-0.215
-4.403	-19.391	-0.213
-4.403	-19.400	-0.210
-4.408	-19.407	-0.206
-4.417	-19.409	-0.204
-4.426	-19.406	-0.203
-4.431	-19.398	-0.205
-4.431	-19.390	-0.209
-4.433	-19.088	0.614
-4.429	-19.080	0.617
-4.430	-19.071	0.619
-4.437	-19.064	0.619
-4.446	-19.062	0.617
-4.454	-19.066	0.613
-4.457	-19.074	0.610
-4.456	-19.083	0.608
-4.449	-19.090	0.609
-4.441	-19.091	0.611
-4.647	-19.264	1.322
-4.644	-19.256	1.325
-4.645	-19.247	1.327
-4.652	-19.240	1.327
-4.660	-19.238	1.324
-4.668	-19.242	1.321
-4.672	-19.250	1.318
-4.671	-19.259	1.316
-4.664	-19.265	1.316
-4.655	-19.267	1.319
-4.453	-19.215	0.610
-4.444	-19.213	0.613
-4.437	-19.216	0.617
-4.433	-19.224	0.621
-4.435	-19.233	0.624
-4.442	-19.239	0.624
-4.451	-19.241	0.621
-4.458	-19.237	0.617
-4.461	-19.230	0.613
-4.459	-19.221	0.610
-4.165	-19.518	-0.133
-4.157	-19.516	-0.130
-4.149	-19.520	-0.126
-4.146	-19.527	-0.121
-4.148	-19.536	-0.119
-4.155	-19.542	-0.119
-4.164	-19.544	-0.121
-4.171	-19.540	-0.126
-4.174	-19.533	-0.130
-4.172	-19.524	-0.133
-4.439	-19.379	0.612
-4.439	-19.370	0.614
-4.444	-19.363	0.619
-4.451	-19.362	0.625
-4.458	-19.366	0.629
-4.462	-19.375	0.631
-4.462	-19.384	0.628
-4.457	-19.390	0.624
-4.450	-19.391	0.618
-4.443	-19.387	0.613
-3.990	-19.501	1.190
-3.990	-19.492	1.192
-3.995	-19.486	1.197
-4.002	-19.485	1.203
-4.009	-19.489	1.207
-4.013	-19.497	1.209
-4.013	-19.506	1.206
-4.008	-19.513	1.201
-4.001	-19.514	1.196
-3.994	-19.510	1.191
-4.457	-19.535	0.638
-4.461	-19.527	0.639
-4.462	-19.519	0.635
-4.461	-19.513	0.628
-4.456	-19.513	0.620
-4.451	-19.518	0.614
-4.446	-19.526	0.613
-4.445	-19.534	0.617
-4.447	-19.540	0.624
-4.451	-19.540	0.632
-5.120	-19.823	0.250
-5.126	-19.817	0.252
-5.130	-19.809	0.250
-5.130	-19.802	0.244
-5.127	-19.799	0.236
-5.121	-19.802	0.229
-5.115	-19.808	0.226
-5.111	-19.816	0.228
-5.111	-19.823	0.235
-5.114	-19.826	0.243
-5.151	-19.863	0.209
-5.156	-19.864	0.217
-5.163	-19.860	0.221
-5.170	-19.853	0.221
-5.173	-19.846	0.215
-5.171	-19.841	0.207
-5.166	-19.841	0.200
-5.159	-19.845	0.196
-5.152	-19.852	0.196
-5.149	-19.859	0.201
-4.449	-19.674	0.622
-4.450	-19.666	0.626
-4.454	-19.662	0.633
-4.460	-19.663	0.640
-4.465	-19.669	0.645
-4.468	-19.678	0.645
-4.467	-19.686	0.640
-4.463	-19.691	0.633
-4.457	-19.689	0.626
-4.452	-19.683	0.622
-3.883	-19.852	1.056
-3.884	-19.844	1.061
-3.888	-19.840	1.068
-3.894	-19.841	1.075
-3.899	-19.847	1.079
-3.902	-19.856	1.079
-3.901	-19.864	1.075
-3.897	-19.869	1.068
-3.891	-19.867	1.061
-3.885	-19.861	1.056
-4.456	-19.821	0.628
-4.456	-19.814	0.635
-4.458	-19.812	0.643
-4.463	-19.815	0.651
-4.468	-19.822	0.654
-4.471	-19.831	0.653
-4.471	-19.838	0.646
-4.468	-19.840	0.638
-4.463	-19.837	0.630
-4.459	-19.830	0.627
-3.795	-20.099	0.925
-3.795	-20.092	0.931
-3.797	-20.090	0.939
-3.802	-20.093	0.947
-3.807	-20.100	0.950
-3.810	-20.109	0.949
-3.810	-20.115	0.943
-3.807	-20.118	0.934
-3.802	-20.115	0.927
-3.798	-20.108	0.923
-4.464	-19.988	0.653
-4.464	-19.981	0.659
-4.466	-19.972	0.660
-4.469	-19.964	0.655
-4.472	-19.961	0.647
-4.473	-19.964	0.638
-4.473	-19.971	0.632
-4.471	-19.980	0.632
-4.468	-19.988	0.636
-4.466	-19.991	0.645
-5.065	-20.114	0.795
-5.066	-20.107	0.801
-5.067	-20.098	0.801
-5.070	-20.091	0.797
-5.073	-20.088	0.788
-5.074	-20.090	0.780
-5.074	-20.097	0.774
-5.072	-20.107	0.773
-5.070	-20.114	0.778
-5.067	-20.117	0.786
-4.467	-20.138	0.652
-4.468	-20.132	0.660
-4.471	-20.124	0.663
-4.476	-20.117	0.661
-4.481	-20.113	0.654
-4.483	-20.114	0.645
-4.483	-20.119	0.637
-4.479	-20.127	0.634
-4.474	-20.135	0.637
-4.470	-20.139	0.644
-5.042	-20.464	0.858
-5.043	-20.459	0.865
-5.046	-20.451	0.868
-5.051	-20.443	0.866
-5.056	-20.439	0.859
-5.058	-20.440	0.850
-5.058	-20.446	0.843
-5.054	-20.454	0.840
-5.049	-20.461	0.842
-5.045	-20.465	0.849
-1.318	-6.026	0.546
-1.315	-6.017	0.546
-1.318	-6.008	0.548
-1.325	-6.003	0.550
-1.334	-6.003	0.552
-1.342	-6.009	0.552
-1.345	-6.018	0.552
-1.342	-6.026	0.550
-1.335	-6.032	0.548
-1.325	-6.031	0.547
-1.160	-6.119	1.365
-1.157	-6.110	1.366
-1.160	-6.102	1.367
-1.167	-6.097	1.369
-1.176	-6.097	1.371
-1.183	-6.102	1.372
-1.186	-6.111	1.372
-1.183	-6.120	1.370
-1.176	-6.125	1.368
-1.167	-6.125	1.366
-0.952	-6.195	2.231
-0.949	-6.187	2.231
-0.951	-6.178	2.232
-0.958	-6.172	2.233
-0.967	-6.171	2.234
-0.975	-6.176	2.234
-0.979	-6.185	2.234
-0.976	-6.194	2.233
-0.969	-6.200	2.232
-0.960	-6.200	2.231
-0.984	-6.265	3.102
-0.980	-6.256	3.103
-0.982	-6.247	3.104
-0.989	-6.241	3.104
-0.998	-6.240	3.104
-1.006	-6.244	3.103
-1.010	-6.252	3.102
-1.008	-6.261	3.101
-1.001	-6.268	3.100
-0.992	-6.269	3.101
-0.997	-6.299	3.322
-0.994	-6.290	3.324
-0.995	-6.281	3.325
-1.002	-6.275	3.326
-1.011	-6.274	3.325
-1.019	-6.278	3.324
-1.023	-6.287	3.323
-1.021	-6.296	3.321
-1.015	-6.302	3.321
-1.005	-6.303	3.321
-4.494	-20.269	0.658
-4.489	-20.263	0.654
-4.481	-20.261	0.649
-4.474	-20.264	0.646
-4.469	-20.272	0.644
-4.470	-20.282	0.645
-4.475	-20.288	0.649
-4.482	-20.290	0.654
-4.490	-20.287	0.658
-4.494	-20.279	0.659
-4.850	-20.351	0.036
-4.845	-20.344	0.032
-4.837	-20.342	0.027
-4.830	-20.346	0.023
-4.825	-20.353	0.022
-4.826	-20.363	0.023
-4.831	-20.370	0.027
-4.838	-20.371	0.032
-4.846	-20.368	0.035
-4.850	-20.360	0.037
-4.476	-20.421	0.644
-4.475	-20.415	0.650
-4.478	-20.412	0.659
-4.483	-20.415	0.666
-4.488	-20.421	0.670
-4.492	-20.429	0.668
-4.493	-20.436	0.661
-4.491	-20.439	0.653
-4.486	-20.436	0.646
-4.480	-20.430	0.642
-3.946	-20.730	0.895
-3.946	-20.724	0.902
-3.948	-20.721	0.910
-3.953	-20.724	0.918
-3.959	-20.730	0.921
-3.962	-20.738	0.919
-3.963	-20.745	0.913
-3.961	-20.748	0.905
-3.956	-20.745	0.897
-3.950	-20.739	0.894
-4.475	-20.586	0.660
-4.472	-20.579	0.665
-4.474	-20.570	0.668
-4.481	-20.564	0.668
[...]
         <CellData>
           <DataArray type="Float32" Name="aerenchymaFormation" NumberOfComponents="1" format="ascii">
 5.333e-02 2.750e-02 0.000e+00 0.000e+00 0.000e+00 5.295e-02 1.500e-02 0.000e+00 4.894e-02 1.250e-02 0.000e+00 0.000e+00 0.000e+00 0.000e+00 0.000e+00 0.000e+00 0.000e+00 0.000e+00 0.000e+00 0.000e+00 0.000e+00 0.000e+00 0.000e+00 0.000e+00 4.800e-02 1.250e-02 0.000e+00 0.000e+00 0.000e+00 0.000e+00 0.000e+00 0.000e+00 0.000e+00 0.000e+00 0.000e+00 0.000e+00 0.000e+00 0.000e+00 4.707e-02 1.250e-02 0.000e+00 0.000e+00 0.000e+00 0.000e+00 0.000e+00 0.000e+00 0.000e+00 0.000e+00 0.000e+00 0.000e+00 0.000e+00 0.000e+00 4.613e-02 1.000e-02 0.000e+00 0.000e+00 0.000e+00 0.000e+00 0.000e+00 0.000e+00 0.000e+00 0.000e+00 0.000e+00 0.000e+00 0.000e+00 0.000e+00 4.519e-02 7.500e-03 0.000e+00 0.000e+00 0.000e+00 0.000e+00 0.000e+00 4.425e-02 1.250e-02 0.000e+00 0.000e+00 4.332e-02 5.000e-03 0.000e+00 0.000e+00 4.238e-02 7.500e-03 0.000e+00 0.000e+00 4.144e-02 7.500e-03 0.000e+00 0.000e+00 4.050e-02 2.500e-03 0.000e+00 5.258e-02 2.750e-02 0.000e+00 0.000e+00 0.000e+00 3.957e-02 7.500e-03 0.000e+00 0.000e+00 3.863e-02 2.500e-03 0.000e+00 0.000e+00 3.769e-02 0.000e+00 0.000e+00 3.675e-02 0.000e+00 0.000e+00 0.000e+00 3.582e-02 0.000e+00 0.000e+00 0.000e+00 3.488e-02 0.000e+00 0.000e+00 0.000e+00 3.394e-02 0.000e+00 0.000e+00 3.300e-02 0.000e+00 0.000e+00 0.000e+00 3.207e-02 0.000e+00 0.000e+00 3.113e-02 0.000e+00 0.000e+00 5.220e-02 1.750e-02 0.000e+00 0.000e+00 3.019e-02 0.000e+00 0.000e+00 2.925e-02 0.000e+00 0.000e+00 2.832e-02 0.000e+00 0.000e+00 0.000e+00 2.738e-02 0.000e+00 0.000e+00 2.644e-02 0.000e+00 0.000e+00 0.000e+00 2.550e-02 0.000e+00 0.000e+00 2.457e-02 0.000e+00 0.000e+00 0.000e+00 2.363e-02 0.000e+00 0.000e+00 2.269e-02 0.000e+00 0.000e+00 2.175e-02 0.000e+00 0.000e+00 5.183e-02 7.500e-03 0.000e+00 2.082e-02 0.000e+00 0.000e+00 0.000e+00 1.988e-02 0.000e+00 0.000e+00 1.894e-02 0.000e+00 0.000e+00 0.000e+00 1.800e-02 0.000e+00 0.000e+00 0.000e+00 1.707e-02 0.000e+00 0.000e+00 1.613e-02 0.000e+00 0.000e+00 1.519e-02 0.000e+00 0.000e+00 1.425e-02 0.000e+00 0.000e+00 1.332e-02 0.000e+00 0.000e+00 1.238e-02 0.000e+00 0.000e+00 5.145e-02 1.750e-02 0.000e+00 0.000e+00 1.144e-02 0.000e+00 0.000e+00 1.050e-02 0.000e+00 0.000e+00 9.566e-03 0.000e+00 0.000e+00 8.629e-03 0.000e+00 0.000e+00 7.691e-03 0.000e+00 0.000e+00 6.754e-03 0.000e+00 0.000e+00 5.816e-03 0.000e+00 0.000e+00 4.879e-03 0.000e+00 0.000e+00 3.941e-03 0.000e+00 0.000e+00 3.004e-03 0.000e+00 0.000e+00 5.108e-02 2.000e-02 0.000e+00 0.000e+00 2.066e-03 0.000e+00 1.129e-03 0.000e+00 0.000e+00 1.910e-04 0.000e+00 0.000e+00 0.000e+00 0.000e+00 0.000e+00 0.000e+00 0.000e+00 0.000e+00 0.000e+00 0.000e+00 0.000e+00 0.000e+00 0.000e+00 0.000e+00 0.000e+00 0.000e+00 0.000e+00 5.070e-02 1.250e-02 0.000e+00 0.000e+00 0.000e+00 0.000e+00 0.000e+00 0.000e+00 0.000e+00 0.000e+00 0.000e+00 0.000e+00 0.000e+00 0.000e+00 0.000e+00 0.000e+00 0.000e+00 0.000e+00 0.000e+00 0.000e+00 0.000e+00 0.000e+00 0.000e+00 0.000e+00 0.000e+00 0.000e+00 0.000e+00 5.033e-02 2.250e-02 0.000e+00 0.000e+00 0.000e+00 0.000e+00 0.000e+00 0.000e+00 0.000e+00 0.000e+00 0.000e+00 0.000e+00 0.000e+00 0.000e+00 0.000e+00 0.000e+00 0.000e+00 0.000e+00 0.000e+00 0.000e+00 0.000e+00 0.000e+00 0.000e+00 0.000e+00 0.000e+00 4.988e-02 1.250e-02 0.000e+00 0.000e+00 0.000e+00 0.000e+00 0.000e+00 0.000e+00 0.000e+00 0.000e+00 0.000e+00 0.000e+00 0.000e+00 0.000e+00 0.000e+00 0.000e+00 0.000e+00 0.000e+00 0.000e+00 0.000e+00 0.000e+00 0.000e+00 0.000e+00 0.000e+00 8.833e-02 7.800e-02 7.300e-02 7.000e-02 6.700e-02 6.500e-02 6.300e-02 6.100e-02 5.900e-02 5.700e-02 5.500e-02 5.300e-02 5.100e-02 4.750e-02 4.250e-02 3.750e-02 3.250e-02 2.750e-02 2.250e-02 1.750e-02 1.250e-02 7.500e-03 2.500e-03 0.000e+00 0.000e+00 0.000e+00 0.000e+00 0.000e+00 0.000e+00 0.000e+00 0.000e+00 0.000e+00 0.000e+00 0.000e+00 0.000e+00 0.000e+00 0.000e+00 0.000e+00 5.333e-02 2.500e-02 0.000e+00 0.000e+00 5.295e-02 3.000e-02 2.500e-03 0.000e+00 0.000e+00 4.894e-02 1.750e-02 0.000e+00 0.000e+00 0.000e+00 0.000e+00 0.000e+00 0.000e+00 0.000e+00 0.000e+00 0.000e+00 0.000e+00 0.000e+00 0.000e+00 0.000e+00 0.000e+00 4.800e-02 1.500e-02 0.000e+00 0.000e+00 0.000e+00 0.000e+00 0.000e+00 0.000e+00 0.000e+00 0.000e+00 0.000e+00 0.000e+00 0.000e+00 0.000e+00 4.707e-02 2.000e-02 0.000e+00 0.000e+00 0.000e+00 0.000e+00 0.000e+00 0.000e+00 0.000e+00 0.000e+00 0.000e+00 0.000e+00 0.000e+00 0.000e+00 0.000e+00 4.613e-02 1.250e-02 0.000e+00 0.000e+00 0.000e+00 0.000e+00 0.000e+00 0.000e+00 0.000e+00 0.000e+00 0.000e+00 0.000e+00 0.000e+00 0.000e+00 4.519e-02 7.500e-03 0.000e+00 0.000e+00 0.000e+00 0.000e+00 4.425e-02 7.500e-03 0.000e+00 0.000e+00 4.332e-02 1.250e-02 0.000e+00 0.000e+00 4.238e-02 0.000e+00 0.000e+00 4.144e-02 7.500e-03 0.000e+00 0.000e+00 4.050e-02 2.500e-03 0.000e+00 5.258e-02 2.750e-02 0.000e+00 0.000e+00 0.000e+00 3.957e-02 2.500e-03 0.000e+00 0.000e+00 3.863e-02 0.000e+00 0.000e+00 3.769e-02 2.500e-03 0.000e+00 0.000e+00 3.675e-02 7.500e-03 0.000e+00 0.000e+00 3.582e-02 0.000e+00 0.000e+00 3.488e-02 0.000e+00 0.000e+00 3.394e-02 0.000e+00 0.000e+00 0.000e+00 3.300e-02 2.500e-03 0.000e+00 0.000e+00 3.207e-02 0.000e+00 0.000e+00 3.113e-02 0.000e+00 0.000e+00 5.220e-02 2.000e-02 0.000e+00 0.000e+00 3.019e-02 0.000e+00 0.000e+00 2.925e-02 0.000e+00 0.000e+00 0.000e+00 2.832e-02 0.000e+00 0.000e+00 0.000e+00 2.738e-02 0.000e+00 0.000e+00 2.644e-02 0.000e+00 0.000e+00 2.550e-02 0.000e+00 0.000e+00 0.000e+00 2.457e-02 0.000e+00 0.000e+00 2.363e-02 0.000e+00 0.000e+00 2.269e-02 0.000e+00 0.000e+00 0.000e+00 2.175e-02 0.000e+00 0.000e+00 5.183e-02 2.250e-02 0.000e+00 0.000e+00 2.082e-02 0.000e+00 0.000e+00 1.988e-02 0.000e+00 0.000e+00 1.894e-02 0.000e+00 0.000e+00 1.800e-02 0.000e+00 0.000e+00 0.000e+00 1.707e-02 0.000e+00 0.000e+00 1.613e-02 0.000e+00 0.000e+00 1.519e-02 0.000e+00 0.000e+00 1.425e-02 0.000e+00 1.332e-02 0.000e+00 0.000e+00 1.238e-02 0.000e+00 0.000e+00 5.145e-02 2.000e-02 0.000e+00 0.000e+00 1.144e-02 0.000e+00 0.000e+00 1.050e-02 0.000e+00 9.566e-03 0.000e+00 8.629e-03 0.000e+00 0.000e+00 7.691e-03 0.000e+00 6.754e-03 0.000e+00 0.000e+00 5.816e-03 0.000e+00 0.000e+00 4.879e-03 0.000e+00 0.000e+00 3.941e-03 0.000e+00 0.000e+00 3.004e-03 0.000e+00 0.000e+00 5.108e-02 2.250e-02 0.000e+00 0.000e+00 0.000e+00 2.066e-03 0.000e+00 0.000e+00 1.129e-03 0.000e+00 1.910e-04 0.000e+00 0.000e+00 0.000e+00 0.000e+00 0.000e+00 0.000e+00 0.000e+00 0.000e+00 0.000e+00 0.000e+00 0.000e+00 0.000e+00 0.000e+00 0.000e+00 0.000e+00 0.000e+00 0.000e+00 0.000e+00 0.000e+00 5.070e-02 2.250e-02 0.000e+00 0.000e+00 0.000e+00 0.000e+00 0.000e+00 0.000e+00 0.000e+00 0.000e+00 0.000e+00 0.000e+00 0.000e+00 0.000e+00 0.000e+00 0.000e+00 0.000e+00 0.000e+00 0.000e+00 0.000e+00 0.000e+00 0.000e+00 0.000e+00 0.000e+00 0.000e+00 0.000e+00 5.033e-02 2.000e-02 0.000e+00 0.000e+00 0.000e+00 0.000e+00 0.000e+00 0.000e+00 0.000e+00 0.000e+00 0.000e+00 0.000e+00 0.000e+00 0.000e+00 0.000e+00 0.000e+00 0.000e+00 0.000e+00 0.000e+00 0.000e+00 0.000e+00 0.000e+00 0.000e+00 0.000e+00 4.988e-02 1.500e-02 0.000e+00 0.000e+00 0.000e+00 0.000e+00 0.000e+00 0.000e+00 0.000e+00 0.000e+00 0.000e+00 0.000e+00 0.000e+00 0.000e+00 0.000e+00 0.000e+00 0.000e+00 0.000e+00 0.000e+00 0.000e+00 0.000e+00 0.000e+00 0.000e+00 8.833e-02 7.800e-02 7.300e-02 7.000e-02 6.700e-02 6.500e-02 6.300e-02 6.100e-02 5.900e-02 5.700e-02 5.500e-02 5.300e-02 5.100e-02 4.750e-02 4.250e-02 3.750e-02 3.250e-02 2.750e-02 2.250e-02 1.750e-02 1.250e-02 7.500e-03 2.500e-03 0.000e+00 0.000e+00 0.000e+00 0.000e+00 0.000e+00 0.000e+00 0.000e+00 0.000e+00 0.000e+00 0.000e+00 0.000e+00 0.000e+00 0.000e+00 0.000e+00 0.000e+00 5.333e-02 2.500e-02 0.000e+00 0.000e+00 5.295e-02 2.750e-02 0.000e+00 0.000e+00 0.000e+00 4.894e-02 2.000e-02 0.000e+00 0.000e+00 0.000e+00 0.000e+00 0.000e+00 0.000e+00 0.000e+00 0.000e+00 0.000e+00 0.000e+00 0.000e+00 0.000e+00 0.000e+00 0.000e+00 0.000e+00 0.000e+00 0.000e+00 0.000e+00 0.000e+00 0.000e+00 4.800e-02 1.000e-02 0.000e+00 0.000e+00 0.000e+00 0.000e+00 0.000e+00 0.000e+00 0.000e+00 0.000e+00 0.000e+00 0.000e+00 0.000e+00 0.000e+00 4.707e-02 1.000e-02 0.000e+00 0.000e+00 0.000e+00 0.000e+00 0.000e+00 0.000e+00 0.000e+00 0.000e+00 0.000e+00 0.000e+00 0.000e+00 0.000e+00 4.613e-02 1.500e-02 0.000e+00 0.000e+00 0.000e+00 0.000e+00 0.000e+00 0.000e+00 0.000e+00 0.000e+00 0.000e+00 0.000e+00 0.000e+00 0.000e+00 4.519e-02 7.500e-03 0.000e+00 0.000e+00 0.000e+00 0.000e+00 0.000e+00 4.425e-02 1.000e-02 0.000e+00 0.000e+00 4.332e-02 5.000e-03 0.000e+00 4.238e-02 0.000e+00 0.000e+00 4.144e-02 7.500e-03 0.000e+00 0.000e+00 4.050e-02 5.000e-03 0.000e+00 0.000e+00 5.258e-02 2.500e-02 0.000e+00 0.000e+00 3.957e-02 0.000e+00 0.000e+00 3.863e-02 5.000e-03 0.000e+00 0.000e+00 3.769e-02 1.000e-02 0.000e+00 0.000e+00 3.675e-02 0.000e+00 0.000e+00 3.582e-02 2.500e-03 0.000e+00 0.000e+00 3.488e-02 2.500e-03 0.000e+00 0.000e+00 3.394e-02 5.000e-03 0.000e+00 0.000e+00 3.300e-02 0.000e+00 0.000e+00 0.000e+00 3.207e-02 0.000e+00 0.000e+00 3.113e-02 0.000e+00 0.000e+00 5.220e-02 2.000e-02 0.000e+00 0.000e+00 3.019e-02 0.000e+00 0.000e+00 2.925e-02 0.000e+00 0.000e+00 2.832e-02 0.000e+00 0.000e+00 2.738e-02 0.000e+00 0.000e+00 2.644e-02 0.000e+00 0.000e+00 2.550e-02 0.000e+00 0.000e+00 0.000e+00 2.457e-02 0.000e+00 0.000e+00 0.000e+00 2.363e-02 0.000e+00 0.000e+00 2.269e-02 0.000e+00 0.000e+00 2.175e-02 0.000e+00 0.000e+00 5.183e-02 2.000e-02 0.000e+00 0.000e+00 2.082e-02 0.000e+00 0.000e+00 1.988e-02 0.000e+00 0.000e+00 1.894e-02 0.000e+00 1.800e-02 0.000e+00 0.000e+00 1.707e-02 0.000e+00 0.000e+00 1.613e-02 0.000e+00 0.000e+00 1.519e-02 0.000e+00 0.000e+00 0.000e+00 1.425e-02 0.000e+00 0.000e+00 1.332e-02 0.000e+00 0.000e+00 1.238e-02 0.000e+00 0.000e+00 5.145e-02 1.250e-02 0.000e+00 1.144e-02 0.000e+00 0.000e+00 1.050e-02 0.000e+00 0.000e+00 9.566e-03 0.000e+00 0.000e+00 8.629e-03 0.000e+00 0.000e+00 7.691e-03 0.000e+00 0.000e+00 6.754e-03 0.000e+00 0.000e+00 5.816e-03 0.000e+00 0.000e+00 4.879e-03 0.000e+00 3.941e-03 0.000e+00 0.000e+00 3.004e-03 0.000e+00 5.108e-02 1.750e-02 0.000e+00 0.000e+00 2.066e-03 0.000e+00 1.129e-03 0.000e+00 1.910e-04 0.000e+00 0.000e+00 0.000e+00 0.000e+00 0.000e+00 0.000e+00 0.000e+00 0.000e+00 0.000e+00 0.000e+00 0.000e+00 0.000e+00 0.000e+00 0.000e+00 0.000e+00 0.000e+00 0.000e+00 0.000e+00 5.070e-02 1.500e-02 0.000e+00 0.000e+00 0.000e+00 0.000e+00 0.000e+00 0.000e+00 0.000e+00 0.000e+00 0.000e+00 0.000e+00 0.000e+00 0.000e+00 0.000e+00 0.000e+00 0.000e+00 0.000e+00 0.000e+00 0.000e+00 0.000e+00 0.000e+00 0.000e+00 0.000e+00 0.000e+00 5.033e-02 1.500e-02 0.000e+00 0.000e+00 0.000e+00 0.000e+00 0.000e+00 0.000e+00 0.000e+00 0.000e+00 0.000e+00 0.000e+00 0.000e+00 0.000e+00 0.000e+00 0.000e+00 0.000e+00 0.000e+00 0.000e+00 0.000e+00 0.000e+00 0.000e+00 0.000e+00 0.000e+00 4.988e-02 1.500e-02 0.000e+00 0.000e+00 0.000e+00 0.000e+00 0.000e+00 0.000e+00 0.000e+00 0.000e+00 0.000e+00 0.000e+00 0.000e+00 0.000e+00 0.000e+00 0.000e+00 0.000e+00 0.000e+00 0.000e+00 0.000e+00 0.000e+00 0.000e+00 0.000e+00 0.000e+00 8.833e-02 7.800e-02 7.300e-02 7.000e-02 6.700e-02 6.500e-02 6.300e-02 6.100e-02 5.900e-02 5.700e-02 5.500e-02 5.300e-02 5.100e-02 4.750e-02 4.250e-02 3.750e-02 3.250e-02 2.750e-02 2.250e-02 1.750e-02 1.250e-02 7.500e-03 2.500e-03 0.000e+00 0.000e+00 0.000e+00 0.000e+00 0.000e+00 0.000e+00 0.000e+00 0.000e+00 0.000e+00 0.000e+00 0.000e+00 0.000e+00 0.000e+00 0.000e+00 0.000e+00 5.333e-02 1.250e-02 0.000e+00 5.295e-02 2.750e-02 0.000e+00 0.000e+00 0.000e+00 4.894e-02 1.250e-02 0.000e+00 0.000e+00 0.000e+00 0.000e+00 0.000e+00 0.000e+00 0.000e+00 0.000e+00 0.000e+00 0.000e+00 0.000e+00 0.000e+00 0.000e+00 0.000e+00 4.800e-02 1.000e-02 0.000e+00 0.000e+00 0.000e+00 0.000e+00 0.000e+00 0.000e+00 0.000e+00 0.000e+00 0.000e+00 0.000e+00 0.000e+00 0.000e+00 4.707e-02 0.000e+00 0.000e+00 0.000e+00 0.000e+00 0.000e+00 0.000e+00 0.000e+00 0.000e+00 0.000e+00 0.000e+00 0.000e+00 0.000e+00 4.613e-02 5.000e-03 0.000e+00 0.000e+00 0.000e+00 0.000e+00 0.000e+00 0.000e+00 0.000e+00 0.000e+00 0.000e+00 0.000e+00 0.000e+00 4.519e-02 1.250e-02 0.000e+00 0.000e+00 0.000e+00 0.000e+00 0.000e+00 4.425e-02 1.000e-02 0.000e+00 0.000e+00 4.332e-02 7.500e-03 0.000e+00 0.000e+00 4.238e-02 1.000e-02 0.000e+00 0.000e+00 4.144e-02 0.000e+00 0.000e+00 4.050e-02 5.000e-03 0.000e+00 0.000e+00 5.258e-02 1.750e-02 0.000e+00 0.000e+00 3.957e-02 2.500e-03 0.000e+00 3.863e-02 0.000e+00 0.000e+00 3.769e-02 7.500e-03 0.000e+00 0.000e+00 3.675e-02 7.500e-03 0.000e+00 0.000e+00 3.582e-02 0.000e+00 0.000e+00 0.000e+00 3.488e-02 0.000e+00 0.000e+00 0.000e+00 3.394e-02 0.000e+00 0.000e+00 3.300e-02 0.000e+00 0.000e+00 3.207e-02 0.000e+00 0.000e+00 3.113e-02 2.500e-03 0.000e+00 0.000e+00 5.220e-02 2.500e-02 0.000e+00 0.000e+00 0.000e+00 3.019e-02 0.000e+00 0.000e+00 2.925e-02 0.000e+00 0.000e+00 0.000e+00 2.832e-02 0.000e+00 0.000e+00 0.000e+00 2.738e-02 0.000e+00 0.000e+00 0.000e+00 2.644e-02 0.000e+00 0.000e+00 2.550e-02 0.000e+00 0.000e+00 2.457e-02 0.000e+00 0.000e+00 2.363e-02 0.000e+00 0.000e+00 2.269e-02 0.000e+00 0.000e+00 2.175e-02 0.000e+00 0.000e+00 5.183e-02 2.750e-02 0.000e+00 0.000e+00 0.000e+00 2.082e-02 0.000e+00 0.000e+00 1.988e-02 0.000e+00 0.000e+00 1.894e-02 0.000e+00 0.000e+00 1.800e-02 0.000e+00 0.000e+00 1.707e-02 0.000e+00 0.000e+00 1.613e-02 0.000e+00 0.000e+00 1.519e-02 0.000e+00 0.000e+00 1.425e-02 0.000e+00 0.000e+00 1.332e-02 0.000e+00 0.000e+00 1.238e-02 0.000e+00 0.000e+00 5.145e-02 1.500e-02 0.000e+00 0.000e+00 1.144e-02 0.000e+00 0.000e+00 1.050e-02 0.000e+00 0.000e+00 9.566e-03 0.000e+00 0.000e+00 8.629e-03 0.000e+00 0.000e+00 7.691e-03 0.000e+00 0.000e+00 6.754e-03 0.000e+00 5.816e-03 0.000e+00 0.000e+00 4.879e-03 0.000e+00 0.000e+00 3.941e-03 0.000e+00 0.000e+00 3.004e-03 0.000e+00 0.000e+00 5.108e-02 1.750e-02 0.000e+00 0.000e+00 2.066e-03 0.000e+00 0.000e+00 1.129e-03 0.000e+00 0.000e+00 1.910e-04 0.000e+00 0.000e+00 0.000e+00 0.000e+00 0.000e+00 0.000e+00 0.000e+00 0.000e+00 0.000e+00 0.000e+00 0.000e+00 0.000e+00 0.000e+00 0.000e+00 0.000e+00 0.000e+00 0.000e+00 0.000e+00 0.000e+00 0.000e+00 5.070e-02 1.750e-02 0.000e+00 0.000e+00 0.000e+00 0.000e+00 0.000e+00 0.000e+00 0.000e+00 0.000e+00 0.000e+00 0.000e+00 0.000e+00 0.000e+00 0.000e+00 0.000e+00 0.000e+00 0.000e+00 0.000e+00 0.000e+00 0.000e+00 0.000e+00 0.000e+00 0.000e+00 0.000e+00 5.033e-02 2.500e-03 0.000e+00 0.000e+00 0.000e+00 0.000e+00 0.000e+00 0.000e+00 0.000e+00 0.000e+00 0.000e+00 0.000e+00 0.000e+00 0.000e+00 0.000e+00 0.000e+00 0.000e+00 0.000e+00 0.000e+00 0.000e+00 0.000e+00 0.000e+00 0.000e+00 4.988e-02 1.250e-02 0.000e+00 0.000e+00 0.000e+00 0.000e+00 0.000e+00 0.000e+00 0.000e+00 0.000e+00 0.000e+00 0.000e+00 0.000e+00 0.000e+00 0.000e+00 0.000e+00 0.000e+00 0.000e+00 0.000e+00 0.000e+00 0.000e+00 0.000e+00 0.000e+00 8.833e-02 7.800e-02 7.300e-02 7.000e-02 6.700e-02 6.500e-02 6.300e-02 6.100e-02 5.900e-02 5.700e-02 5.500e-02 5.300e-02 5.100e-02 4.750e-02 4.250e-02 3.750e-02 3.250e-02 2.750e-02 2.250e-02 1.750e-02 1.250e-02 7.500e-03 2.500e-03 0.000e+00 0.000e+00 0.000e+00 0.000e+00 0.000e+00 0.000e+00 0.000e+00 0.000e+00 0.000e+00 0.000e+00 0.000e+00 0.000e+00 0.000e+00 0.000e+00 0.000e+00 0.000e+00 0.000e+00 0.000e+00 0.000e+00 0.000e+00 0.000e+00 0.000e+00 0.000e+00 0.000e+00 0.000e+00 0.000e+00 0.000e+00 0.000e+00 0.000e+00 0.000e+00 0.000e+00 0.000e+00 0.000e+00 0.000e+00 0.000e+00 0.000e+00 0.000e+00 0.000e+00 0.000e+00 0.000e+00 0.000e+00 0.000e+00 0.000e+00 0.000e+00 0.000e+00 0.000e+00 0.000e+00 0.000e+00 0.000e+00 0.000e+00 0.000e+00 0.000e+00 0.000e+00 0.000e+00 0.000e+00 0.000e+00 0.000e+00 0.000e+00 0.000e+00 0.000e+00 0.000e+00 0.000e+00 0.000e+00 0.000e+00 0.000e+00 0.000e+00 0.000e+00 0.000e+00 0.000e+00 0.000e+00 0.000e+00 0.000e+00 0.000e+00 0.000e+00 0.000e+00 0.000e+00 0.000e+00 0.000e+00 0.000e+00 0.000e+00 0.000e+00 0.000e+00 0.000e+00 0.000e+00 0.000e+00 0.000e+00 0.000e+00 0.000e+00 0.000e+00 0.000e+00 0.000e+00 0.000e+00 0.000e+00 0.000e+00 0.000e+00 0.000e+00 0.000e+00 0.000e+00 0.000e+00 0.000e+00 0.000e+00 0.000e+00 0.000e+00 0.000e+00 0.000e+00 0.000e+00 0.000e+00 0.000e+00 0.000e+00 0.000e+00 0.000e+00 0.000e+00 0.000e+00 0.000e+00 0.000e+00 0.000e+00 0.000e+00 0.000e+00 0.000e+00 0.000e+00 0.000e+00 0.000e+00 0.000e+00 0.000e+00 6.750e-02 5.700e-02 5.200e-02 4.750e-02 4.000e-02 3.500e-02 3.000e-02 2.500e-02 2.000e-02 1.500e-02 1.000e-02 5.000e-03 0.000e+00 0.000e+00 0.000e+00 0.000e+00 0.000e+00 0.000e+00 0.000e+00 0.000e+00 0.000e+00 0.000e+00 0.000e+00 0.000e+00 0.000e+00 0.000e+00 0.000e+00 0.000e+00 0.000e+00 0.000e+00 0.000e+00 0.000e+00 0.000e+00 0.000e+00 0.000e+00 0.000e+00 0.000e+00 0.000e+00 0.000e+00 0.000e+00 0.000e+00 0.000e+00 0.000e+00 0.000e+00 0.000e+00 0.000e+00 0.000e+00 0.000e+00 0.000e+00 0.000e+00 0.000e+00 0.000e+00 0.000e+00 0.000e+00 0.000e+00 0.000e+00 0.000e+00 0.000e+00 0.000e+00 0.000e+00 0.000e+00 0.000e+00 0.000e+00 0.000e+00 0.000e+00 0.000e+00 0.000e+00 0.000e+00 0.000e+00 0.000e+00 0.000e+00 0.000e+00 0.000e+00 0.000e+00 0.000e+00 0.000e+00 0.000e+00 0.000e+00 0.000e+00 0.000e+00 0.000e+00 0.000e+00 0.000e+00 0.000e+00 0.000e+00 0.000e+00 0.000e+00 0.000e+00 0.000e+00 0.000e+00 0.000e+00 0.000e+00 0.000e+00 0.000e+00 0.000e+00 0.000e+00 0.000e+00 0.000e+00 0.000e+00 0.000e+00 0.000e+00 0.000e+00 0.000e+00 0.000e+00 0.000e+00 0.000e+00 0.000e+00 0.000e+00 0.000e+00 0.000e+00 0.000e+00 0.000e+00 0.000e+00 0.000e+00 0.000e+00 0.000e+00 0.000e+00 0.000e+00 0.000e+00 0.000e+00 0.000e+00 0.000e+00 0.000e+00 0.000e+00 0.000e+00 0.000e+00 0.000e+00 0.000e+00 0.000e+00 0.000e+00 0.000e+00 0.000e+00 0.000e+00 0.000e+00 0.000e+00 0.000e+00 6.750e-02 5.700e-02 5.200e-02 4.750e-02 4.000e-02 3.500e-02 3.000e-02 2.500e-02 2.000e-02 1.500e-02 1.000e-02 5.000e-03 0.000e+00 0.000e+00 0.000e+00 0.000e+00 0.000e+00 0.000e+00 0.000e+00 0.000e+00 0.000e+00 0.000e+00 0.000e+00 0.000e+00 0.000e+00 0.000e+00 0.000e+00 0.000e+00 0.000e+00 0.000e+00 0.000e+00 0.000e+00 0.000e+00 0.000e+00 0.000e+00 0.000e+00 0.000e+00 0.000e+00 0.000e+00 0.000e+00 0.000e+00 0.000e+00 0.000e+00 0.000e+00 0.000e+00 0.000e+00 0.000e+00 0.000e+00 0.000e+00 0.000e+00 0.000e+00 0.000e+00 0.000e+00 0.000e+00 0.000e+00 0.000e+00 0.000e+00 0.000e+00 0.000e+00 0.000e+00 0.000e+00 0.000e+00 0.000e+00 0.000e+00 0.000e+00 0.000e+00 0.000e+00 0.000e+00 0.000e+00 0.000e+00 0.000e+00 0.000e+00 0.000e+00 0.000e+00 0.000e+00 0.000e+00 0.000e+00 0.000e+00 0.000e+00 0.000e+00 0.000e+00 0.000e+00 0.000e+00 0.000e+00 0.000e+00 0.000e+00 0.000e+00 0.000e+00 0.000e+00 0.000e+00 0.000e+00 0.000e+00 0.000e+00 0.000e+00 0.000e+00 0.000e+00 0.000e+00 0.000e+00 0.000e+00 0.000e+00 0.000e+00 0.000e+00 0.000e+00 0.000e+00 0.000e+00 0.000e+00 0.000e+00 0.000e+00 0.000e+00 0.000e+00 0.000e+00 0.000e+00 0.000e+00 0.000e+00 0.000e+00 0.000e+00 0.000e+00 0.000e+00 0.000e+00 0.000e+00 0.000e+00 0.000e+00 0.000e+00 0.000e+00 0.000e+00 0.000e+00 0.000e+00 0.000e+00 0.000e+00 0.000e+00 0.000e+00 0.000e+00 0.000e+00 0.000e+00 0.000e+00 0.000e+00 0.000e+00 6.750e-02 5.700e-02 5.200e-02 4.750e-02 4.000e-02 3.500e-02 3.000e-02 2.500e-02 2.000e-02 1.500e-02 1.000e-02 5.000e-03 0.000e+00 0.000e+00 0.000e+00 0.000e+00 0.000e+00 0.000e+00 0.000e+00 0.000e+00 0.000e+00 0.000e+00 0.000e+00 0.000e+00 0.000e+00 0.000e+00 0.000e+00 0.000e+00 0.000e+00 0.000e+00 0.000e+00 0.000e+00 0.000e+00 0.000e+00 0.000e+00 0.000e+00 0.000e+00 0.000e+00 0.000e+00 0.000e+00 0.000e+00 0.000e+00 0.000e+00 0.000e+00 0.000e+00 0.000e+00 0.000e+00 0.000e+00 0.000e+00 0.000e+00 0.000e+00 0.000e+00 0.000e+00 0.000e+00 0.000e+00 0.000e+00 0.000e+00 0.000e+00 0.000e+00 0.000e+00 0.000e+00 0.000e+00 0.000e+00 0.000e+00 0.000e+00 0.000e+00 0.000e+00 0.000e+00 0.000e+00 0.000e+00 0.000e+00 0.000e+00 0.000e+00 0.000e+00 0.000e+00 0.000e+00 0.000e+00 0.000e+00 0.000e+00 0.000e+00 0.000e+00 0.000e+00 0.000e+00 0.000e+00 0.000e+00 0.000e+00 0.000e+00 0.000e+00 0.000e+00 0.000e+00 0.000e+00 0.000e+00 0.000e+00 0.000e+00 0.000e+00 0.000e+00 0.000e