<?xml version="1.0"?>
<VTKFile type="UnstructuredGrid" version="0.1" byte_order="LittleEndian">
   <UnstructuredGrid>
      <Piece NumberOfPoints="8720" NumberOfCells="601">
         <Points>
            <DataArray type="Float32" Name="Position" NumberOfComponents="3" format="ascii">
-0.132	-5.024	0.023
-0.127	-5.025	0.031
-0.128	-5.027	0.040
-0.133	-5.028	0.047
-0.142	-5.029	0.050
-0.151	-5.029	0.046
-0.156	-5.028	0.039
-0.156	-5.026	0.030
-0.150	-5.025	0.022
-0.141	-5.024	0.020
-0.096	-5.885	-0.108
-0.091	-5.887	-0.100
-0.092	-5.889	-0.091
-0.098	-5.890	-0.084
-0.107	-5.890	-0.082
-0.115	-5.888	-0.085
-0.120	-5.886	-0.093
-0.119	-5.884	-0.102
-0.113	-5.883	-0.109
-0.104	-5.884	-0.111
-0.109	-5.953	-0.126
-0.105	-5.956	-0.119
-0.106	-5.958	-0.110
-0.112	-5.959	-0.103
-0.121	-5.958	-0.101
-0.130	-5.955	-0.104
-0.134	-5.952	-0.112
-0.133	-5.950	-0.121
-0.127	-5.949	-0.128
-0.118	-5.951	-0.130
-0.287	-5.075	0.084
-0.282	-5.068	0.080
-0.275	-5.066	0.075
-0.267	-5.070	0.071
-0.262	-5.078	0.070
-0.262	-5.087	0.071
-0.267	-5.094	0.076
-0.274	-5.096	0.081
-0.282	-5.092	0.085
-0.287	-5.084	0.086
-0.623	-5.206	-0.475
-0.623	-5.198	-0.471
-0.623	-5.188	-0.473
-0.623	-5.182	-0.479
-0.623	-5.180	-0.488
-0.623	-5.185	-0.497
-0.623	-5.193	-0.501
-0.623	-5.202	-0.499
-0.623	-5.209	-0.493
-0.623	-5.210	-0.484
-1.253	-5.898	0.517
-1.249	-5.891	0.513
-1.241	-5.889	0.508
-1.234	-5.892	0.504
-1.229	-5.899	0.502
-1.228	-5.909	0.503
-1.233	-5.916	0.507
-1.240	-5.918	0.513
-1.248	-5.915	0.517
-1.253	-5.907	0.519
-1.559	-5.984	0.045
-1.554	-5.977	0.041
-1.547	-5.975	0.035
-1.539	-5.978	0.031
-1.535	-5.986	0.029
-1.534	-5.995	0.031
-1.538	-6.002	0.035
-1.546	-6.004	0.040
-1.553	-6.001	0.044
-1.558	-5.994	0.046
-1.318	-6.026	0.546
-1.315	-6.018	0.547
-1.318	-6.009	0.549
-1.325	-6.003	0.551
-1.334	-6.003	0.552
-1.342	-6.008	0.552
-1.345	-6.017	0.551
-1.342	-6.026	0.549
-1.335	-6.031	0.548
-1.326	-6.032	0.546
-1.253	-6.111	1.084
-1.250	-6.102	1.085
-1.252	-6.093	1.087
-1.259	-6.088	1.088
-1.269	-6.088	1.089
-1.276	-6.093	1.090
-1.279	-6.102	1.089
-1.277	-6.110	1.087
-1.270	-6.116	1.085
-1.260	-6.116	1.084
-1.404	-6.139	0.579
-1.403	-6.130	0.581
-1.407	-6.123	0.585
-1.414	-6.120	0.589
-1.423	-6.122	0.593
-1.429	-6.129	0.593
-1.430	-6.138	0.591
-1.426	-6.146	0.587
-1.418	-6.149	0.582
-1.410	-6.146	0.579
-1.193	-6.284	1.081
-1.184	-6.284	1.086
-1.175	-6.284	1.084
-1.169	-6.284	1.078
-1.167	-6.284	1.068
-1.171	-6.284	1.060
-1.180	-6.284	1.056
-1.189	-6.284	1.057
-1.195	-6.284	1.064
-1.197	-6.284	1.073
-1.511	-6.252	0.630
-1.508	-6.243	0.627
-1.501	-6.239	0.622
-1.494	-6.241	0.616
-1.489	-6.248	0.613
-1.487	-6.257	0.612
-1.491	-6.265	0.616
-1.497	-6.269	0.621
-1.504	-6.267	0.626
-1.509	-6.261	0.630
-1.817	-6.283	0.244
-1.813	-6.275	0.241
-1.807	-6.271	0.235
-1.800	-6.273	0.230
-1.794	-6.279	0.226
-1.793	-6.289	0.226
-1.796	-6.297	0.229
-1.803	-6.301	0.234
-1.810	-6.299	0.240
-1.815	-6.292	0.243
-1.587	-6.376	0.670
-1.586	-6.368	0.665
-1.581	-6.363	0.659
-1.574	-6.364	0.653
-1.568	-6.370	0.649
-1.565	-6.378	0.650
-1.566	-6.387	0.654
-1.571	-6.391	0.660
-1.578	-6.390	0.667
-1.584	-6.385	0.670
-1.893	-6.510	0.341
-1.892	-6.502	0.337
-1.887	-6.497	0.331
-1.880	-6.498	0.325
-1.874	-6.504	0.321
-1.870	-6.512	0.322
-1.871	-6.520	0.326
-1.876	-6.525	0.332
-1.883	-6.524	0.338
-1.889	-6.518	0.342
-1.647	-6.493	0.687
-1.641	-6.492	0.693
-1.638	-6.494	0.702
-1.641	-6.499	0.709
-1.647	-6.505	0.713
-1.655	-6.509	0.711
-1.662	-6.510	0.704
-1.664	-6.508	0.695
-1.661	-6.503	0.688
-1.655	-6.497	0.685
-1.371	-6.913	0.508
-1.365	-6.911	0.514
-1.362	-6.914	0.523
-1.365	-6.919	0.531
-1.371	-6.924	0.534
-1.379	-6.929	0.532
-1.386	-6.930	0.525
-1.388	-6.928	0.517
-1.385	-6.923	0.509
-1.379	-6.917	0.506
-1.718	-6.638	0.744
-1.715	-6.631	0.749
-1.715	-6.621	0.749
-1.719	-6.614	0.746
-1.725	-6.611	0.739
-1.731	-6.614	0.733
-1.734	-6.621	0.728
-1.734	-6.630	0.727
-1.729	-6.638	0.731
-1.723	-6.641	0.737
-2.024	-6.678	1.016
-2.021	-6.671	1.021
-2.022	-6.662	1.022
-2.026	-6.654	1.018
-2.032	-6.651	1.012
-2.037	-6.654	1.005
-2.041	-6.661	1.000
-2.040	-6.671	1.000
-2.036	-6.678	1.003
-2.030	-6.681	1.009
-1.785	-6.758	0.768
-1.783	-6.749	0.771
-1.786	-6.742	0.776
-1.794	-6.739	0.780
-1.803	-6.740	0.782
-1.810	-6.746	0.780
-1.812	-6.754	0.777
-1.809	-6.762	0.772
-1.801	-6.765	0.768
-1.792	-6.764	0.766
-1.682	-6.951	1.138
-1.680	-6.943	1.142
-1.683	-6.936	1.147
-1.691	-6.932	1.151
-1.700	-6.934	1.152
-1.707	-6.940	1.151
-1.709	-6.948	1.148
-1.706	-6.955	1.143
-1.698	-6.959	1.139
-1.689	-6.957	1.137
-1.858	-6.887	0.802
-1.855	-6.879	0.804
-1.858	-6.870	0.807
-1.865	-6.865	0.809
-1.875	-6.865	0.810
-1.882	-6.870	0.809
-1.885	-6.879	0.807
-1.883	-6.887	0.805
-1.875	-6.893	0.803
-1.866	-6.893	0.802
-1.846	-6.986	1.217
-1.838	-6.986	1.221
-1.828	-6.986	1.219
-1.822	-6.986	1.213
-1.820	-6.986	1.204
-1.825	-6.986	1.195
-1.833	-6.986	1.191
-1.842	-6.986	1.193
-1.849	-6.986	1.199
-1.850	-6.986	1.208
-1.934	-7.022	0.843
-1.932	-7.014	0.848
-1.933	-7.005	0.848
-1.935	-6.998	0.843
-1.938	-6.995	0.835
-1.941	-6.998	0.827
-1.943	-7.005	0.821
-1.942	-7.015	0.821
-1.940	-7.022	0.826
-1.936	-7.025	0.835
-2.261	-7.044	0.965
-2.259	-7.037	0.970
-2.260	-7.027	0.970
-2.262	-7.020	0.965
-2.266	-7.017	0.957
-2.268	-7.020	0.948
-2.270	-7.028	0.943
-2.269	-7.037	0.943
-2.267	-7.044	0.948
-2.264	-7.047	0.956
-0.398	-5.155	0.132
-0.396	-5.147	0.137
-0.397	-5.138	0.138
-0.400	-5.131	0.133
-0.404	-5.128	0.126
-0.408	-5.130	0.118
-0.409	-5.138	0.112
-0.408	-5.147	0.112
-0.405	-5.154	0.116
-0.401	-5.157	0.124
-1.173	-5.260	0.503
-1.172	-5.253	0.509
-1.173	-5.244	0.510
-1.176	-5.236	0.506
-1.181	-5.233	0.498
-1.184	-5.236	0.490
-1.186	-5.243	0.484
-1.185	-5.252	0.483
-1.181	-5.260	0.487
-1.177	-5.263	0.495
-1.237	-5.276	0.538
-1.236	-5.269	0.544
-1.237	-5.260	0.545
-1.241	-5.252	0.542
-1.246	-5.249	0.534
-1.250	-5.252	0.526
-1.251	-5.259	0.520
-1.250	-5.268	0.519
-1.246	-5.275	0.523
-1.241	-5.279	0.530
-1.990	-7.147	0.856
-1.989	-7.138	0.857
-1.993	-7.130	0.860
-2.001	-7.127	0.864
-2.009	-7.130	0.868
-2.015	-7.137	0.870
-2.016	-7.146	0.869
-2.012	-7.154	0.866
-2.004	-7.157	0.861
-1.996	-7.155	0.858
-1.815	-7.197	1.203
-1.814	-7.188	1.204
-1.818	-7.181	1.207
-1.826	-7.177	1.211
-1.834	-7.180	1.215
-1.840	-7.187	1.217
-1.841	-7.196	1.216
-1.836	-7.204	1.213
-1.829	-7.207	1.208
-1.821	-7.205	1.205
-2.052	-7.283	0.884
-2.050	-7.274	0.886
-2.053	-7.266	0.890
-2.061	-7.262	0.893
-2.070	-7.263	0.895
-2.077	-7.269	0.895
-2.079	-7.278	0.892
-2.076	-7.286	0.888
-2.069	-7.290	0.885
-2.060	-7.289	0.883
-2.002	-7.393	1.204
-1.994	-7.393	1.208
-1.985	-7.393	1.207
-1.978	-7.393	1.200
-1.977	-7.393	1.191
-1.981	-7.393	1.183
-1.989	-7.393	1.179
-1.998	-7.393	1.180
-2.005	-7.393	1.187
-2.006	-7.393	1.196
-2.114	-7.418	0.911
-2.112	-7.410	0.914
-2.114	-7.402	0.917
-2.122	-7.397	0.920
-2.131	-7.397	0.920
-2.138	-7.402	0.919
-2.141	-7.411	0.916
-2.139	-7.419	0.913
-2.131	-7.424	0.910
-2.122	-7.423	0.910
-2.093	-7.514	1.167
-2.090	-7.506	1.170
-2.093	-7.498	1.173
-2.100	-7.493	1.175
-2.110	-7.493	1.176
-2.117	-7.498	1.175
-2.120	-7.507	1.172
-2.117	-7.515	1.169
-2.110	-7.520	1.166
-2.101	-7.520	1.165
-2.198	-7.540	0.947
-2.194	-7.533	0.943
-2.187	-7.531	0.938
-2.179	-7.534	0.933
-2.174	-7.542	0.932
-2.174	-7.551	0.933
-2.178	-7.558	0.938
-2.185	-7.560	0.943
-2.193	-7.557	0.947
-2.198	-7.549	0.949
-2.327	-7.597	0.700
-2.323	-7.597	0.708
-2.325	-7.597	0.717
-2.331	-7.597	0.724
-2.340	-7.597	0.725
-2.349	-7.597	0.721
-2.353	-7.597	0.713
-2.351	-7.597	0.703
-2.345	-7.597	0.697
-2.336	-7.597	0.695
-2.242	-7.693	0.974
-2.242	-7.685	0.979
-2.243	-7.676	0.980
-2.245	-7.669	0.974
-2.247	-7.666	0.966
-2.249	-7.669	0.957
-2.249	-7.677	0.952
-2.248	-7.686	0.952
-2.246	-7.693	0.957
-2.244	-7.696	0.966
-2.499	-7.722	1.037
-2.499	-7.714	1.042
-2.500	-7.705	1.042
-2.502	-7.697	1.037
-2.504	-7.695	1.028
-2.506	-7.698	1.020
-2.507	-7.705	1.015
-2.506	-7.715	1.014
-2.504	-7.722	1.020
-2.501	-7.725	1.028
-2.309	-7.815	0.999
-2.306	-7.808	0.994
-2.299	-7.805	0.989
-2.292	-7.807	0.984
-2.286	-7.814	0.981
-2.285	-7.824	0.983
-2.288	-7.831	0.987
-2.295	-7.834	0.993
-2.302	-7.832	0.998
-2.308	-7.824	1.000
-2.452	-7.862	0.807
-2.448	-7.854	0.802
-2.442	-7.851	0.797
-2.434	-7.854	0.792
-2.429	-7.861	0.789
-2.427	-7.870	0.791
-2.431	-7.878	0.795
-2.437	-7.881	0.801
-2.445	-7.878	0.806
-2.450	-7.871	0.808
-2.343	-7.971	1.024
-2.341	-7.963	1.029
-2.342	-7.954	1.028
-2.344	-7.946	1.023
-2.348	-7.944	1.015
-2.351	-7.947	1.007
-2.353	-7.954	1.002
-2.353	-7.963	1.003
-2.351	-7.971	1.008
-2.347	-7.974	1.016
-2.494	-7.973	1.092
-2.492	-7.966	1.097
-2.492	-7.956	1.097
-2.495	-7.949	1.092
-2.498	-7.946	1.083
-2.502	-7.949	1.075
-2.504	-7.957	1.071
-2.504	-7.966	1.071
-2.501	-7.974	1.076
-2.498	-7.976	1.084
-2.394	-8.110	1.043
-2.392	-8.103	1.048
-2.393	-8.094	1.048
-2.395	-8.086	1.043
-2.398	-8.084	1.034
-2.401	-8.087	1.026
-2.403	-8.094	1.021
-2.402	-8.104	1.021
-2.400	-8.111	1.027
-2.397	-8.114	1.035
-2.593	-8.115	1.118
-2.591	-8.108	1.123
-2.592	-8.098	1.123
-2.594	-8.091	1.118
-2.597	-8.088	1.110
-2.600	-8.092	1.101
-2.602	-8.099	1.096
-2.601	-8.108	1.096
-2.599	-8.116	1.102
-2.596	-8.118	1.110
-2.445	-8.230	1.040
-2.441	-8.226	1.048
-2.439	-8.228	1.056
-2.440	-8.234	1.064
-2.445	-8.241	1.066
-2.450	-8.248	1.063
-2.455	-8.251	1.056
-2.457	-8.250	1.047
-2.455	-8.244	1.040
-2.451	-8.236	1.037
-2.328	-8.309	1.001
-2.323	-8.306	1.008
-2.321	-8.308	1.017
-2.323	-8.313	1.024
-2.327	-8.321	1.027
-2.333	-8.328	1.024
-2.338	-8.331	1.017
-2.340	-8.330	1.008
-2.338	-8.324	1.001
-2.334	-8.316	0.998
-2.510	-8.368	1.068
-2.502	-8.365	1.065
-2.493	-8.366	1.063
-2.487	-8.373	1.062
-2.485	-8.382	1.065
-2.488	-8.389	1.068
-2.496	-8.393	1.071
-2.505	-8.391	1.074
-2.512	-8.385	1.074
-2.513	-8.376	1.072
-2.548	-8.406	0.942
-2.540	-8.402	0.938
-2.532	-8.404	0.936
-2.525	-8.410	0.936
-2.523	-8.419	0.938
-2.527	-8.427	0.941
-2.535	-8.431	0.945
-2.543	-8.429	0.947
-2.550	-8.422	0.947
-2.552	-8.413	0.945
-0.509	-5.229	0.169
-0.507	-5.220	0.171
-0.509	-5.212	0.174
-0.517	-5.207	0.176
[...]
         <CellData>
           <DataArray type="Float32" Name="aerenchymaFormation" NumberOfComponents="1" format="ascii">
 0.000e+00 0.000e+00 0.000e+00 0.000e+00 0.000e+00 0.000e+00 0.000e+00 0.000e+00 0.000e+00 0.000e+00 0.000e+00 0.000e+00 0.000e+00 0.000e+00 0.000e+00 0.000e+00 0.000e+00 0.000e+00 0.000e+00 0.000e+00 0.000e+00 0.000e+00 0.000e+00 0.000e+00 0.000e+00 0.000e+00 0.000e+00 0.000e+00 0.000e+00 0.000e+00 0.000e+00 0.000e+00 0.000e+00 0.000e+00 0.000e+00 0.000e+00 0.000e+00 0.000e+00 4.583e-02 2.000e-02 7.500e-03 0.000e+00 0.000e+00 0.000e+00 0.000e+00 0.000e+00 0.000e+00 0.000e+00 0.000e+00 0.000e+00 0.000e+00 0.000e+00 0.000e+00 0.000e+00 0.000e+00 0.000e+00 0.000e+00 0.000e+00 0.000e+00 0.000e+00 0.000e+00 0.000e+00 0.000e+00 0.000e+00 0.000e+00 0.000e+00 0.000e+00 0.000e+00 0.000e+00 0.000e+00 0.000e+00 0.000e+00 0.000e+00 0.000e+00 0.000e+00 0.000e+00 0.000e+00 0.000e+00 0.000e+00 0.000e+00 0.000e+00 0.000e+00 0.000e+00 0.000e+00 0.000e+00 0.000e+00 0.000e+00 0.000e+00 0.000e+00 0.000e+00 0.000e+00 0.000e+00 0.000e+00 0.000e+00 4.583e-02 2.000e-02 7.500e-03 0.000e+00 0.000e+00 0.000e+00 0.000e+00 0.000e+00 0.000e+00 0.000e+00 0.000e+00 0.000e+00 0.000e+00 0.000e+00 0.000e+00 0.000e+00 0.000e+00 0.000e+00 0.000e+00 0.000e+00 0.000e+00 0.000e+00 0.000e+00 0.000e+00 0.000e+00 0.000e+00 0.000e+00 0.000e+00 0.000e+00 0.000e+00 0.000e+00 0.000e+00 0.000e+00 0.000e+00 0.000e+00 0.000e+00 0.000e+00 0.000e+00 0.000e+00 0.000e+00 0.000e+00 0.000e+00 0.000e+00 0.000e+00 0.000e+00 0.000e+00 0.000e+00 0.000e+00 0.000e+00 0.000e+00 0.000e+00 0.000e+00 0.000e+00 0.000e+00 0.000e+00 4.583e-02 2.000e-02 7.500e-03 0.000e+00 0.000e+00 0.000e+00 0.000e+00 0.000e+00 0.000e+00 0.000e+00 0.000e+00 0.000e+00 0.000e+00 0.000e+00 0.000e+00 0.000e+00 0.000e+00 0.000e+00 0.000e+00 0.000e+00 0.000e+00 0.000e+00 0.000e+00 0.000e+00 0.000e+00 0.000e+00 0.000e+00 0.000e+00 0.000e+00 0.000e+00 0.000e+00 0.000e+00 0.000e+00 0.000e+00 0.000e+00 0.000e+00 0.000e+00 0.000e+00 0.000e+00 0.000e+00 0.000e+00 0.000e+00 0.000e+00 0.000e+00 0.000e+00 0.000e+00 0.000e+00 0.000e+00 0.000e+00 0.000e+00 0.000e+00 0.000e+00 0.000e+00 0.000e+00 0.000e+00 0.000e+00 4.583e-02 2.000e-02 7.500e-03 0.000e+00 0.000e+00 0.000e+00 0.000e+00 0.000e+00 0.000e+00 0.000e+00 0.000e+00 0.000e+00 0.000e+00 0.000e+00 0.000e+00 0.000e+00 0.000e+00 0.000e+00 0.000e+00 0.000e+00 0.000e+00 0.000e+00 0.000e+00 0.000e+00 0.000e+00 0.000e+00 0.000e+00 0.000e+00 0.000e+00 0.000e+00 0.000e+00 0.000e+00 0.000e+00 0.000e+00 0.000e+00 0.000e+00 0.000e+00 0.000e+00 0.000e+00 0.000e+00 0.000e+00 0.000e+00 0.000e+00 0.000e+00 0.000e+00 0.000e+00 0.000e+00 0.000e+00 0.000e+00 0.000e+00 0.000e+00 0.000e+00 0.000e+00 0.000e+00 0.000e+00 0.000e+00 4.287e-02 1.250e-02 0.000e+00 0.000e+00 4.181e-02 1.500e-02 0.000e+00 0.000e+00 0.000e+00 3.227e-02 0.000e+00 0.000e+00 0.000e+00 0.000e+00 0.000e+00 0.000e+00 0.000e+00 0.000e+00 0.000e+00 0.000e+00 0.000e+00 0.000e+00 0.000e+00 3.120e-02 5.000e-03 0.000e+00 0.000e+00 0.000e+00 0.000e+00 0.000e+00 3.014e-02 0.000e+00 0.000e+00 0.000e+00 2.908e-02 0.000e+00 0.000e+00 0.000e+00 2.802e-02 0.000e+00 0.000e+00 0.000e+00 2.696e-02 0.000e+00 0.000e+00 0.000e+00 2.590e-02 0.000e+00 0.000e+00 0.000e+00 2.484e-02 0.000e+00 0.000e+00 0.000e+00 2.378e-02 0.000e+00 0.000e+00 0.000e+00 2.272e-02 0.000e+00 0.000e+00 0.000e+00 4.075e-02 1.000e-02 0.000e+00 0.000e+00 2.166e-02 0.000e+00 0.000e+00 0.000e+00 2.060e-02 0.000e+00 0.000e+00 0.000e+00 1.954e-02 0.000e+00 0.000e+00 0.000e+00 1.848e-02 0.000e+00 0.000e+00 0.000e+00 1.742e-02 0.000e+00 0.000e+00 0.000e+00 1.636e-02 0.000e+00 0.000e+00 0.000e+00 1.529e-02 0.000e+00 0.000e+00 1.423e-02 0.000e+00 0.000e+00 0.000e+00 1.317e-02 0.000e+00 0.000e+00 0.000e+00 1.211e-02 0.000e+00 0.000e+00 0.000e+00 3.969e-02 1.250e-02 0.000e+00 0.000e+00 0.000e+00 1.105e-02 0.000e+00 0.000e+00 0.000e+00 9.992e-03 0.000e+00 0.000e+00 0.000e+00 8.931e-03 0.000e+00 0.000e+00 0.000e+00 7.870e-03 0.000e+00 0.000e+00 0.000e+00 6.810e-03 0.000e+00 0.000e+00 5.749e-03 0.000e+00 0.000e+00 4.688e-03 0.000e+00 0.000e+00 0.000e+00 3.627e-03 0.000e+00 0.000e+00 2.567e-03 0.000e+00 0.000e+00 1.506e-03 0.000e+00 0.000e+00 3.863e-02 1.500e-02 0.000e+00 0.000e+00 0.000e+00 4.455e-04 0.000e+00 0.000e+00 0.000e+00 0.000e+00 0.000e+00 0.000e+00 0.000e+00 0.000e+00 0.000e+00 0.000e+00 0.000e+00 0.000e+00 0.000e+00 0.000e+00 0.000e+00 0.000e+00 0.000e+00 0.000e+00 0.000e+00 0.000e+00 0.000e+00 0.000e+00 0.000e+00 0.000e+00 0.000e+00 0.000e+00 0.000e+00 0.000e+00 0.000e+00 3.757e-02 1.000e-02 0.000e+00 0.000e+00 0.000e+00 0.000e+00 0.000e+00 0.000e+00 0.000e+00 0.000e+00 0.000e+00 0.000e+00 0.000e+00 0.000e+00 0.000e+00 0.000e+00 0.000e+00 0.000e+00 0.000e+00 0.000e+00 0.000e+00 0.000e+00 0.000e+00 0.000e+00 0.000e+00 0.000e+00 0.000e+00 0.000e+00 0.000e+00 0.000e+00 0.000e+00 0.000e+00 3.651e-02 5.000e-03 0.000e+00 0.000e+00 0.000e+00 0.000e+00 0.000e+00 0.000e+00 0.000e+00 0.000e+00 0.000e+00 0.000e+00 0.000e+00 0.000e+00 0.000e+00 0.000e+00 0.000e+00 0.000e+00 0.000e+00 0.000e+00 0.000e+00 0.000e+00 0.000e+00 0.000e+00 0.000e+00 3.545e-02 1.000e-02 0.000e+00 0.000e+00 0.000e+00 0.000e+00 0.000e+00 0.000e+00 0.000e+00 0.000e+00 0.000e+00 0.000e+00 0.000e+00 0.000e+00 0.000e+00 0.000e+00 0.000e+00 0.000e+00 0.000e+00 0.000e+00 0.000e+00 0.000e+00 0.000e+00 0.000e+00 0.000e+00 3.439e-02 1.000e-02 0.000e+00 0.000e+00 0.000e+00 0.000e+00 0.000e+00 0.000e+00 0.000e+00 0.000e+00 0.000e+00 0.000e+00 0.000e+00 0.000e+00 0.000e+00 0.000e+00 0.000e+00 3.333e-02 5.000e-03 0.000e+00 0.000e+00 0.000e+00 0.000e+00 0.000e+00 0.000e+00 0.000e+00 0.000e+00 0.000e+00 0.000e+00 0.000e+00 0.000e+00 0.000e+00 1.753e-02 0.000e+00 0.000e+00 0.000e+00 0.000e+00 0.000e+00 5.270e-03 0.000e+00 0.000e+00 0.000e+00 0.000e+00 0.000e+00 0.000e+00 0.000e+00 0.000e+00 0.000e+00 0.000e+00 9.000e-02 8.700e-02 8.400e-02 8.100e-02 7.800e-02 7.500e-02 7.100e-02 6.800e-02 6.500e-02 6.100e-02 5.800e-02 5.500e-02 5.100e-02 4.500e-02 3.750e-02 3.000e-02 2.250e-02 1.500e-02 7.500e-03 0.000e+00 0.000e+00 0.000e+00 0.000e+00 0.000e+00 0.000e+00 0.000e+00 0.000e+00 0.000e+00 0.000e+00
           </DataArray>
           <DataArray type="Float32" Name="combinedRootClassID" NumberOfComponents="1" format="ascii">
 -1.300e+01 -1.300e+01 -1.300e+01 -1.300e+01 -1.300e+01 -1.300e+01 -1.300e+01 -1.300e+01 -1.300e+01 -1.300e+01 -1.300e+01 -1.300e+01 -1.300e+01 -1.300e+01 -1.300e+01 -1.300e+01 -1.300e+01 -1.300e+01 -1.300e+01 -1.300e+01 -1.300e+01 -1.300e+01 -1.300e+01 -1.300e+01 -1.300e+01 -1.300e+01 -1.300e+01 -1.300e+01 -1.300e+01 -1.300e+01 -1.300e+01 -1.300e+01 -1.300e+01 -1.300e+01 -1.300e+01 -1.300e+01 -1.300e+01 -1.300e+01 -5.000e+00 -5.000e+00 -5.000e+00 -5.000e+00 -5.000e+00 -5.000e+00 -5.000e+00 -5.000e+00 -5.000e+00 -5.000e+00 -5.000e+00 -5.000e+00 -5.000e+00 -5.000e+00 -5.000e+00 -5.000e+00 -5.000e+00 -5.000e+00 -1.300e+01 -1.300e+01 -1.300e+01 -1.300e+01 -1.300e+01 -1.300e+01 -1.300e+01 -1.300e+01 -1.300e+01 -1.300e+01 -1.300e+01 -1.300e+01 -1.300e+01 -1.300e+01 -1.300e+01 -1.300e+01 -1.300e+01 -1.300e+01 -1.300e+01 -1.300e+01 -1.300e+01 -1.300e+01 -1.300e+01 -1.300e+01 -1.300e+01 -1.300e+01 -1.300e+01 -1.300e+01 -1.300e+01 -1.300e+01 -1.300e+01 -1.300e+01 -1.300e+01 -1.300e+01 -1.300e+01 -1.300e+01 -1.300e+01 -1.300e+01 -5.000e+00 -5.000e+00 -5.000e+00 -5.000e+00 -5.000e+00 -5.000e+00 -5.000e+00 -5.000e+00 -5.000e+00 -5.000e+00 -5.000e+00 -5.000e+00 -5.000e+00 -5.000e+00 -5.000e+00 -5.000e+00 -5.000e+00 -5.000e+00 -1.300e+01 -1.300e+01 -1.300e+01 -1.300e+01 -1.300e+01 -1.300e+01 -1.300e+01 -1.300e+01 -1.300e+01 -1.300e+01 -1.300e+01 -1.300e+01 -1.300e+01 -1.300e+01 -1.300e+01 -1.300e+01 -1.300e+01 -1.300e+01 -1.300e+01 -1.300e+01 -1.300e+01 -1.300e+01 -1.300e+01 -1.300e+01 -1.300e+01 -1.300e+01 -1.300e+01 -1.300e+01 -1.300e+01 -1.300e+01 -1.300e+01 -1.300e+01 -1.300e+01 -1.300e+01 -1.300e+01 -1.300e+01 -1.300e+01 -5.000e+00 -5.000e+00 -5.000e+00 -5.000e+00 -5.000e+00 -5.000e+00 -5.000e+00 -5.000e+00 -5.000e+00 -5.000e+00 -5.000e+00 -5.000e+00 -5.000e+00 -5.000e+00 -5.000e+00 -5.000e+00 -5.000e+00 -5.000e+00 -1.300e+01 -1.300e+01 -1.300e+01 -1.300e+01 -1.300e+01 -1.300e+01 -1.300e+01 -1.300e+01 -1.300e+01 -1.300e+01 -1.300e+01 -1.300e+01 -1.300e+01 -1.300e+01 -1.300e+01 -1.300e+01 -1.300e+01 -1.300e+01 -1.300e+01 -1.300e+01 -1.300e+01 -1.300e+01 -1.300e+01 -1.300e+01 -1.300e+01 -1.300e+01 -1.300e+01 -1.300e+01 -1.300e+01 -1.300e+01 -1.300e+01 -1.300e+01 -1.300e+01 -1.300e+01 -1.300e+01 -1.300e+01 -1.300e+01 -1.300e+01 -5.000e+00 -5.000e+00 -5.000e+00 -5.000e+00 -5.000e+00 -5.000e+00 -5.000e+00 -5.000e+00 -5.000e+00 -5.000e+00 -5.000e+00 -5.000e+00 -5.000e+00 -5.000e+00 -5.000e+00 -5.000e+00 -5.000e+00 -5.000e+00 -1.100e+01 -1.100e+01 -1.100e+01 -1.100e+01 -1.100e+01 -1.100e+01 -1.100e+01 -1.100e+01 -1.100e+01 -1.100e+01 -1.100e+01 -1.100e+01 -1.100e+01 -1.100e+01 -1.100e+01 -1.100e+01 -1.100e+01 -1.100e+01 -1.100e+01 -1.100e+01 -1.100e+01 -1.100e+01 -1.100e+01 -1.100e+01 -1.100e+01 -1.100e+01 -1.100e+01 -1.100e+01 -2.000e+00 -2.000e+00 -2.000e+00 -2.000e+00 -2.000e+00 -2.000e+00 -2.000e+00 -2.000e+00 -2.000e+00 -2.000e+00 -7.000e+00 -7.000e+00 -7.000e+00 -7.000e+00 -7.000e+00 -7.000e+00 -7.000e+00 -7.000e+00 -7.000e+00 -7.000e+00 -7.000e+00 -7.000e+00 -7.000e+00 -7.000e+00 -7.000e+00 -7.000e+00 -7.000e+00 -7.000e+00 -7.000e+00 -7.000e+00 -7.000e+00 -7.000e+00 -7.000e+00 -7.000e+00 -7.000e+00 -7.000e+00 -7.000e+00 -7.000e+00 -7.000e+00 -7.000e+00 -7.000e+00 -7.000e+00 -7.000e+00 -7.000e+00 -7.000e+00 -7.000e+00 -7.000e+00 -7.000e+00 -7.000e+00 -7.000e+00 -7.000e+00 -7.000e+00 -7.000e+00 -7.000e+00 -7.000e+00 -7.000e+00 -7.000e+00 -7.000e+00 -7.000e+00 -7.000e+00 -7.000e+00 -7.000e+00 -7.000e+00 -7.000e+00 -7.000e+00 -7.000e+00 -7.000e+00 -7.000e+00 -7.000e+00 -7.000e+00 -7.000e+00 -7.000e+00 -7.000e+00 -7.000e+00 -7.000e+00 -7.000e+00 -7.000e+00 -7.000e+00 -7.000e+00 -7.000e+00 -7.000e+00 -7.000e+00 -7.000e+00 -7.000e+00 -7.000e+00 -7.000e+00 -7.000e+00 -7.000e+00 -7.000e+00 -7.000e+00 -7.000e+00 -7.000e+00 -7.000e+00 -7.000e+00 -7.000e+00 -7.000e+00 -7.000e+00 -7.000e+00 -7.000e+00 -7.000e+00 -7.000e+00 -7.000e+00 -7.000e+00 -7.000e+00 -7.000e+00 -7.000e+00 -7.000e+00 -7.000e+00 -7.000e+00 -7.000e+00 -7.000e+00 -7.000e+00 -7.000e+00 -7.000e+00 -7.000e+00 -7.000e+00 -7.000e+00 -7.000e+00 -7.000e+00 -7.000e+00 -7.000e+00 -7.000e+00 -7.000e+00 -7.000e+00 -7.000e+00 -7.000e+00 -7.000e+00 -7.000e+00 -7.000e+00 -7.000e+00 -7.000e+00 -7.000e+00 -7.000e+00 -7.000e+00 -7.000e+00 -7.000e+00 -7.000e+00 -7.000e+00 -7.000e+00 -7.000e+00 -7.000e+00 -7.000e+00 -7.000e+00 -7.000e+00 -7.000e+00 -7.000e+00 -7.000e+00 -7.000e+00 -7.000e+00 -7.000e+00 -7.000e+00 -7.000e+00 -7.000e+00 -7.000e+00 -7.000e+00 -7.000e+00 -7.000e+00 -7.000e+00 -7.000e+00 -7.000e+00 -7.000e+00 -7.000e+00 -7.000e+00 -7.000e+00 -7.000e+00 -7.000e+00 -7.000e+00 -7.000e+00 -7.000e+00 -7.000e+00 -7.000e+00 -7.000e+00 -7.000e+00 -7.000e+00 -7.000e+00 -7.000e+00 -7.000e+00 -7.000e+00 -7.000e+00 -7.000e+00 -7.000e+00 -7.000e+00 -7.000e+00 -7.000e+00 -7.000e+00 -7.000e+00 -7.000e+00 -7.000e+00 -7.000e+00 -7.000e+00 -7.000e+00 -7.000e+00 -7.000e+00 -7.000e+00 -7.000e+00 -7.000e+00 -7.000e+00 -7.000e+00 -7.000e+00 -7.000e+00 -7.000e+00 -7.000e+00 -7.000e+00 -7.000e+00 -7.000e+00 -7.000e+00 -7.000e+00 -7.000e+00 -7.000e+00 -7.000e+00 -7.000e+00 -7.000e+00 -7.000e+00 -7.000e+00 -7.000e+00 -7.000e+00 -7.000e+00 -7.000e+00 -7.000e+00 -7.000e+00 -7.000e+00 -7.000e+00 -7.000e+00 -7.000e+00 -7.000e+00 -7.000e+00 -7.000e+00 -7.000e+00 -7.000e+00 -7.000e+00 -7.000e+00 -7.000e+00 -7.000e+00 -7.000e+00 -7.000e+00 -7.000e+00 -7.000e+00 -7.000e+00 -7.000e+00 -7.000e+00 -7.000e+00 -7.000e+00 -7.000e+00 -7.000e+00 -7.000e+00 -7.000e+00 -7.000e+00 -7.000e+00 -7.000e+00 -7.000e+00 -7.000e+00 -7.000e+00 -7.000e+00 -7.000e+00 -7.000e+00 -7.000e+00 -7.000e+00 -7.000e+00 -7.000e+00 -7.000e+00 -7.000e+00 -7.000e+00 -7.000e+00 -7.000e+00 -7.000e+00 -7.000e+00 -7.000e+00 -7.000e+00 -7.000e+00 -7.000e+00 -7.000e+00 -7.000e+00 -7.000e+00 -7.000e+00 -7.000e+00 -7.000e+00 -7.000e+00 -7.000e+00 -7.000e+00 -7.000e+00 -7.000e+00 -7.000e+00 -7.000e+00 -7.000e+00 -7.000e+00 -7.000e+00 -7.000e+00 -7.000e+00 -7.000e+00 -7.000e+00 -7.000e+00 -7.000e+00 -7.000e+00 -7.000e+00 -7.000e+00 -7.000e+00 -7.000e+00 -7.000e+00 -7.000e+00 -7.000e+00 -7.000e+00 -7.000e+00 -7.000e+00 -1.500e+01 -9.000e+00 -9.000e+00 -9.000e+00 -9.000e+00 -9.000e+00 -9.000e+00 -9.000e+00 -9.000e+00 -9.000e+00 -9.000e+00 -9.000e+00 -9.000e+00 -9.000e+00 -9.000e+00 -9.000e+00 -9.000e+00 -9.000e+00 -4.000e+00 -4.000e+00 -4.000e+00 -4.000e+00 -4.000e+00 -4.000e+00 -4.000e+00 -4.000e+00 -4.000e+00 -4.000e+00 -4.000e+00 -4.000e+00 -4.000e+00 -4.000e+00 -4.000e+00 -4.000e+00 -4.000e+00 -4.000e+00 -4.000e+00 -4.000e+00 -4.000e+00 -4.000e+00 -4.000e+00 -4.000e+00 -4.000e+00 -4.000e+00 -4.000e+00 -4.000e+00 -4.000e+00
           </DataArray>
           <DataArray type="Float32" Name="nitrate/Cmin" NumberOfComponents="1" format="ascii">
 1.000e-03 1.000e-03 1.000e-03 1.000e-03 1.000e-03 1.000e-03 1.000e-03 1.000e-03 1.000e-03 1.000e-03 1.000e-03 1.000e-03 1.000e-03 1.000e-03 1.000e-03 1.000e-03 1.000e-03 1.000e-03 1.000e-03 1.000e-03 1.000e-03 1.000e-03 1.000e-03 1.000e-03 1.000e-03 1.000e-03 1.000e-03 1.000e-03 1.000e-03 1.000e-03 1.000e-03 1.000e-03 1.000e-03 1.000e-03 1.000e-03 1.000e-03 1.000e-03 1.000e-03 1.000e-03 1.000e-03 1.000e-03 1.000e-03 1.000e-03 1.000e-03 1.000e-03 1.000e-03 1.000e-03 1.000e-03 1.000e-03 1.000e-03 1.000e-03 1.000e-03 1.000e-03 1.000e-03 1.000e-03 1.000e-03 1.000e-03 1.000e-03 1.000e-03 1.000e-03 1.000e-03 1.000e-03 1.000e-03 1.000e-03 1.000e-03 1.000e-03 1.000e-03 1.000e-03 1.000e-03 1.000e-03 1.000e-03 1.000e-03 1.000e-03 1.000e-03 1.000e-03 1.000e-03 1.000e-03 1.000e-03 1.000e-03 1.000e-03 1.000e-03 1.000e-03 1.000e-03 1.000e-03 1.000e-03 1.000e-03 1.000e-03 1.000e-03 1.000e-03 1.000e-03 1.000e-03 1.000e-03 1.000e-03 1.000e-03 1.000e-03 1.000e-03 1.000e-03 1.000e-03 1.000e-03 1.000e-03 1.000e-03 1.000e-03 1.000e-03 1.000e-03 1.000e-03 1.000e-03 1.000e-03 1.000e-03 1.000e-03 1.000e-03 1.000e-03 1.000e-03 1.000e-03 1.000e-03 1.000e-03 1.000e-03 1.000e-03 1.000e-03 1.000e-03 1.000e-03 1.000e-03 1.000e-03 1.000e-03 1.000e-03 1.000e-03 1.000e-03 1.000e-03 1.000e-03 1.000e-03 1.000e-03 1.000e-03 1.000e-03 1.000e-03 1.000e-03 1.000e-03 1.000e-03 1.000e-03 1.000e-03 1.000e-03 1.000e-03 1.000e-03 1.000e-03 1.000e-03 1.000e-03 1.000e-03 1.000e-03 1.000e-03 1.000e-03 1.000e-03 1.000e-03 1.000e-03 1.000e-03 1.000e-03 1.000e-03 1.000e-03 1.000e-03 1.000e-03 1.000e-03 1.000e-03 1.000e-03 1.000e-03 1.000e-03 1.000e-03 1.000e-03 1.000e-03 1.000e-03 1.000e-03 1.000e-03 1.000e-03 1.000e-03 1.000e-03 1.000e-03 1.000e-03 1.000e-03 1.000e-03 1.000e-03 1.000e-03 1.000e-03 1.000e-03 1.000e-03 1.000e-03 1.000e-03 1.000e-03 1.000e-03 1.000e-03 1.000e-03 1.000e-03 1.000e-03 1.000e-03 1.000e-03 1.000e-03 1.000e-03 1.000e-03 1.000e-03 1.000e-03 1.000e-03 1.000e-03 1.000e-03 1.000e-03 1.000e-03 1.000e-03 1.000e-03 1.000e-03 1.000e-03 1.000e-03 1.000e-03 1.000e-03 1.000e-03 1.000e-03 1.000e-03 1.000e-03 1.000e-03 1.000e-03 1.000e-03 1.000e-03 1.000e-03 1.000e-03 1.000e-03 1.000e-03 1.000e-03 1.000e-03 1.000e-03 1.000e-03 1.000e-03 1.000e-03 1.000e-03 1.000e-03 1.000e-03 1.000e-03 1.000e-03 1.000e-03 1.000e-03 1.000e-03 1.000e-03 1.000e-03 1.000e-03 1.000e-03 1.000e-03 1.000e-03 1.000e-03 1.000e-03 1.000e-03 1.000e-03 1.000e-03 1.000e-03 1.000e-03 1.000e-03 1.000e-03 1.000e-03 1.000e-03 1.000e-03 1.000e-03 1.000e-03 1.000e-03 1.000e-03 1.000e-03 1.000e-03 1.000e-03 1.000e-03 1.000e-03 1.000e-03 1.000e-03 1.000e-03 1.000e-03 1.000e-03 1.000e-03 1.000e-03 1.000e-03 1.000e-03 1.000e-03 1.000e-03 1.000e-03 1.000e-03 1.000e-03 1.000e-03 1.000e-03 1.000e-03 1.000e-03 1.000e-03 1.000e-03 1.000e-03 1.000e-03 1.000e-03 1.000e-03 1.000e-03 1.000e-03 1.000e-03 1.000e-03 1.000e-03 1.000e-03 1.000e-03 1.000e-03 1.000e-03 1.000e-03 1.000e-03 1.000e-03 1.000e-03 1.000e-03 1.000e-03 1.000e-03 1.000e-03 1.000e-03 1.000e-03 1.000e-03 1.000e-03 1.000e-03 1.000e-03 1.000e-03 1.000e-03 1.000e-03 1.000e-03 1.000e-03 1.000e-03 1.000e-03 1.000e-03 1.000e-03 1.000e-03 1.000e-03 1.000e-03 1.000e-03 1.000e-03 1.000e-03 1.000e-03 1.000e-03 1.000e-03 1.000e-03 1.000e-03 1.000e-03 1.000e-03 1.000e-03 1.000e-03 1.000e-03 1.000e-03 1.000e-03 1.000e-03 1.000e-03 1.000e-03 1.000e-03 1.000e-03 1.000e-03 1.000e-03 1.000e-03 1.000e-03 1.000e-03 1.000e-03 1.000e-03 1.000e-03 1.000e-03 1.000e-03 1.000e-03 1.000e-03 1.000e-03 1.000e-03 1.000e-03 1.000e-03 1.000e-03 1.000e-03 1.000e-03 1.000e-03 1.000e-03 1.000e-03 1.000e-03 1.000e-03 1.000e-03 1.000e-03 1.000e-03 1.000e-03 1.000e-03 1.000e-03 1.000e-03 1.000e-03 1.000e-03 1.000e-03 1.000e-03 1.000e-03 1.000e-03 1.000e-03 1.000e-03 1.000e-03 1.000e-03 1.000e-03 1.000e-03 1.000e-03 1.000e-03 1.000e-03 1.000e-03 1.000e-03 1.000e-03 1.000e-03 1.000e-03 1.000e-03 1.000e-03 1.000e-03 1.000e-03 1.000e-03 1.000e-03 1.000e-03 1.000e-03 1.000e-03 1.000e-03 1.000e-03 1.000e-03 1.000e-03 1.000e-03 1.000e-03 1.000e-03 1.000e-03 1.000e-03 1.000e-03 1.000e-03 1.000e-03 1.000e-03 1.000e-03 1.000e-03 1.000e-03 1.000e-03 1.000e-03 1.000e-03 1.000e-03 1.000e-03 1.000e-03 1.000e-03 1.000e-03 1.000e-03 1.000e-03 1.000e-03 1.000e-03 1.000e-03 1.000e-03 1.000e-03 1.000e-03 1.000e-03 1.000e-03 1.000e-03 1.000e-03 1.000e-03 1.000e-03 1.000e-03 1.000e-03 1.000e-03 1.000e-03 1.000e-03 1.000e-03 1.000e-03 1.000e-03 1.000e-03 1.000e-03 1.000e-03 1.000e-03 1.000e-03 1.000e-03 1.000e-03 1.000e-03 1.000e-03 1.000e-03 1.000e-03 1.000e-03 1.000e-03 1.000e-03 1.000e-03 1.000e-03 1.000e-03 1.000e-03 1.000e-03 1.000e-03 1.000e-03 1.000e-03 1.000e-03 1.000e-03 1.000e-03 1.000e-03 1.000e-03 1.000e-03 1.000e-03 1.000e-03 1.000e-03 1.000e-03 1.000e-03 1.000e-03 1.000e-03 1.000e-03 1.000e-03 1.000e-03 1.000e-03 1.000e-03 1.000e-03 1.000e-03 1.000e-03 1.000e-03 1.000e-03 1.000e-03 1.000e-03 1.000e-03 1.000e-03 1.000e-03 1.000e-03 1.000e-03 1.000e-03 1.000e-03 1.000e-03 1.000e-03 1.000e-03 1.000e-03 1.000e-03 1.000e-03 1.000e-03 1.000e-03 1.000e-03 1.000e-03 1.000e-03 1.000e-03 1.000e-03 1.000e-03 1.000e-03 1.000e-03 1.000e-03 1.000e-03 1.000e-03 1.000e-03 1.000e-03 1.000e-03 1.000e-03 1.000e-03 1.000e-03 1.000e-03 1.000e-03 1.000e-03 1.000e-03 1.000e-03 1.000e-03 1.000e-03 1.000e-03 1.000e-03 1.000e-03 1.000e-03 1.000e-03 1.000e-03 1.000e-03 1.000e-03 1.000e-03 1.000e-03 1.000e-03 1.000e-03 1.000e-03 1.000e-03 1.000e-03 1.000e-03 1.000e-03 1.000e-03 1.000e-03 1.000e-03 1.000e-03 1.000e-03 1.000e-03 1.000e-03 1.000e-03 1.000e-03 1.000e-03 1.000e-03 1.000e-03 1.000e-03 1.000e-03 1.000e-03 1.000e-03 1.000e-03 1.000e-03 1.000e-03 1.000e-03 1.000e-03 1.000e-03 1.000e-03 1.000e-03 1.000e-03 1.000e-03 1.000e-03 1.000e-03 1.000e-03 1.000e-03 1.000e-03 1.000e-03 1.000e-03 1.000e-03 1.000e-03 1.000e-03 1.000e-03 1.000e-03 1.000e-03 1.000e-03 1.000e-03 1.000e-03 1.000e-03 1.000e-03 1.000e-03 1.000e-03 1.000e-03 1.000e-03 1.000e-03 1.000e-03 1.000e-03 1.000e-03 1.000e-03
           </DataArray>
           <DataArray type="Float32" Name="nitrate/Imax" NumberOfComponents="1" format="ascii">