<?xml version="1.0"?>
<VTKFile type="UnstructuredGrid" version="0.1" byte_order="LittleEndian">
   <UnstructuredGrid>
      <Piece NumberOfPoints="210" NumberOfCells="19">
         <Points>
            <DataArray type="Float32" Name="Position" NumberOfComponents="3" format="ascii">
-0.141	-5.004	0.145
-0.029	-5.002	0.200
0.094	-4.998	0.179
0.181	-4.996	0.089
0.199	-4.995	-0.035
0.141	-4.996	-0.145
0.029	-4.998	-0.200
-0.094	-5.002	-0.179
-0.181	-5.004	-0.089
-0.199	-5.005	0.035
-0.160	-4.253	0.147
-0.049	-4.251	0.203
0.074	-4.250	0.182
0.161	-4.248	0.093
0.180	-4.247	-0.030
0.122	-4.248	-0.140
0.011	-4.249	-0.196
-0.112	-4.251	-0.175
-0.199	-4.253	-0.086
-0.217	-4.253	0.037
-0.165	-3.291	0.148
-0.054	-3.290	0.204
0.068	-3.290	0.184
0.156	-3.290	0.096
0.175	-3.290	-0.026
0.119	-3.290	-0.137
0.008	-3.290	-0.193
-0.115	-3.291	-0.174
-0.202	-3.291	-0.086
-0.222	-3.291	0.037
-0.167	-2.400	0.145
-0.056	-2.400	0.201
0.066	-2.400	0.182
0.154	-2.400	0.094
0.173	-2.401	-0.028
0.117	-2.401	-0.139
0.007	-2.401	-0.195
-0.116	-2.400	-0.176
-0.204	-2.400	-0.088
-0.223	-2.400	0.034
-0.164	-1.800	0.146
-0.054	-1.801	0.202
0.068	-1.801	0.182
0.156	-1.801	0.095
0.175	-1.801	-0.028
0.119	-1.800	-0.138
0.009	-1.800	-0.194
-0.114	-1.800	-0.175
-0.201	-1.800	-0.087
-0.221	-1.800	0.035
-0.164	-1.201	0.148
-0.054	-1.201	0.204
0.068	-1.201	0.184
0.156	-1.200	0.096
0.175	-1.200	-0.026
0.118	-1.200	-0.136
0.008	-1.200	-0.192
-0.115	-1.200	-0.173
-0.202	-1.200	-0.085
-0.221	-1.201	0.038
-0.168	-0.301	0.150
-0.058	-0.301	0.206
0.065	-0.301	0.187
0.152	-0.300	0.099
0.171	-0.300	-0.023
0.115	-0.300	-0.133
0.005	-0.300	-0.189
-0.118	-0.300	-0.170
-0.205	-0.300	-0.082
-0.224	-0.301	0.040
-0.167	0.560	0.150
-0.057	0.560	0.206
0.066	0.559	0.187
0.153	0.559	0.100
0.173	0.559	-0.023
0.116	0.559	-0.133
0.006	0.560	-0.189
-0.116	0.560	-0.170
-0.203	0.560	-0.082
-0.223	0.560	0.040
-0.165	1.440	0.151
-0.054	1.440	0.207
0.068	1.440	0.188
0.155	1.440	0.100
0.175	1.440	-0.022
0.118	1.439	-0.132
0.008	1.439	-0.188
-0.114	1.440	-0.169
-0.201	1.440	-0.081
-0.221	1.440	0.041
-0.165	2.141	0.008
-0.055	2.197	0.008
0.067	2.178	0.008
0.154	2.090	0.008
0.173	1.968	0.008
0.117	1.858	0.008
0.007	1.802	0.008
-0.115	1.821	0.008
-0.202	1.909	0.008
-0.222	2.031	0.008
0.032	-4.999	-0.033
0.045	-5.001	-0.008
0.041	-5.002	0.021
0.021	-5.002	0.041
-0.007	-5.002	0.046
-0.032	-5.001	0.033
-0.045	-4.999	0.008
-0.041	-4.998	-0.021
-0.021	-4.998	-0.041
0.007	-4.998	-0.046
0.015	-5.705	-0.060
0.029	-5.706	-0.035
0.025	-5.708	-0.007
0.006	-5.709	0.013
-0.022	-5.709	0.018
-0.048	-5.708	0.006
-0.061	-5.706	-0.019
-0.058	-5.705	-0.047
-0.038	-5.704	-0.067
-0.010	-5.704	-0.072
0.011	-6.408	-0.120
0.025	-6.410	-0.096
0.021	-6.411	-0.068
0.002	-6.413	-0.047
-0.026	-6.413	-0.042
-0.051	-6.413	-0.054
-0.065	-6.412	-0.078
-0.062	-6.410	-0.106
-0.042	-6.409	-0.127
-0.015	-6.408	-0.132
0.033	-7.115	-0.143
0.047	-7.116	-0.118
0.043	-7.117	-0.090
0.024	-7.118	-0.070
-0.004	-7.119	-0.065
-0.029	-7.119	-0.077
-0.043	-7.118	-0.102
-0.039	-7.117	-0.130
-0.020	-7.116	-0.150
0.008	-7.115	-0.155
0.033	-7.822	-0.167
0.046	-7.824	-0.142
0.042	-7.825	-0.114
0.023	-7.825	-0.094
-0.005	-7.825	-0.089
-0.030	-7.824	-0.102
-0.043	-7.823	-0.126
-0.039	-7.822	-0.154
-0.020	-7.821	-0.174
0.008	-7.822	-0.179
0.018	-8.528	-0.203
0.032	-8.529	-0.178
0.028	-8.530	-0.151
0.009	-8.531	-0.130
-0.019	-8.531	-0.125
-0.044	-8.531	-0.137
-0.057	-8.530	-0.162
-0.054	-8.529	-0.189
-0.034	-8.528	-0.210
-0.007	-8.527	-0.215
0.047	-9.466	-0.243
0.060	-9.466	-0.219
0.057	-9.467	-0.191
0.038	-9.468	-0.171
0.011	-9.470	-0.165
-0.015	-9.471	-0.177
-0.028	-9.472	-0.201
-0.025	-9.471	-0.229
-0.006	-9.470	-0.250
0.021	-9.468	-0.255
0.114	-10.168	-0.236
0.128	-10.167	-0.212
0.126	-10.168	-0.184
0.107	-10.170	-0.164
0.080	-10.173	-0.158
0.055	-10.176	-0.169
0.041	-10.177	-0.193
0.044	-10.176	-0.221
0.062	-10.174	-0.242
0.089	-10.171	-0.247
0.201	-10.867	-0.261
0.216	-10.866	-0.238
0.214	-10.868	-0.210
0.196	-10.872	-0.189
0.170	-10.876	-0.182
0.144	-10.879	-0.192
0.129	-10.879	-0.216
0.131	-10.877	-0.244
0.148	-10.873	-0.265
0.175	-10.869	-0.272
0.332	-11.793	-0.358
0.348	-11.793	-0.335
0.347	-11.796	-0.307
0.330	-11.801	-0.286
0.303	-11.805	-0.279
0.277	-11.808	-0.289
0.262	-11.807	-0.312
0.263	-11.804	-0.340
0.280	-11.800	-0.361
0.307	-11.796	-0.368
0.362	-12.027	-0.380
0.377	-12.027	-0.356
0.376	-12.029	-0.329
0.359	-12.034	-0.307
0.332	-12.038	-0.300
0.306	-12.040	-0.310
0.291	-12.040	-0.334
0.292	-12.037	-0.361
0.310	-12.033	-0.383
0.336	-12.029	-0.390
		    </DataArray>
         </Points>
         <Cells>
            <DataArray type="Int32" Name="connectivity" NumberOfComponents="1" format="ascii">
 0 10 1 11 2 12 3 13 4 14 5 15 6 16 7 17 8 18 9 19 0 10
 10 20 11 21 12 22 13 23 14 24 15 25 16 26 17 27 18 28 19 29 10 20
 20 30 21 31 22 32 23 33 24 34 25 35 26 36 27 37 28 38 29 39 20 30
 30 40 31 41 32 42 33 43 34 44 35 45 36 46 37 47 38 48 39 49 30 40
 40 50 41 51 42 52 43 53 44 54 45 55 46 56 47 57 48 58 49 59 40 50
 50 60 51 61 52 62 53 63 54 64 55 65 56 66 57 67 58 68 59 69 50 60
 60 70 61 71 62 72 63 73 64 74 65 75 66 76 67 77 68 78 69 79 60 70
 70 80 71 81 72 82 73 83 74 84 75 85 76 86 77 87 78 88 79 89 70 80
 80 90 81 91 82 92 83 93 84 94 85 95 86 96 87 97 88 98 89 99 80 90
 100 110 101 111 102 112 103 113 104 114 105 115 106 116 107 117 108 118 109 119 100 110
 110 120 111 121 112 122 113 123 114 124 115 125 116 126 117 127 118 128 119 129 110 120
 120 130 121 131 122 132 123 133 124 134 125 135 126 136 127 137 128 138 129 139 120 130
 130 140 131 141 132 142 133 143 134 144 135 145 136 146 137 147 138 148 139 149 130 140
 140 150 141 151 142 152 143 153 144 154 145 155 146 156 147 157 148 158 149 159 140 150
 150 160 151 161 152 162 153 163 154 164 155 165 156 166 157 167 158 168 159 169 150 160
 160 170 161 171 162 172 163 173 164 174 165 175 166 176 167 177 168 178 169 179 160 170
 170 180 171 181 172 182 173 183 174 184 175 185 176 186 177 187 178 188 179 189 170 180
 180 190 181 191 182 192 183 193 184 194 185 195 186 196 187 197 188 198 189 199 180 190
 190 200 191 201 192 202 193 203 194 204 195 205 196 206 197 207 198 208 199 209 190 200

            </DataArray>
            <DataArray type="Int32" Name="offsets" NumberOfComponents="1" format="ascii">
 22 44 66 88 110 132 154 176 198 220 242 264 286 308 330 352 374 396 418
            </DataArray>
            <DataArray type="UInt8"  Name="types" NumberOfComponents="1" format="ascii">
6 6 6 6 6 6 6 6 6 6 6 6 6 6 6 6 6 6 6
            </DataArray>
         </Cells>
         <CellData>
           <DataArray type="Float32" Name="aerenchymaFormation" NumberOfComponents="1" format="ascii">
 0.000e+00 0.000e+00 0.000e+00 0.000e+00 0.000e+00 0.000e+00 0.000e+00 0.000e+00 0.000e+00 0.000e+00 0.000e+00 0.000e+00 0.000e+00 0.000e+00 0.000e+00 0.000e+00 0.000e+00 0.000e+00 0.000e+00
           </DataArray>
           <DataArray type="Float32" Name="combinedRootClassID" NumberOfComponents="1" format="ascii">
 -2.000e+00 -2.000e+00 -2.000e+00 -2.000e+00 -2.000e+00 -2.000e+00 -2.000e+00 -2.000e+00 -2.000e+00 -4.000e+00 -4.000e+00 -4.000e+00 -4.000e+00 -4.000e+00 -4.000e+00 -4.000e+00 -4.000e+00 -4.000e+00 -4.000e+00
           </DataArray>
           <DataArray type="Float32" Name="nitrate/Cmin" NumberOfComponents="1" format="ascii">
 1.000e-03 1.000e-03 1.000e-03 1.000e-03 1.000e-03 1.000e-03 1.000e-03 1.000e-03 1.000e-03 1.000e-03 1.000e-03 1.000e-03 1.000e-03 1.000e-03 1.000e-03 1.000e-03 1.000e-03 1.000e-03 1.000e-03
           </DataArray>
           <DataArray type="Float32" Name="nitrate/Imax" NumberOfComponents="1" format="ascii">
 1.900e+00 1.900e+00 1.900e+00 1.900e+00 1.900e+00 1.900e+00 1.900e+00 1.900e+00 1.900e+00 1.900e+00 1.900e+00 1.900e+00 1.900e+00 1.900e+00 1.900e+00 1.900e+00 1.900e+00 1.900e+00 1.900e+00
           </DataArray>
           <DataArray type="Float32" Name="nitrate/Km" NumberOfComponents="1" format="ascii">
 1.610e-02 1.610e-02 1.610e-02 1.610e-02 1.610e-02 1.610e-02 1.610e-02 1.610e-02 1.610e-02 1.610e-02 1.610e-02 1.610e-02 1.610e-02 1.610e-02 1.610e-02 1.610e-02 1.610e-02 1.610e-02 1.610e-02
           </DataArray>
           <DataArray type="Float32" Name="nitrate/minimalNutrientConcentration" NumberOfComponents="1" format="ascii">
 6.000e+02 6.000e+02 6.000e+02 6.000e+02 6.000e+02 6.000e+02 6.000e+02 6.000e+02 6.000e+02 6.000e+02 6.000e+02 6.000e+02 6.000e+02 6.000e+02 6.000e+02 6.000e+02 6.000e+02 6.000e+02 6.000e+02
           </DataArray>
           <DataArray type="Float32" Name="nitrate/nutrientConcentrationAtTheRootSurface" NumberOfComponents="1" format="ascii">
 1.951e+00 1.752e+00 1.457e+00 1.152e+00 9.264e-01 7.502e-01 4.577e-01 0.000e+00 0.000e+00 1.951e+00 2.113e+00 2.255e+00 2.393e+00 2.492e+00 2.629e+00 2.804e+00 2.945e+00 3.087e+00 3.122e+00
           </DataArray>
           <DataArray type="Float32" Name="nitrate/optimalNutrientConcentration" NumberOfComponents="1" format="ascii">
 1.200e+03 1.200e+03 1.200e+03 1.200e+03 1.200e+03 1.200e+03 1.200e+03 1.200e+03 1.200e+03 1.200e+03 1.200e+03 1.200e+03 1.200e+03 1.200e+03 1.200e+03 1.200e+03 1.200e+03 1.200e+03 1.200e+03
           </DataArray>
           <DataArray type="Float32" Name="nitrate/rootSegmentMinimalNutrientContent" NumberOfComponents="1" format="ascii">
 5.421e+00 6.897e+00 6.369e+00 4.283e+00 4.276e+00 6.406e+00 6.111e+00 6.246e+00 3.970e+00 2.666e-01 2.641e-01 2.619e-01 2.600e-01 2.583e-01 3.425e-01 2.554e-01 2.546e-01 3.387e-01 8.457e-02
           </DataArray>
           <DataArray type="Float32" Name="nitrate/rootSegmentNutrientUptake" NumberOfComponents="1" format="ascii">
 0.000e+00 2.949e+00 2.379e+00 1.899e+00 1.529e+00 1.145e+00 4.429e-01 5.794e-02 0.000e+00 0.000e+00 9.882e-01 8.732e-01 7.585e-01 6.441e-01 6.816e-01 3.783e-01 2.647e-01 1.764e-01 1.260e-02
           </DataArray>
           <DataArray type="Float32" Name="nitrate/rootSegmentOptimalNutrientContent" NumberOfComponents="1" format="ascii">
 1.084e+01 1.379e+01 1.274e+01 8.565e+00 8.553e+00 1.281e+01 1.222e+01 1.249e+01 7.941e+00 5.331e-01 5.282e-01 5.238e-01 5.199e-01 5.166e-01 6.850e-01 5.108e-01 5.092e-01 6.775e-01 1.691e-01
           </DataArray>
           <DataArray type="Float32" Name="parentRootClassID" NumberOfComponents="1" format="ascii">
 -3.000e+00 -3.000e+00 -3.000e+00 -3.000e+00 -3.000e+00 -3.000e+00 -3.000e+00 -3.000e+00 -3.000e+00 -3.000e+00 -3.000e+00 -3.000e+00 -3.000e+00 -3.000e+00 -3.000e+00 -3.000e+00 -3.000e+00 -3.000e+00 -3.000e+00
           </DataArray>
           <DataArray type="Float32" Name="plantID" NumberOfComponents="1" format="ascii">
 4.000e+00 4.000e+00 4.000e+00 4.000e+00 4.000e+00 4.000e+00 4.000e+00 4.000e+00 4.000e+00 4.000e+00 4.000e+00 4.000e+00 4.000e+00 4.000e+00 4.000e+00 4.000e+00 4.000e+00 4.000e+00 4.000e+00
           </DataArray>
           <DataArray type="Float32" Name="plantTypeID" NumberOfComponents="1" format="ascii">
 0.000e+00 0.000e+00 0.000e+00 0.000e+00 0.000e+00 0.000e+00 0.000e+00 0.000e+00 0.000e+00 0.000e+00 0.000e+00 0.000e+00 0.000e+00 0.000e+00 0.000e+00 0.000e+00 0.000e+00 0.000e+00 0.000e+00
           </DataArray>
           <DataArray type="Float32" Name="potassium/Cmin" NumberOfComponents="1" format="ascii">
 2.000e-03 2.000e-03 2.000e-03 2.000e-03 2.000e-03 2.000e-03 2.000e-03 2.000e-03 2.000e-03 2.000e-03 2.000e-03 2.000e-03 2.000e-03 2.000e-03 2.000e-03 2.000e-03 2.000e-03 2.000e-03 2.000e-03
           </DataArray>
           <DataArray type="Float32" Name="potassium/Imax" NumberOfComponents="1" format="ascii">
 4.670e-01 4.670e-01 4.670e-01 4.670e-01 4.670e-01 4.670e-01 4.670e-01 4.670e-01 4.670e-01 4.670e-01 4.670e-01 4.670e-01 4.670e-01 4.670e-01 4.670e-01 4.670e-01 4.670e-01 4.670e-01 4.670e-01
           </DataArray>
           <DataArray type="Float32" Name="potassium/Km" NumberOfComponents="1" format="ascii">
 3.900e-02 3.900e-02 3.900e-02 3.900e-02 3.900e-02 3.900e-02 3.900e-02 3.900e-02 3.900e-02 3.900e-02 3.900e-02 3.900e-02 3.900e-02 3.900e-02 3.900e-02 3.900e-02 3.900e-02 3.900e-02 3.900e-02
           </DataArray>
           <DataArray type="Float32" Name="potassium/minimalNutrientConcentration" NumberOfComponents="1" format="ascii">
 1.680e+02 1.680e+02 1.680e+02 1.680e+02 1.680e+02 1.680e+02 1.680e+02 1.680e+02 1.680e+02 1.680e+02 1.680e+02 1.680e+02 1.680e+02 1.680e+02 1.680e+02 1.680e+02 1.680e+02 1.680e+02 1.680e+02
           </DataArray>
           <DataArray type="Float32" Name="potassium/nutrientConcentrationAtTheRootSurface" NumberOfComponents="1" format="ascii">
 1.493e-01 1.493e-01 1.492e-01 1.492e-01 1.491e-01 1.492e-01 1.450e-01 0.000e+00 0.000e+00 1.493e-01 1.492e-01 1.491e-01 1.491e-01 1.492e-01 1.494e-01 1.496e-01 1.497e-01 1.498e-01 1.498e-01
           </DataArray>
           <DataArray type="Float32" Name="potassium/optimalNutrientConcentration" NumberOfComponents="1" format="ascii">
 2.340e+02 2.340e+02 2.340e+02 2.340e+02 2.340e+02 2.340e+02 2.340e+02 2.340e+02 2.340e+02 2.340e+02 2.340e+02 2.340e+02 2.340e+02 2.340e+02 2.340e+02 2.340e+02 2.340e+02 2.340e+02 2.340e+02
           </DataArray>
           <DataArray type="Float32" Name="potassium/rootSegmentMinimalNutrientContent" NumberOfComponents="1" format="ascii">
 1.518e+00 1.931e+00 1.783e+00 1.199e+00 1.197e+00 1.794e+00 1.711e+00 1.749e+00 1.112e+00 7.463e-02 7.394e-02 7.333e-02 7.279e-02 7.232e-02 9.591e-02 7.152e-02 7.129e-02 9.485e-02 2.368e-02
           </DataArray>
           <DataArray type="Float32" Name="potassium/rootSegmentNutrientUptake" NumberOfComponents="1" format="ascii">
 0.000e+00 2.101e-01 1.777e-01 1.535e-01 1.374e-01 1.213e-01 9.525e-02 9.520e-03 0.000e+00 0.000e+00 1.934e-01 1.709e-01 1.484e-01 1.260e-01 1.172e-01 7.397e-02 5.175e-02 3.257e-02 2.463e-03
           </DataArray>
           <DataArray type="Float32" Name="potassium/rootSegmentOptimalNutrientContent" NumberOfComponents="1" format="ascii">
 2.114e+00 2.690e+00 2.484e+00 1.670e+00 1.668e+00 2.498e+00 2.383e+00 2.436e+00 1.548e+00 1.040e-01 1.030e-01 1.021e-01 1.014e-01 1.007e-01 1.336e-01 9.961e-02 9.930e-02 1.321e-01 3.298e-02
           </DataArray>
           <DataArray type="Float32" Name="rootCircumference" NumberOfComponents="1" format="ascii">
 1.269e+00 1.265e+00 1.263e+00 1.261e+00 1.260e+00 1.259e+00 1.258e+00 1.258e+00 1.257e+00 2.898e-01 2.885e-01 2.873e-01 2.862e-01 2.853e-01 2.845e-01 2.837e-01 2.832e-01 2.829e-01 2.828e-01
           </DataArray>
           <DataArray type="Float32" Name="rootClassID" NumberOfComponents="1" format="ascii">
 -2.000e+00 -2.000e+00 -2.000e+00 -2.000e+00 -2.000e+00 -2.000e+00 -2.000e+00 -2.000e+00 -2.000e+00 -4.000e+00 -4.000e+00 -4.000e+00 -4.000e+00 -4.000e+00 -4.000e+00 -4.000e+00 -4.000e+00 -4.000e+00 -4.000e+00
           </DataArray>
           <DataArray type="Float32" Name="rootDiameter" NumberOfComponents="1" format="ascii">
 4.039e-01 4.027e-01 4.019e-01 4.014e-01 4.011e-01 4.009e-01 4.005e-01 4.003e-01 4.001e-01 9.225e-02 9.182e-02 9.144e-02 9.110e-02 9.081e-02 9.056e-02 9.030e-02 9.016e-02 9.006e-02 9.000e-02
           </DataArray>
           <DataArray type="Float32" Name="rootLength2Base" NumberOfComponents="1" format="ascii">
 0.000e+00 7.500e-01 1.710e+00 2.600e+00 3.200e+00 3.800e+00 4.700e+00 5.560e+00 6.440e+00 0.000e+00 7.071e-01 1.414e+00 2.121e+00 2.828e+00 3.535e+00 4.478e+00 5.185e+00 5.893e+00 6.835e+00
           </DataArray>
           <DataArray type="Float32" Name="rootPotentialSecondaryGrowth" NumberOfComponents="1" format="ascii">
 4.039e-01 4.027e-01 4.019e-01 4.014e-01 4.011e-01 4.009e-01 4.005e-01 4.003e-01 4.001e-01 9.225e-02 9.182e-02 9.144e-02 9.110e-02 9.081e-02 9.056e-02 9.030e-02 9.016e-02 9.006e-02 9.000e-02
           </DataArray>
           <DataArray type="Float32" Name="rootSegmentAge" NumberOfComponents="1" format="ascii">
 3.000e+00 2.500e+00 2.100e+00 1.800e+00 1.600e+00 1.400e+00 1.100e+00 8.000e-01 4.000e-01 3.000e+00 2.700e+00 2.400e+00 2.100e+00 1.800e+00 1.500e+00 1.100e+00 8.000e-01 5.000e-01 1.000e-01
           </DataArray>
           <DataArray type="Float32" Name="rootSegmentCarbonCostOfExudates" NumberOfComponents="1" format="ascii">
 0.000e+00 0.000e+00 0.000e+00 0.000e+00 0.000e+00 0.000e+00 0.000e+00 0.000e+00 0.000e+00 3.343e-05 2.983e-05 2.646e-05 2.305e-05 1.987e-05 2.122e-05 1.193e-05 8.390e-06 5.280e-06 2.239e-07
           </DataArray>
           <DataArray type="Float32" Name="rootSegmentDryWeight" NumberOfComponents="1" format="ascii">
 9.035e-03 1.150e-02 1.061e-02 7.138e-03 7.127e-03 1.068e-02 1.019e-02 1.041e-02 6.617e-03 4.443e-04 4.401e-04 4.365e-04 4.333e-04 4.305e-04 5.709e-04 4.257e-04 4.244e-04 5.646e-04 1.410e-04
           </DataArray>
           <DataArray type="Float32" Name="rootSegmentLength" NumberOfComponents="1" format="ascii">
 7.500e-01 9.600e-01 8.900e-01 6.000e-01 6.000e-01 9.000e-01 8.600e-01 8.800e-01 5.600e-01 7.071e-01 7.071e-01 7.071e-01 7.071e-01 7.071e-01 9.428e-01 7.071e-01 7.071e-01 9.428e-01 2.357e-01
           </DataArray>
           <DataArray type="Float32" Name="rootSegmentLengthDuration" NumberOfComponents="1" format="ascii">
 2.045e+00 2.197e+00 1.739e+00 1.020e+00 9.000e-01 1.130e+00 8.247e-01 5.387e-01 1.227e-01 2.019e+00 1.807e+00 1.595e+00 1.383e+00 1.171e+00 1.226e+00 6.757e-01 4.635e-01 2.828e-01 2.357e-02
           </DataArray>
           <DataArray type="Float32" Name="rootSegmentRespiration" NumberOfComponents="1" format="ascii">
 3.614e-04 4.598e-04 4.246e-04 3.212e-04 3.564e-04 5.872e-04 6.366e-04 7.287e-04 5.294e-04 1.777e-05 1.761e-05 1.746e-05 1.733e-05 1.937e-05 2.997e-05 2.661e-05 2.970e-05 4.375e-05 1.233e-05
           </DataArray>
           <DataArray type="Float32" Name="rootSegmentSecondaryPotentialCarbonSinkForGrowth" NumberOfComponents="1" format="ascii">
 6.642e-05 5.939e-05 3.953e-05 2.022e-05 1.574e-05 1.645e-05 9.113e-06 3.846e-06 3.721e-07 8.705e-06 6.954e-06 5.404e-06 4.053e-06 2.900e-06 2.409e-06 9.637e-07 4.550e-07 1.457e-07 1.175e-09
           </DataArray>
           <DataArray type="Float32" Name="rootSegmentSurfaceArea" NumberOfComponents="1" format="ascii">
 9.518e-01 1.215e+00 1.124e+00 7.567e-01 7.561e-01 1.133e+00 1.082e+00 1.107e+00 7.038e-01 2.049e-01 2.040e-01 2.031e-01 2.024e-01 2.017e-01 2.682e-01 2.006e-01 2.003e-01 2.668e-01 6.664e-02
           </DataArray>
           <DataArray type="Float32" Name="rootSegmentVolume" NumberOfComponents="1" format="ascii">
 9.611e-02 1.223e-01 1.129e-01 7.593e-02 7.582e-02 1.136e-01 1.084e-01 1.107e-01 7.040e-02 4.726e-03 4.682e-03 4.643e-03 4.609e-03 4.580e-03 6.073e-03 4.529e-03 4.514e-03 6.006e-03 1.500e-03
           </DataArray>
           <DataArray type="Float32" Name="rootSegmentWaterUptake" NumberOfComponents="1" format="ascii">
 4.431e-03 5.672e-03 5.258e-03 3.545e-03 3.545e-03 5.317e-03 5.065e-03 0.000e+00 0.000e+00 4.178e-03 4.178e-03 4.178e-03 4.178e-03 4.178e-03 5.570e-03 4.164e-03 3.920e-03 3.390e-03 1.799e-04
           </DataArray>
           <DataArray type="Float32" Name="spatialRootDensity" NumberOfComponents="1" format="ascii">
 3.376e-01 1.688e-01 0.000e+00 0.000e+00 0.000e+00 0.000e+00 0.000e+00 0.000e+00 0.000e+00 4.082e-01 1.790e-01 0.000e+00 0.000e+00 0.000e+00 0.000e+00 0.000e+00 0.000e+00 0.000e+00 0.000e+00
           </DataArray>
           <DataArray type="Float32" Name="volumetricWaterContentAtTheRootSurface" NumberOfComponents="1" format="ascii">
 3.089e-01 3.098e-01 3.110e-01 3.122e-01 3.131e-01 3.137e-01 3.150e-01 0.000e+00 0.000e+00 3.089e-01 3.080e-01 3.071e-01 3.062e-01 3.055e-01 3.046e-01 3.035e-01 3.026e-01 3.018e-01 3.007e-01
           </DataArray>
         </CellData>
      </Piece>
   </UnstructuredGrid>
</VTKFile>
