<?xml version="1.0"?>
<VTKFile type="UnstructuredGrid" version="0.1" byte_order="LittleEndian">
   <UnstructuredGrid>
      <Piece NumberOfPoints="250" NumberOfCells="23">
         <Points>
            <DataArray type="Float32" Name="Position" NumberOfComponents="3" format="ascii">
-0.142	-5.004	0.146
-0.029	-5.002	0.201
0.095	-4.998	0.180
0.183	-4.996	0.090
0.200	-4.995	-0.035
0.142	-4.996	-0.146
0.029	-4.998	-0.201
-0.095	-5.002	-0.180
-0.183	-5.004	-0.090
-0.200	-5.005	0.035
-0.161	-4.253	0.148
-0.049	-4.251	0.204
0.075	-4.250	0.183
0.163	-4.248	0.094
0.181	-4.247	-0.030
0.123	-4.248	-0.141
0.011	-4.249	-0.197
-0.112	-4.251	-0.176
-0.200	-4.253	-0.087
-0.219	-4.253	0.037
-0.166	-3.291	0.149
-0.054	-3.290	0.205
0.069	-3.290	0.185
0.157	-3.290	0.097
0.177	-3.290	-0.026
0.120	-3.290	-0.138
0.008	-3.290	-0.194
-0.115	-3.291	-0.175
-0.203	-3.291	-0.086
-0.223	-3.291	0.037
-0.168	-2.400	0.145
-0.057	-2.400	0.202
0.067	-2.400	0.183
0.155	-2.400	0.095
0.174	-2.401	-0.029
0.118	-2.401	-0.140
0.007	-2.401	-0.196
-0.116	-2.400	-0.177
-0.205	-2.400	-0.089
-0.224	-2.400	0.034
-0.165	-1.800	0.146
-0.054	-1.801	0.203
0.069	-1.801	0.183
0.157	-1.801	0.095
0.176	-1.801	-0.028
0.120	-1.800	-0.139
0.009	-1.800	-0.195
-0.114	-1.800	-0.176
-0.202	-1.800	-0.088
-0.222	-1.800	0.035
-0.165	-1.201	0.148
-0.054	-1.201	0.205
0.069	-1.201	0.185
0.157	-1.200	0.097
0.176	-1.200	-0.026
0.119	-1.200	-0.137
0.008	-1.200	-0.193
-0.115	-1.200	-0.173
-0.203	-1.200	-0.085
-0.222	-1.201	0.038
-0.168	-0.301	0.151
-0.058	-0.301	0.207
0.065	-0.301	0.188
0.153	-0.300	0.100
0.172	-0.300	-0.023
0.115	-0.300	-0.134
0.005	-0.300	-0.190
-0.118	-0.300	-0.170
-0.206	-0.300	-0.082
-0.225	-0.301	0.040
-0.167	0.560	0.150
-0.057	0.560	0.207
0.066	0.559	0.187
0.154	0.559	0.100
0.173	0.559	-0.023
0.117	0.559	-0.133
0.006	0.560	-0.190
-0.116	0.560	-0.170
-0.204	0.560	-0.083
-0.223	0.560	0.040
-0.165	1.440	0.151
-0.055	1.440	0.207
0.068	1.440	0.188
0.155	1.440	0.101
0.175	1.439	-0.022
0.119	1.439	-0.132
0.009	1.439	-0.188
-0.114	1.440	-0.169
-0.202	1.440	-0.082
-0.221	1.440	0.041
-0.165	2.316	0.148
-0.055	2.316	0.204
0.067	2.316	0.185
0.155	2.316	0.098
0.174	2.316	-0.024
0.118	2.316	-0.135
0.008	2.316	-0.191
-0.114	2.316	-0.172
-0.201	2.316	-0.084
-0.221	2.316	0.038
-0.023	2.328	0.148
-0.023	2.438	0.204
-0.023	2.560	0.185
-0.023	2.648	0.098
-0.023	2.667	-0.024
-0.023	2.611	-0.135
-0.023	2.501	-0.191
-0.023	2.379	-0.171
-0.023	2.291	-0.084
-0.023	2.272	0.038
0.033	-4.999	-0.033
0.046	-5.001	-0.008
0.042	-5.002	0.021
0.022	-5.002	0.042
-0.007	-5.002	0.046
-0.033	-5.001	0.033
-0.046	-4.999	0.008
-0.042	-4.998	-0.021
-0.022	-4.998	-0.042
0.007	-4.998	-0.046
0.016	-5.705	-0.061
0.030	-5.706	-0.035
0.026	-5.708	-0.007
0.006	-5.709	0.014
-0.022	-5.709	0.019
-0.048	-5.708	0.007
-0.062	-5.706	-0.018
-0.058	-5.704	-0.047
-0.038	-5.703	-0.068
-0.010	-5.704	-0.073
0.011	-6.408	-0.121
0.025	-6.410	-0.096
0.022	-6.411	-0.067
0.003	-6.413	-0.046
-0.026	-6.414	-0.041
-0.052	-6.413	-0.053
-0.066	-6.412	-0.078
-0.062	-6.410	-0.106
-0.043	-6.409	-0.127
-0.015	-6.408	-0.133
0.034	-7.115	-0.144
0.047	-7.116	-0.118
0.044	-7.117	-0.090
0.024	-7.118	-0.070
-0.004	-7.119	-0.064
-0.030	-7.119	-0.077
-0.043	-7.118	-0.102
-0.040	-7.117	-0.130
-0.020	-7.116	-0.151
0.008	-7.115	-0.156
0.034	-7.822	-0.167
0.047	-7.824	-0.142
0.043	-7.825	-0.114
0.023	-7.825	-0.094
-0.005	-7.825	-0.089
-0.030	-7.824	-0.101
-0.044	-7.823	-0.126
-0.040	-7.822	-0.154
-0.020	-7.821	-0.175
0.008	-7.822	-0.180
0.019	-8.528	-0.203
0.032	-8.529	-0.178
0.029	-8.530	-0.150
0.009	-8.531	-0.130
-0.019	-8.531	-0.125
-0.044	-8.531	-0.137
-0.058	-8.530	-0.162
-0.054	-8.529	-0.190
-0.035	-8.528	-0.210
-0.007	-8.527	-0.215
0.047	-9.466	-0.244
0.061	-9.466	-0.219
0.057	-9.467	-0.191
0.038	-9.468	-0.170
0.011	-9.470	-0.165
-0.015	-9.471	-0.177
-0.029	-9.472	-0.201
-0.025	-9.471	-0.229
-0.006	-9.470	-0.250
0.021	-9.468	-0.255
0.115	-10.168	-0.236
0.129	-10.167	-0.212
0.126	-10.168	-0.184
0.107	-10.170	-0.163
0.080	-10.173	-0.157
0.055	-10.176	-0.169
0.041	-10.177	-0.193
0.043	-10.176	-0.221
0.062	-10.174	-0.242
0.089	-10.171	-0.248
0.201	-10.867	-0.262
0.216	-10.866	-0.238
0.214	-10.868	-0.210
0.197	-10.872	-0.189
0.170	-10.876	-0.182
0.144	-10.879	-0.192
0.129	-10.879	-0.216
0.131	-10.877	-0.244
0.148	-10.873	-0.265
0.175	-10.869	-0.272
0.332	-11.793	-0.358
0.348	-11.793	-0.335
0.347	-11.796	-0.308
0.330	-11.801	-0.286
0.303	-11.805	-0.279
0.277	-11.808	-0.288
0.262	-11.807	-0.312
0.263	-11.804	-0.339
0.280	-11.800	-0.361
0.306	-11.795	-0.368
0.419	-12.490	-0.437
0.434	-12.490	-0.414
0.433	-12.493	-0.386
0.416	-12.498	-0.365
0.390	-12.502	-0.357
0.364	-12.505	-0.367
0.348	-12.505	-0.390
0.349	-12.502	-0.418
0.366	-12.497	-0.440
0.393	-12.493	-0.447
0.536	-13.184	-0.501
0.552	-13.184	-0.478
0.551	-13.186	-0.451
0.534	-13.191	-0.429
0.507	-13.196	-0.422
0.482	-13.199	-0.432
0.466	-13.200	-0.455
0.467	-13.197	-0.482
0.484	-13.192	-0.504
0.510	-13.187	-0.511
0.678	-14.112	-0.588
0.694	-14.112	-0.565
0.693	-14.115	-0.537
0.676	-14.120	-0.515
0.650	-14.125	-0.508
0.624	-14.127	-0.518
0.608	-14.127	-0.541
0.609	-14.124	-0.568
0.626	-14.119	-0.590
0.652	-14.114	-0.597
0.707	-14.343	-0.620
0.723	-14.344	-0.597
0.722	-14.348	-0.570
0.706	-14.353	-0.548
0.679	-14.357	-0.540
0.653	-14.359	-0.550
0.637	-14.358	-0.573
0.638	-14.354	-0.600
0.654	-14.349	-0.622
0.681	-14.345	-0.630
		    </DataArray>
         </Points>
         <Cells>
            <DataArray type="Int32" Name="connectivity" NumberOfComponents="1" format="ascii">
 0 10 1 11 2 12 3 13 4 14 5 15 6 16 7 17 8 18 9 19 0 10
 10 20 11 21 12 22 13 23 14 24 15 25 16 26 17 27 18 28 19 29 10 20
 20 30 21 31 22 32 23 33 24 34 25 35 26 36 27 37 28 38 29 39 20 30
 30 40 31 41 32 42 33 43 34 44 35 45 36 46 37 47 38 48 39 49 30 40
 40 50 41 51 42 52 43 53 44 54 45 55 46 56 47 57 48 58 49 59 40 50
 50 60 51 61 52 62 53 63 54 64 55 65 56 66 57 67 58 68 59 69 50 60
 60 70 61 71 62 72 63 73 64 74 65 75 66 76 67 77 68 78 69 79 60 70
 70 80 71 81 72 82 73 83 74 84 75 85 76 86 77 87 78 88 79 89 70 80
 80 90 81 91 82 92 83 93 84 94 85 95 86 96 87 97 88 98 89 99 80 90
 90 100 91 101 92 102 93 103 94 104 95 105 96 106 97 107 98 108 99 109 90 100
 110 120 111 121 112 122 113 123 114 124 115 125 116 126 117 127 118 128 119 129 110 120
 120 130 121 131 122 132 123 133 124 134 125 135 126 136 127 137 128 138 129 139 120 130
 130 140 131 141 132 142 133 143 134 144 135 145 136 146 137 147 138 148 139 149 130 140
 140 150 141 151 142 152 143 153 144 154 145 155 146 156 147 157 148 158 149 159 140 150
 150 160 151 161 152 162 153 163 154 164 155 165 156 166 157 167 158 168 159 169 150 160
 160 170 161 171 162 172 163 173 164 174 165 175 166 176 167 177 168 178 169 179 160 170
 170 180 171 181 172 182 173 183 174 184 175 185 176 186 177 187 178 188 179 189 170 180
 180 190 181 191 182 192 183 193 184 194 185 195 186 196 187 197 188 198 189 199 180 190
 190 200 191 201 192 202 193 203 194 204 195 205 196 206 197 207 198 208 199 209 190 200
 200 210 201 211 202 212 203 213 204 214 205 215 206 216 207 217 208 218 209 219 200 210
 210 220 211 221 212 222 213 223 214 224 215 225 216 226 217 227 218 228 219 229 210 220
 220 230 221 231 222 232 223 233 224 234 225 235 226 236 227 237 228 238 229 239 220 230
 230 240 231 241 232 242 233 243 234 244 235 245 236 246 237 247 238 248 239 249 230 240

            </DataArray>
            <DataArray type="Int32" Name="offsets" NumberOfComponents="1" format="ascii">
 22 44 66 88 110 132 154 176 198 220 242 264 286 308 330 352 374 396 418 440 462 484 506
            </DataArray>
            <DataArray type="UInt8"  Name="types" NumberOfComponents="1" format="ascii">
6 6 6 6 6 6 6 6 6 6 6 6 6 6 6 6 6 6 6 6 6 6 6
            </DataArray>
         </Cells>
         <CellData>
           <DataArray type="Float32" Name="aerenchymaFormation" NumberOfComponents="1" format="ascii">
 0.000e+00 0.000e+00 0.000e+00 0.000e+00 0.000e+00 0.000e+00 0.000e+00 0.000e+00 0.000e+00 0.000e+00 2.500e-02 1.750e-02 1.000e-02 2.500e-03 0.000e+00 0.000e+00 0.000e+00 0.000e+00 0.000e+00 0.000e+00 0.000e+00 0.000e+00 0.000e+00
           </DataArray>
           <DataArray type="Float32" Name="combinedRootClassID" NumberOfComponents="1" format="ascii">
 -2.000e+00 -2.000e+00 -2.000e+00 -2.000e+00 -2.000e+00 -2.000e+00 -2.000e+00 -2.000e+00 -2.000e+00 -2.000e+00 -4.000e+00 -4.000e+00 -4.000e+00 -4.000e+00 -4.000e+00 -4.000e+00 -4.000e+00 -4.000e+00 -4.000e+00 -4.000e+00 -4.000e+00 -4.000e+00 -4.000e+00
           </DataArray>
           <DataArray type="Float32" Name="nitrate/Cmin" NumberOfComponents="1" format="ascii">
 1.000e-03 1.000e-03 1.000e-03 1.000e-03 1.000e-03 1.000e-03 1.000e-03 1.000e-03 1.000e-03 1.000e-03 1.000e-03 1.000e-03 1.000e-03 1.000e-03 1.000e-03 1.000e-03 1.000e-03 1.000e-03 1.000e-03 1.000e-03 1.000e-03 1.000e-03 1.000e-03
           </DataArray>
           <DataArray type="Float32" Name="nitrate/Imax" NumberOfComponents="1" format="ascii">
 1.900e+00 1.900e+00 1.900e+00 1.900e+00 1.900e+00 1.900e+00 1.900e+00 1.900e+00 1.900e+00 1.900e+00 1.900e+00 1.900e+00 1.900e+00 1.900e+00 1.900e+00 1.900e+00 1.900e+00 1.900e+00 1.900e+00 1.900e+00 1.900e+00 1.900e+00 1.900e+00
           </DataArray>
           <DataArray type="Float32" Name="nitrate/Km" NumberOfComponents="1" format="ascii">
 1.610e-02 1.610e-02 1.610e-02 1.610e-02 1.610e-02 1.610e-02 1.610e-02 1.610e-02 1.610e-02 1.610e-02 1.610e-02 1.610e-02 1.610e-02 1.610e-02 1.610e-02 1.610e-02 1.610e-02 1.610e-02 1.610e-02 1.610e-02 1.610e-02 1.610e-02 1.610e-02
           </DataArray>
           <DataArray type="Float32" Name="nitrate/minimalNutrientConcentration" NumberOfComponents="1" format="ascii">
 6.000e+02 6.000e+02 6.000e+02 6.000e+02 6.000e+02 6.000e+02 6.000e+02 6.000e+02 6.000e+02 6.000e+02 6.000e+02 6.000e+02 6.000e+02 6.000e+02 6.000e+02 6.000e+02 6.000e+02 6.000e+02 6.000e+02 6.000e+02 6.000e+02 6.000e+02 6.000e+02
           </DataArray>
           <DataArray type="Float32" Name="nitrate/nutrientConcentrationAtTheRootSurface" NumberOfComponents="1" format="ascii">
 1.712e+00 1.475e+00 1.157e+00 8.786e-01 7.005e-01 5.813e-01 4.218e-01 0.000e+00 0.000e+00 0.000e+00 1.712e+00 1.907e+00 2.073e+00 2.230e+00 2.337e+00 2.478e+00 2.647e+00 2.771e+00 2.880e+00 3.047e+00 3.172e+00 3.245e+00 3.377e+00
           </DataArray>
           <DataArray type="Float32" Name="nitrate/optimalNutrientConcentration" NumberOfComponents="1" format="ascii">
 1.200e+03 1.200e+03 1.200e+03 1.200e+03 1.200e+03 1.200e+03 1.200e+03 1.200e+03 1.200e+03 1.200e+03 1.200e+03 1.200e+03 1.200e+03 1.200e+03 1.200e+03 1.200e+03 1.200e+03 1.200e+03 1.200e+03 1.200e+03 1.200e+03 1.200e+03 1.200e+03
           </DataArray>
           <DataArray type="Float32" Name="nitrate/rootSegmentMinimalNutrientContent" NumberOfComponents="1" format="ascii">
 5.503e+00 6.987e+00 6.441e+00 4.326e+00 4.316e+00 6.459e+00 6.154e+00 6.281e+00 6.238e+00 1.089e+00 2.768e-01 2.734e-01 2.703e-01 2.674e-01 2.649e-01 3.501e-01 2.600e-01 2.583e-01 3.425e-01 2.554e-01 2.546e-01 3.387e-01 8.457e-02
           </DataArray>
           <DataArray type="Float32" Name="nitrate/rootSegmentNutrientUptake" NumberOfComponents="1" format="ascii">
 0.000e+00 3.905e+00 3.146e+00 2.489e+00 1.999e+00 1.528e+00 6.865e-01 5.794e-02 0.000e+00 0.000e+00 0.000e+00 1.376e+00 1.259e+00 1.143e+00 1.027e+00 1.191e+00 7.589e-01 6.444e-01 6.818e-01 3.785e-01 2.648e-01 1.765e-01 1.260e-02
           </DataArray>
           <DataArray type="Float32" Name="nitrate/rootSegmentOptimalNutrientContent" NumberOfComponents="1" format="ascii">
 1.101e+01 1.397e+01 1.288e+01 8.651e+00 8.631e+00 1.292e+01 1.231e+01 1.256e+01 1.248e+01 2.178e+00 5.535e-01 5.467e-01 5.405e-01 5.349e-01 5.298e-01 7.003e-01 5.199e-01 5.166e-01 6.850e-01 5.108e-01 5.092e-01 6.775e-01 1.691e-01
           </DataArray>
           <DataArray type="Float32" Name="parentRootClassID" NumberOfComponents="1" format="ascii">
 -3.000e+00 -3.000e+00 -3.000e+00 -3.000e+00 -3.000e+00 -3.000e+00 -3.000e+00 -3.000e+00 -3.000e+00 -3.000e+00 -3.000e+00 -3.000e+00 -3.000e+00 -3.000e+00 -3.000e+00 -3.000e+00 -3.000e+00 -3.000e+00 -3.000e+00 -3.000e+00 -3.000e+00 -3.000e+00 -3.000e+00
           </DataArray>
           <DataArray type="Float32" Name="plantID" NumberOfComponents="1" format="ascii">
 5.000e+00 5.000e+00 5.000e+00 5.000e+00 5.000e+00 5.000e+00 5.000e+00 5.000e+00 5.000e+00 5.000e+00 5.000e+00 5.000e+00 5.000e+00 5.000e+00 5.000e+00 5.000e+00 5.000e+00 5.000e+00 5.000e+00 5.000e+00 5.000e+00 5.000e+00 5.000e+00
           </DataArray>
           <DataArray type="Float32" Name="plantTypeID" NumberOfComponents="1" format="ascii">
 0.000e+00 0.000e+00 0.000e+00 0.000e+00 0.000e+00 0.000e+00 0.000e+00 0.000e+00 0.000e+00 0.000e+00 0.000e+00 0.000e+00 0.000e+00 0.000e+00 0.000e+00 0.000e+00 0.000e+00 0.000e+00 0.000e+00 0.000e+00 0.000e+00 0.000e+00 0.000e+00
           </DataArray>
           <DataArray type="Float32" Name="potassium/Cmin" NumberOfComponents="1" format="ascii">
 2.000e-03 2.000e-03 2.000e-03 2.000e-03 2.000e-03 2.000e-03 2.000e-03 2.000e-03 2.000e-03 2.000e-03 2.000e-03 2.000e-03 2.000e-03 2.000e-03 2.000e-03 2.000e-03 2.000e-03 2.000e-03 2.000e-03 2.000e-03 2.000e-03 2.000e-03 2.000e-03
           </DataArray>
           <DataArray type="Float32" Name="potassium/Imax" NumberOfComponents="1" format="ascii">
 4.670e-01 4.670e-01 4.670e-01 4.670e-01 4.670e-01 4.670e-01 4.670e-01 4.670e-01 4.670e-01 4.670e-01 4.670e-01 4.670e-01 4.670e-01 4.670e-01 4.670e-01 4.670e-01 4.670e-01 4.670e-01 4.670e-01 4.670e-01 4.670e-01 4.670e-01 4.670e-01
           </DataArray>
           <DataArray type="Float32" Name="potassium/Km" NumberOfComponents="1" format="ascii">
 3.900e-02 3.900e-02 3.900e-02 3.900e-02 3.900e-02 3.900e-02 3.900e-02 3.900e-02 3.900e-02 3.900e-02 3.900e-02 3.900e-02 3.900e-02 3.900e-02 3.900e-02 3.900e-02 3.900e-02 3.900e-02 3.900e-02 3.900e-02 3.900e-02 3.900e-02 3.900e-02
           </DataArray>
           <DataArray type="Float32" Name="potassium/minimalNutrientConcentration" NumberOfComponents="1" format="ascii">
 1.680e+02 1.680e+02 1.680e+02 1.680e+02 1.680e+02 1.680e+02 1.680e+02 1.680e+02 1.680e+02 1.680e+02 1.680e+02 1.680e+02 1.680e+02 1.680e+02 1.680e+02 1.680e+02 1.680e+02 1.680e+02 1.680e+02 1.680e+02 1.680e+02 1.680e+02 1.680e+02
           </DataArray>
           <DataArray type="Float32" Name="potassium/nutrientConcentrationAtTheRootSurface" NumberOfComponents="1" format="ascii">
 1.491e-01 1.490e-01 1.488e-01 1.487e-01 1.486e-01 1.486e-01 1.439e-01 0.000e+00 0.000e+00 0.000e+00 1.491e-01 1.489e-01 1.487e-01 1.487e-01 1.488e-01 1.490e-01 1.492e-01 1.492e-01 1.492e-01 1.492e-01 1.495e-01 1.495e-01 1.498e-01
           </DataArray>
           <DataArray type="Float32" Name="potassium/optimalNutrientConcentration" NumberOfComponents="1" format="ascii">
 2.340e+02 2.340e+02 2.340e+02 2.340e+02 2.340e+02 2.340e+02 2.340e+02 2.340e+02 2.340e+02 2.340e+02 2.340e+02 2.340e+02 2.340e+02 2.340e+02 2.340e+02 2.340e+02 2.340e+02 2.340e+02 2.340e+02 2.340e+02 2.340e+02 2.340e+02 2.340e+02
           </DataArray>
           <DataArray type="Float32" Name="potassium/rootSegmentMinimalNutrientContent" NumberOfComponents="1" format="ascii">
 1.541e+00 1.956e+00 1.804e+00 1.211e+00 1.208e+00 1.809e+00 1.723e+00 1.759e+00 1.747e+00 3.049e-01 7.749e-02 7.654e-02 7.567e-02 7.488e-02 7.417e-02 9.804e-02 7.279e-02 7.232e-02 9.591e-02 7.152e-02 7.129e-02 9.485e-02 2.368e-02
           </DataArray>
           <DataArray type="Float32" Name="potassium/rootSegmentNutrientUptake" NumberOfComponents="1" format="ascii">
 0.000e+00 2.990e-01 2.666e-01 2.424e-01 2.264e-01 2.103e-01 1.816e-01 9.520e-03 0.000e+00 0.000e+00 0.000e+00 2.694e-01 2.464e-01 2.236e-01 2.009e-01 2.056e-01 1.484e-01 1.260e-01 1.209e-01 7.396e-02 5.175e-02 3.236e-02 2.462e-03
           </DataArray>
           <DataArray type="Float32" Name="potassium/rootSegmentOptimalNutrientContent" NumberOfComponents="1" format="ascii">
 2.146e+00 2.725e+00 2.512e+00 1.687e+00 1.683e+00 2.519e+00 2.400e+00 2.450e+00 2.433e+00 4.247e-01 1.079e-01 1.066e-01 1.054e-01 1.043e-01 1.033e-01 1.365e-01 1.014e-01 1.007e-01 1.336e-01 9.961e-02 9.930e-02 1.321e-01 3.298e-02
           </DataArray>
           <DataArray type="Float32" Name="rootCircumference" NumberOfComponents="1" format="ascii">
 1.279e+00 1.273e+00 1.270e+00 1.267e+00 1.266e+00 1.265e+00 1.263e+00 1.261e+00 1.259e+00 1.257e+00 2.953e-01 2.935e-01 2.918e-01 2.903e-01 2.889e-01 2.877e-01 2.862e-01 2.853e-01 2.845e-01 2.837e-01 2.832e-01 2.829e-01 2.828e-01
           </DataArray>
           <DataArray type="Float32" Name="rootClassID" NumberOfComponents="1" format="ascii">
 -2.000e+00 -2.000e+00 -2.000e+00 -2.000e+00 -2.000e+00 -2.000e+00 -2.000e+00 -2.000e+00 -2.000e+00 -2.000e+00 -4.000e+00 -4.000e+00 -4.000e+00 -4.000e+00 -4.000e+00 -4.000e+00 -4.000e+00 -4.000e+00 -4.000e+00 -4.000e+00 -4.000e+00 -4.000e+00 -4.000e+00
           </DataArray>
           <DataArray type="Float32" Name="rootDiameter" NumberOfComponents="1" format="ascii">
 4.070e-01 4.054e-01 4.042e-01 4.034e-01 4.030e-01 4.025e-01 4.019e-01 4.014e-01 4.009e-01 4.001e-01 9.400e-02 9.342e-02 9.289e-02 9.240e-02 9.196e-02 9.156e-02 9.110e-02 9.081e-02 9.056e-02 9.030e-02 9.016e-02 9.006e-02 9.000e-02
           </DataArray>
           <DataArray type="Float32" Name="rootLength2Base" NumberOfComponents="1" format="ascii">
 0.000e+00 7.500e-01 1.710e+00 2.600e+00 3.200e+00 3.800e+00 4.700e+00 5.560e+00 6.440e+00 7.316e+00 0.000e+00 7.071e-01 1.414e+00 2.121e+00 2.828e+00 3.535e+00 4.478e+00 5.185e+00 5.893e+00 6.835e+00 7.542e+00 8.250e+00 9.192e+00
           </DataArray>
           <DataArray type="Float32" Name="rootPotentialSecondaryGrowth" NumberOfComponents="1" format="ascii">
 4.070e-01 4.054e-01 4.042e-01 4.034e-01 4.030e-01 4.025e-01 4.019e-01 4.014e-01 4.009e-01 4.001e-01 9.400e-02 9.342e-02 9.289e-02 9.240e-02 9.196e-02 9.156e-02 9.110e-02 9.081e-02 9.056e-02 9.030e-02 9.016e-02 9.006e-02 9.000e-02
           </DataArray>
           <DataArray type="Float32" Name="rootSegmentAge" NumberOfComponents="1" format="ascii">
 4.000e+00 3.500e+00 3.100e+00 2.800e+00 2.600e+00 2.400e+00 2.100e+00 1.800e+00 1.400e+00 5.000e-01 4.000e+00 3.700e+00 3.400e+00 3.100e+00 2.800e+00 2.500e+00 2.100e+00 1.800e+00 1.500e+00 1.100e+00 8.000e-01 5.000e-01 1.000e-01
           </DataArray>
           <DataArray type="Float32" Name="rootSegmentCarbonCostOfExudates" NumberOfComponents="1" format="ascii">
 0.000e+00 0.000e+00 0.000e+00 0.000e+00 0.000e+00 0.000e+00 0.000e+00 0.000e+00 0.000e+00 0.000e+00 4.469e-05 4.143e-05 3.814e-05 3.455e-05 3.106e-05 3.589e-05 2.305e-05 1.987e-05 2.122e-05 1.193e-05 8.390e-06 5.280e-06 2.239e-07
           </DataArray>
           <DataArray type="Float32" Name="rootSegmentDryWeight" NumberOfComponents="1" format="ascii">
 9.172e-03 1.165e-02 1.074e-02 7.210e-03 7.193e-03 1.077e-02 1.026e-02 1.047e-02 1.040e-02 1.815e-03 4.613e-04 4.556e-04 4.504e-04 4.457e-04 4.415e-04 5.835e-04 4.333e-04 4.305e-04 5.709e-04 4.257e-04 4.244e-04 5.646e-04 1.410e-04
           </DataArray>
           <DataArray type="Float32" Name="rootSegmentLength" NumberOfComponents="1" format="ascii">
 7.500e-01 9.600e-01 8.900e-01 6.000e-01 6.000e-01 9.000e-01 8.600e-01 8.800e-01 8.764e-01 1.536e-01 7.071e-01 7.071e-01 7.071e-01 7.071e-01 7.071e-01 9.428e-01 7.071e-01 7.071e-01 9.428e-01 7.071e-01 7.071e-01 9.428e-01 2.357e-01
           </DataArray>
           <DataArray type="Float32" Name="rootSegmentLengthDuration" NumberOfComponents="1" format="ascii">
 2.795e+00 3.157e+00 2.629e+00 1.620e+00 1.500e+00 2.030e+00 1.685e+00 1.419e+00 9.324e-01 4.388e-02 2.726e+00 2.514e+00 2.302e+00 2.090e+00 1.878e+00 2.168e+00 1.383e+00 1.171e+00 1.226e+00 6.757e-01 4.635e-01 2.828e-01 2.357e-02
           </DataArray>
           <DataArray type="Float32" Name="rootSegmentRespiration" NumberOfComponents="1" format="ascii">
 3.669e-04 4.658e-04 4.294e-04 2.884e-04 2.877e-04 4.306e-04 4.103e-04 4.711e-04 5.718e-04 1.407e-04 1.845e-05 1.822e-05 1.802e-05 1.783e-05 1.766e-05 2.334e-05 1.733e-05 1.937e-05 2.997e-05 2.661e-05 2.970e-05 4.375e-05 1.233e-05
           </DataArray>
           <DataArray type="Float32" Name="rootSegmentSecondaryPotentialCarbonSinkForGrowth" NumberOfComponents="1" format="ascii">
 1.239e-04 1.225e-04 9.063e-05 5.111e-05 4.379e-05 5.323e-05 3.820e-05 2.641e-05 1.039e-05 1.618e-07 1.603e-05 1.359e-05 1.136e-05 9.334e-06 7.515e-06 7.543e-06 4.053e-06 2.900e-06 2.409e-06 9.637e-07 4.550e-07 1.457e-07 1.175e-09
           </DataArray>
           <DataArray type="Float32" Name="rootSegmentSurfaceArea" NumberOfComponents="1" format="ascii">
 9.590e-01 1.223e+00 1.130e+00 7.604e-01 7.596e-01 1.138e+00 1.086e+00 1.110e+00 1.104e+00 1.930e-01 2.088e-01 2.075e-01 2.063e-01 2.053e-01 2.043e-01 2.712e-01 2.024e-01 2.017e-01 2.682e-01 2.006e-01 2.003e-01 2.668e-01 6.664e-02
           </DataArray>
           <DataArray type="Float32" Name="rootSegmentVolume" NumberOfComponents="1" format="ascii">
 9.758e-02 1.239e-01 1.142e-01 7.670e-02 7.652e-02 1.145e-01 1.091e-01 1.114e-01 1.106e-01 1.931e-02 4.907e-03 4.847e-03 4.792e-03 4.742e-03 4.696e-03 6.208e-03 4.609e-03 4.580e-03 6.073e-03 4.529e-03 4.514e-03 6.006e-03 1.500e-03
           </DataArray>
           <DataArray type="Float32" Name="rootSegmentWaterUptake" NumberOfComponents="1" format="ascii">
 2.837e-02 3.631e-02 3.366e-02 2.269e-02 2.269e-02 3.404e-02 3.251e-02 0.000e+00 0.000e+00 0.000e+00 2.675e-02 2.675e-02 2.675e-02 2.675e-02 2.675e-02 3.566e-02 2.673e-02 2.649e-02 3.348e-02 2.189e-02 1.733e-02 1.231e-02 5.638e-04
           </DataArray>
           <DataArray type="Float32" Name="spatialRootDensity" NumberOfComponents="1" format="ascii">
 3.376e-01 1.688e-01 0.000e+00 0.000e+00 0.000e+00 0.000e+00 0.000e+00 0.000e+00 0.000e+00 0.000e+00 4.082e-01 1.790e-01 0.000e+00 0.000e+00 0.000e+00 0.000e+00 0.000e+00 0.000e+00 0.000e+00 0.000e+00 0.000e+00 0.000e+00 0.000e+00
           </DataArray>
           <DataArray type="Float32" Name="volumetricWaterContentAtTheRootSurface" NumberOfComponents="1" format="ascii">
 3.002e-01 3.004e-01 3.007e-01 3.010e-01 3.012e-01 3.013e-01 3.016e-01 0.000e+00 0.000e+00 0.000e+00 3.002e-01 3.000e-01 2.998e-01 2.995e-01 2.993e-01 2.991e-01 2.988e-01 2.986e-01 2.983e-01 2.980e-01 2.978e-01 2.977e-01 2.974e-01
           </DataArray>
         </CellData>
      </Piece>
   </UnstructuredGrid>
</VTKFile>
