<?xml version="1.0"?>
<VTKFile type="UnstructuredGrid" version="0.1" byte_order="LittleEndian">
   <UnstructuredGrid>
      <Piece NumberOfPoints="60400" NumberOfCells="4397">
         <Points>
            <DataArray type="Float32" Name="Position" NumberOfComponents="3" format="ascii">
-0.132	-5.024	0.023
-0.127	-5.025	0.031
-0.128	-5.027	0.040
-0.133	-5.028	0.047
-0.142	-5.029	0.050
-0.151	-5.029	0.046
-0.156	-5.028	0.039
-0.156	-5.026	0.030
-0.150	-5.025	0.022
-0.141	-5.024	0.020
-0.096	-5.885	-0.108
-0.091	-5.886	-0.100
-0.091	-5.888	-0.091
-0.097	-5.889	-0.084
-0.106	-5.889	-0.082
-0.115	-5.888	-0.085
-0.120	-5.887	-0.093
-0.119	-5.885	-0.102
-0.113	-5.884	-0.109
-0.104	-5.884	-0.111
-0.206	-6.704	-0.317
-0.201	-6.706	-0.309
-0.201	-6.709	-0.300
-0.206	-6.711	-0.293
-0.215	-6.711	-0.290
-0.224	-6.710	-0.293
-0.229	-6.708	-0.300
-0.229	-6.705	-0.309
-0.224	-6.703	-0.317
-0.215	-6.703	-0.319
-0.176	-7.521	-0.557
-0.170	-7.523	-0.550
-0.170	-7.526	-0.541
-0.175	-7.528	-0.534
-0.184	-7.529	-0.531
-0.193	-7.528	-0.534
-0.198	-7.526	-0.541
-0.199	-7.523	-0.550
-0.193	-7.521	-0.557
-0.184	-7.520	-0.560
-0.232	-8.343	-0.796
-0.227	-8.346	-0.789
-0.228	-8.349	-0.780
-0.234	-8.350	-0.773
-0.243	-8.349	-0.771
-0.251	-8.347	-0.774
-0.256	-8.344	-0.781
-0.256	-8.341	-0.790
-0.250	-8.340	-0.797
-0.241	-8.341	-0.799
-0.317	-8.680	-0.901
-0.312	-8.683	-0.893
-0.314	-8.685	-0.885
-0.320	-8.686	-0.878
-0.329	-8.684	-0.876
-0.337	-8.681	-0.879
-0.341	-8.678	-0.886
-0.340	-8.675	-0.895
-0.334	-8.675	-0.902
-0.325	-8.677	-0.904
-0.287	-5.075	0.085
-0.282	-5.068	0.080
-0.275	-5.066	0.075
-0.268	-5.069	0.071
-0.263	-5.077	0.069
-0.262	-5.086	0.071
-0.267	-5.093	0.075
-0.274	-5.096	0.080
-0.281	-5.092	0.085
-0.286	-5.085	0.086
-0.758	-5.223	-0.646
-0.753	-5.217	-0.650
-0.745	-5.216	-0.654
-0.737	-5.221	-0.657
-0.733	-5.229	-0.657
-0.734	-5.238	-0.655
-0.740	-5.244	-0.651
-0.748	-5.245	-0.646
-0.756	-5.240	-0.643
-0.760	-5.232	-0.643
-1.066	-5.405	-1.447
-1.059	-5.401	-1.450
-1.050	-5.402	-1.452
-1.043	-5.408	-1.453
-1.041	-5.417	-1.452
-1.044	-5.425	-1.449
-1.051	-5.430	-1.446
-1.060	-5.429	-1.444
-1.067	-5.423	-1.443
-1.069	-5.414	-1.444
-1.220	-5.536	-2.290
-1.212	-5.532	-2.292
-1.203	-5.534	-2.293
-1.196	-5.541	-2.292
-1.195	-5.550	-2.291
-1.199	-5.558	-2.289
-1.208	-5.561	-2.287
-1.217	-5.560	-2.285
-1.223	-5.553	-2.286
-1.224	-5.544	-2.287
-1.236	-5.565	-2.416
-1.228	-5.562	-2.418
-1.219	-5.564	-2.419
-1.213	-5.571	-2.418
-1.212	-5.580	-2.416
-1.216	-5.587	-2.414
-1.225	-5.591	-2.412
-1.234	-5.589	-2.411
-1.240	-5.582	-2.412
-1.241	-5.573	-2.414
-1.253	-5.898	0.517
-1.248	-5.891	0.514
-1.241	-5.888	0.509
-1.234	-5.892	0.504
-1.229	-5.899	0.502
-1.228	-5.909	0.503
-1.233	-5.916	0.507
-1.240	-5.918	0.512
-1.248	-5.915	0.516
-1.253	-5.907	0.518
-1.714	-5.996	-0.210
-1.710	-5.989	-0.215
-1.702	-5.988	-0.220
-1.694	-5.991	-0.224
-1.690	-5.999	-0.224
-1.690	-6.008	-0.222
-1.694	-6.015	-0.217
-1.701	-6.016	-0.212
-1.709	-6.013	-0.208
-1.714	-6.005	-0.207
-2.159	-6.318	-0.901
-2.155	-6.314	-0.908
-2.148	-6.314	-0.914
-2.141	-6.320	-0.917
-2.137	-6.328	-0.915
-2.137	-6.336	-0.910
-2.141	-6.340	-0.903
-2.148	-6.339	-0.897
-2.155	-6.334	-0.894
-2.159	-6.325	-0.896
-2.776	-6.733	-1.325
-2.773	-6.731	-1.333
-2.768	-6.735	-1.340
-2.764	-6.742	-1.343
-2.761	-6.751	-1.341
-2.761	-6.757	-1.335
-2.764	-6.759	-1.326
-2.769	-6.756	-1.319
-2.774	-6.748	-1.316
-2.776	-6.739	-1.318
-3.232	-6.868	-1.446
-3.235	-6.859	-1.442
-3.237	-6.851	-1.444
-3.236	-6.844	-1.451
-3.234	-6.843	-1.460
-3.231	-6.847	-1.468
-3.228	-6.855	-1.471
-3.227	-6.864	-1.469
-3.227	-6.870	-1.463
-3.229	-6.872	-1.454
-4.424	-18.789	0.626
-4.425	-18.781	0.631
-4.425	-18.771	0.630
-4.426	-18.765	0.624
-4.427	-18.763	0.615
-4.427	-18.766	0.606
-4.426	-18.774	0.601
-4.425	-18.783	0.602
-4.425	-18.790	0.608
-4.424	-18.792	0.618
-5.311	-18.859	0.655
-5.311	-18.851	0.660
-5.313	-18.842	0.660
-5.314	-18.835	0.654
-5.315	-18.833	0.645
-5.315	-18.836	0.636
-5.315	-18.844	0.631
-5.313	-18.853	0.632
-5.312	-18.860	0.637
-5.311	-18.862	0.646
-5.859	-18.962	0.721
-5.860	-18.955	0.726
-5.862	-18.946	0.726
-5.864	-18.938	0.721
-5.865	-18.936	0.712
-5.866	-18.938	0.704
-5.865	-18.946	0.698
-5.863	-18.955	0.698
-5.861	-18.962	0.703
-5.860	-18.965	0.712
-4.439	-18.915	0.608
-4.430	-18.915	0.608
-4.422	-18.919	0.611
-4.419	-18.927	0.615
-4.422	-18.934	0.620
-4.429	-18.939	0.622
-4.439	-18.940	0.622
-4.446	-18.935	0.619
-4.449	-18.928	0.615
-4.447	-18.920	0.610
-4.412	-19.360	-0.159
-4.403	-19.360	-0.160
-4.395	-19.364	-0.158
-4.391	-19.372	-0.154
-4.393	-19.379	-0.149
-4.400	-19.384	-0.146
-4.410	-19.385	-0.145
-4.418	-19.380	-0.147
-4.421	-19.373	-0.151
-4.419	-19.365	-0.156
-4.530	-19.687	-0.741
-4.521	-19.686	-0.743
-4.513	-19.691	-0.742
-4.508	-19.698	-0.739
-4.510	-19.706	-0.734
-4.516	-19.711	-0.730
-4.525	-19.712	-0.728
-4.534	-19.707	-0.729
-4.538	-19.700	-0.732
-4.536	-19.692	-0.737
-4.433	-19.088	0.614
-4.429	-19.080	0.617
-4.431	-19.071	0.619
-4.437	-19.064	0.619
-4.446	-19.062	0.617
-4.454	-19.066	0.613
-4.457	-19.074	0.610
-4.456	-19.083	0.608
-4.449	-19.089	0.608
-4.441	-19.091	0.611
-4.685	-19.296	1.410
-4.681	-19.289	1.414
-4.683	-19.280	1.416
-4.689	-19.273	1.416
-4.698	-19.271	1.413
-4.706	-19.275	1.409
-4.709	-19.282	1.406
-4.708	-19.291	1.404
-4.701	-19.298	1.404
-4.693	-19.300	1.407
-4.827	-19.416	1.771
-4.823	-19.408	1.775
-4.825	-19.399	1.777
-4.831	-19.393	1.777
-4.840	-19.391	1.774
-4.848	-19.394	1.770
-4.851	-19.402	1.766
-4.849	-19.410	1.764
-4.843	-19.417	1.764
-4.834	-19.419	1.767
-4.453	-19.215	0.610
-4.444	-19.213	0.613
-4.437	-19.216	0.617
-4.433	-19.224	0.621
-4.435	-19.233	0.624
-4.442	-19.239	0.624
-4.451	-19.241	0.621
-4.458	-19.237	0.617
-4.461	-19.230	0.613
-4.459	-19.221	0.610
-4.166	-19.518	-0.132
-4.158	-19.516	-0.129
-4.150	-19.519	-0.125
-4.146	-19.527	-0.121
-4.148	-19.535	-0.119
-4.154	-19.542	-0.119
-4.163	-19.545	-0.122
-4.170	-19.541	-0.127
-4.174	-19.534	-0.130
-4.172	-19.525	-0.132
-3.930	-19.614	-0.651
-3.921	-19.612	-0.648
-3.914	-19.615	-0.644
-3.909	-19.622	-0.641
-3.910	-19.632	-0.639
-3.916	-19.639	-0.641
-3.924	-19.641	-0.644
-3.932	-19.638	-0.648
-3.936	-19.631	-0.651
-3.935	-19.622	-0.653
-4.439	-19.379	0.612
-4.439	-19.370	0.614
-4.444	-19.363	0.619
-4.451	-19.362	0.624
-4.458	-19.366	0.629
-4.462	-19.374	0.630
-4.462	-19.383	0.629
-4.457	-19.390	0.624
-4.450	-19.391	0.618
-4.443	-19.387	0.614
-3.932	-19.504	1.279
-3.932	-19.495	1.280
-3.936	-19.487	1.283
-3.944	-19.485	1.288
-3.951	-19.488	1.292
-3.956	-19.495	1.295
-3.956	-19.505	1.294
-3.952	-19.512	1.290
-3.945	-19.515	1.286
-3.937	-19.512	1.281
-3.753	-19.514	1.660
-3.752	-19.505	1.659
-3.756	-19.497	1.661
-3.763	-19.493	1.665
-3.772	-19.495	1.669
-3.777	-19.501	1.671
-3.779	-19.511	1.672
-3.775	-19.519	1.670
-3.767	-19.523	1.666
-3.759	-19.521	1.662
-4.457	-19.535	0.638
-4.461	-19.527	0.639
-4.462	-19.519	0.635
-4.461	-19.513	0.628
-4.456	-19.513	0.620
-4.451	-19.518	0.614
-4.446	-19.526	0.613
-4.445	-19.534	0.617
-4.447	-19.540	0.624
-4.451	-19.540	0.632
-5.124	-19.819	0.253
-5.129	-19.811	0.252
-5.130	-19.804	0.246
-5.128	-19.800	0.238
-5.123	-19.801	0.230
-5.117	-19.806	0.226
-5.112	-19.814	0.227
-5.111	-19.821	0.232
-5.113	-19.825	0.240
-5.118	-19.824	0.248
-5.605	-20.270	-0.009
-5.597	-20.270	-0.005
-5.588	-20.270	-0.006
-5.581	-20.270	-0.013
-5.580	-20.270	-0.022
-5.584	-20.270	-0.030
-5.592	-20.270	-0.034
-5.601	-20.270	-0.033
-5.608	-20.270	-0.026
-5.609	-20.270	-0.017
-4.449	-19.675	0.622
-4.450	-19.666	0.626
-4.454	-19.662	0.633
-4.460	-19.663	0.640
-4.465	-19.669	0.644
-4.468	-19.678	0.644
-4.467	-19.686	0.640
-4.463	-19.691	0.633
-4.457	-19.690	0.626
-4.452	-19.684	0.622
-3.812	-19.880	1.140
-3.811	-19.871	1.142
-3.816	-19.864	1.147
-3.823	-19.862	1.152
-3.830	-19.866	1.156
-3.835	-19.873	1.157
-3.836	-19.882	1.155
-3.831	-19.889	1.151
-3.824	-19.891	1.146
-3.816	-19.888	1.142
-3.709	-19.945	1.568
-3.709	-19.937	1.572
-3.709	-19.928	1.571
-3.709	-19.921	1.564
-3.709	-19.920	1.555
-3.709	-19.924	1.547
-3.709	-19.932	1.543
-3.709	-19.941	1.544
-3.709	-19.948	1.551
-3.709	-19.949	1.560
-4.456	-19.821	0.628
-4.456	-19.814	0.635
-4.458	-19.812	0.643
-4.463	-19.815	0.651
-4.468	-19.822	0.654
-4.470	-19.831	0.653
-4.471	-19.838	0.646
-4.468	-19.840	0.638
-4.463	-19.837	0.630
-4.459	-19.830	0.627
-3.742	-20.119	0.942
-3.742	-20.112	0.949
-3.745	-20.110	0.957
-3.750	-20.113	0.965
-3.754	-20.121	0.968
-3.757	-20.129	0.967
-3.756	-20.136	0.960
-3.754	-20.138	0.952
-3.749	-20.135	0.944
-3.745	-20.128	0.941
-3.276	-20.279	1.141
-3.276	-20.272	1.147
-3.279	-20.270	1.155
-3.284	-20.273	1.163
-3.288	-20.281	1.167
-3.290	-20.290	1.165
-3.290	-20.297	1.159
-3.287	-20.299	1.150
-3.283	-20.296	1.143
-3.278	-20.288	1.139
-4.465	-19.988	0.654
-4.465	-19.981	0.659
-4.467	-19.972	0.660
-4.470	-19.964	0.655
-4.472	-19.961	0.647
-4.473	-19.964	0.638
-4.472	-19.971	0.632
-4.470	-19.980	0.631
-4.468	-19.987	0.636
-4.466	-19.990	0.645
-5.307	-20.176	0.802
-5.309	-20.168	0.807
-5.311	-20.159	0.807
-5.312	-20.152	0.801
-5.313	-20.149	0.792
-5.312	-20.152	0.784
-5.311	-20.160	0.778
-5.309	-20.169	0.778
-5.307	-20.176	0.784
-5.306	-20.178	0.793
-5.546	-20.231	0.761
-5.549	-20.223	0.765
-5.551	-20.214	0.764
-5.551	-20.208	0.758
-5.550	-20.206	0.749
-5.548	-20.209	0.741
-5.545	-20.217	0.736
-5.544	-20.226	0.737
-5.543	-20.233	0.744
-5.544	-20.235	0.753
-4.467	-20.137	0.652
-4.467	-20.132	0.659
-4.471	-20.124	0.663
-4.476	-20.117	0.661
-4.481	-20.113	0.654
-4.484	-20.114	0.646
-4.484	-20.119	0.638
-4.480	-20.127	0.634
-4.475	-20.134	0.636
-4.469	-20.138	0.643
-5.152	-20.574	0.915
-5.152	-20.569	0.923
-5.156	-20.562	0.928
-5.162	-20.555	0.927
-5.168	-20.551	0.921
-5.172	-20.551	0.913
-5.171	-20.556	0.905
-5.167	-20.563	0.900
-5.161	-20.570	0.901
-5.155	-20.574	0.907
-5.404	-20.843	1.041
-5.404	-20.839	1.050
-5.408	-20.833	1.055
-5.415	-20.826	1.055
-5.422	-20.822	1.050
-5.426	-20.822	1.042
-5.426	-20.826	1.034
-5.422	-20.832	1.028
-5.415	-20.839	1.028
-5.408	-20.843	1.033
-1.318	-6.026	0.546
[...]
         <CellData>
           <DataArray type="Float32" Name="aerenchymaFormation" NumberOfComponents="1" format="ascii">
 6.333e-02 5.100e-02 2.250e-02 0.000e+00 0.000e+00 6.295e-02 4.000e-02 0.000e+00 0.000e+00 5.958e-02 3.750e-02 0.000e+00 0.000e+00 0.000e+00 0.000e+00 0.000e+00 0.000e+00 0.000e+00 0.000e+00 0.000e+00 0.000e+00 0.000e+00 0.000e+00 0.000e+00 0.000e+00 0.000e+00 0.000e+00 0.000e+00 0.000e+00 0.000e+00 0.000e+00 0.000e+00 0.000e+00 5.920e-02 3.750e-02 0.000e+00 0.000e+00 0.000e+00 0.000e+00 0.000e+00 0.000e+00 0.000e+00 0.000e+00 0.000e+00 0.000e+00 0.000e+00 0.000e+00 0.000e+00 0.000e+00 0.000e+00 0.000e+00 0.000e+00 0.000e+00 0.000e+00 0.000e+00 0.000e+00 0.000e+00 5.883e-02 3.750e-02 5.000e-03 0.000e+00 0.000e+00 0.000e+00 0.000e+00 0.000e+00 0.000e+00 0.000e+00 0.000e+00 0.000e+00 0.000e+00 0.000e+00 0.000e+00 0.000e+00 0.000e+00 0.000e+00 0.000e+00 0.000e+00 0.000e+00 0.000e+00 0.000e+00 5.845e-02 3.500e-02 0.000e+00 0.000e+00 0.000e+00 0.000e+00 0.000e+00 0.000e+00 0.000e+00 0.000e+00 0.000e+00 0.000e+00 0.000e+00 0.000e+00 0.000e+00 5.808e-02 3.250e-02 0.000e+00 0.000e+00 0.000e+00 0.000e+00 0.000e+00 0.000e+00 0.000e+00 0.000e+00 0.000e+00 0.000e+00 0.000e+00 0.000e+00 5.770e-02 3.750e-02 7.500e-03 0.000e+00 0.000e+00 0.000e+00 0.000e+00 0.000e+00 0.000e+00 0.000e+00 0.000e+00 0.000e+00 0.000e+00 0.000e+00 0.000e+00 5.733e-02 3.000e-02 0.000e+00 0.000e+00 0.000e+00 0.000e+00 0.000e+00 0.000e+00 0.000e+00 0.000e+00 0.000e+00 0.000e+00 0.000e+00 5.695e-02 3.250e-02 0.000e+00 0.000e+00 5.658e-02 3.250e-02 0.000e+00 0.000e+00 5.620e-02 2.750e-02 0.000e+00 0.000e+00 6.258e-02 5.100e-02 2.500e-02 0.000e+00 0.000e+00 5.583e-02 3.250e-02 0.000e+00 0.000e+00 5.545e-02 2.750e-02 0.000e+00 0.000e+00 5.508e-02 2.250e-02 0.000e+00 0.000e+00 5.470e-02 2.500e-02 0.000e+00 0.000e+00 5.433e-02 2.500e-02 0.000e+00 0.000e+00 5.395e-02 2.500e-02 0.000e+00 0.000e+00 5.358e-02 1.250e-02 0.000e+00 5.320e-02 2.500e-02 0.000e+00 0.000e+00 5.283e-02 1.500e-02 0.000e+00 5.245e-02 1.750e-02 0.000e+00 0.000e+00 6.220e-02 4.250e-02 5.000e-03 0.000e+00 5.208e-02 1.750e-02 0.000e+00 0.000e+00 5.170e-02 1.750e-02 0.000e+00 0.000e+00 5.133e-02 2.500e-02 0.000e+00 0.000e+00 0.000e+00 5.095e-02 1.750e-02 0.000e+00 0.000e+00 5.058e-02 2.000e-02 0.000e+00 0.000e+00 5.020e-02 1.500e-02 0.000e+00 0.000e+00 4.957e-02 1.750e-02 0.000e+00 0.000e+00 4.863e-02 1.250e-02 0.000e+00 0.000e+00 4.769e-02 7.500e-03 0.000e+00 4.675e-02 7.500e-03 0.000e+00 6.183e-02 3.250e-02 0.000e+00 4.582e-02 1.500e-02 0.000e+00 0.000e+00 4.488e-02 5.000e-03 0.000e+00 4.394e-02 1.500e-02 0.000e+00 0.000e+00 0.000e+00 4.300e-02 1.500e-02 0.000e+00 0.000e+00 0.000e+00 4.207e-02 1.000e-02 0.000e+00 0.000e+00 4.113e-02 5.000e-03 0.000e+00 0.000e+00 4.019e-02 1.000e-02 0.000e+00 0.000e+00 3.925e-02 5.000e-03 0.000e+00 0.000e+00 3.832e-02 5.000e-03 0.000e+00 0.000e+00 3.738e-02 7.500e-03 0.000e+00 0.000e+00 6.145e-02 4.250e-02 7.500e-03 0.000e+00 3.644e-02 0.000e+00 0.000e+00 3.550e-02 5.000e-03 0.000e+00 0.000e+00 3.457e-02 0.000e+00 0.000e+00 3.363e-02 0.000e+00 0.000e+00 0.000e+00 3.269e-02 0.000e+00 0.000e+00 0.000e+00 3.175e-02 0.000e+00 0.000e+00 0.000e+00 3.082e-02 0.000e+00 0.000e+00 0.000e+00 2.988e-02 0.000e+00 0.000e+00 2.894e-02 0.000e+00 0.000e+00 0.000e+00 2.800e-02 0.000e+00 0.000e+00 0.000e+00 6.108e-02 4.500e-02 1.250e-02 0.000e+00 2.707e-02 0.000e+00 0.000e+00 2.613e-02 0.000e+00 0.000e+00 0.000e+00 2.519e-02 0.000e+00 0.000e+00 2.425e-02 0.000e+00 0.000e+00 2.332e-02 0.000e+00 0.000e+00 2.238e-02 0.000e+00 0.000e+00 2.144e-02 0.000e+00 0.000e+00 2.050e-02 0.000e+00 0.000e+00 1.957e-02 0.000e+00 0.000e+00 1.863e-02 0.000e+00 0.000e+00 0.000e+00 6.070e-02 3.750e-02 0.000e+00 0.000e+00 1.769e-02 0.000e+00 0.000e+00 1.675e-02 0.000e+00 0.000e+00 1.582e-02 0.000e+00 0.000e+00 1.488e-02 0.000e+00 0.000e+00 1.394e-02 0.000e+00 0.000e+00 0.000e+00 1.300e-02 0.000e+00 0.000e+00 1.207e-02 0.000e+00 0.000e+00 1.113e-02 0.000e+00 0.000e+00 1.019e-02 0.000e+00 0.000e+00 9.254e-03 0.000e+00 0.000e+00 6.033e-02 4.750e-02 2.000e-02 0.000e+00 0.000e+00 8.316e-03 0.000e+00 0.000e+00 7.379e-03 0.000e+00 0.000e+00 6.441e-03 0.000e+00 0.000e+00 5.504e-03 0.000e+00 0.000e+00 4.566e-03 0.000e+00 3.629e-03 0.000e+00 0.000e+00 2.691e-03 0.000e+00 0.000e+00 1.754e-03 0.000e+00 0.000e+00 8.160e-04 0.000e+00 0.000e+00 0.000e+00 0.000e+00 0.000e+00 5.995e-02 3.750e-02 0.000e+00 0.000e+00 0.000e+00 0.000e+00 0.000e+00 0.000e+00 0.000e+00 0.000e+00 0.000e+00 0.000e+00 0.000e+00 0.000e+00 0.000e+00 0.000e+00 0.000e+00 0.000e+00 0.000e+00 0.000e+00 0.000e+00 0.000e+00 0.000e+00 0.000e+00 0.000e+00 0.000e+00 0.000e+00 0.000e+00 9.833e-02 8.800e-02 8.300e-02 8.000e-02 7.700e-02 7.500e-02 7.300e-02 7.100e-02 6.900e-02 6.700e-02 6.500e-02 6.300e-02 6.100e-02 5.900e-02 5.700e-02 5.500e-02 5.300e-02 5.100e-02 4.750e-02 4.250e-02 3.750e-02 3.250e-02 2.750e-02 2.250e-02 1.750e-02 1.250e-02 7.500e-03 2.500e-03 0.000e+00 0.000e+00 0.000e+00 0.000e+00 0.000e+00 0.000e+00 0.000e+00 0.000e+00 0.000e+00 0.000e+00 0.000e+00 0.000e+00 0.000e+00 0.000e+00 0.000e+00 6.333e-02 5.000e-02 1.750e-02 0.000e+00 0.000e+00 6.295e-02 5.200e-02 2.750e-02 0.000e+00 0.000e+00 5.958e-02 4.250e-02 1.250e-02 0.000e+00 0.000e+00 0.000e+00 0.000e+00 0.000e+00 0.000e+00 0.000e+00 0.000e+00 0.000e+00 0.000e+00 0.000e+00 0.000e+00 0.000e+00 0.000e+00 0.000e+00 0.000e+00 0.000e+00 0.000e+00 0.000e+00 0.000e+00 0.000e+00 0.000e+00 0.000e+00 5.920e-02 4.000e-02 7.500e-03 0.000e+00 0.000e+00 0.000e+00 0.000e+00 0.000e+00 0.000e+00 0.000e+00 0.000e+00 0.000e+00 0.000e+00 0.000e+00 0.000e+00 0.000e+00 0.000e+00 0.000e+00 0.000e+00 0.000e+00 0.000e+00 0.000e+00 0.000e+00 0.000e+00 5.883e-02 4.500e-02 1.750e-02 0.000e+00 0.000e+00 0.000e+00 0.000e+00 0.000e+00 0.000e+00 0.000e+00 0.000e+00 0.000e+00 0.000e+00 0.000e+00 0.000e+00 0.000e+00 0.000e+00 0.000e+00 0.000e+00 0.000e+00 0.000e+00 0.000e+00 0.000e+00 5.845e-02 3.750e-02 5.000e-03 0.000e+00 0.000e+00 0.000e+00 0.000e+00 0.000e+00 0.000e+00 0.000e+00 0.000e+00 0.000e+00 0.000e+00 0.000e+00 0.000e+00 0.000e+00 0.000e+00 0.000e+00 5.808e-02 3.250e-02 0.000e+00 0.000e+00 0.000e+00 0.000e+00 0.000e+00 0.000e+00 0.000e+00 0.000e+00 0.000e+00 0.000e+00 0.000e+00 0.000e+00 5.770e-02 3.250e-02 0.000e+00 0.000e+00 0.000e+00 0.000e+00 0.000e+00 0.000e+00 0.000e+00 0.000e+00 0.000e+00 0.000e+00 0.000e+00 0.000e+00 5.733e-02 3.750e-02 7.500e-03 0.000e+00 0.000e+00 0.000e+00 0.000e+00 0.000e+00 0.000e+00 0.000e+00 0.000e+00 0.000e+00 0.000e+00 0.000e+00 5.695e-02 2.250e-02 0.000e+00 5.658e-02 3.250e-02 0.000e+00 0.000e+00 5.620e-02 2.750e-02 0.000e+00 0.000e+00 6.258e-02 5.100e-02 2.250e-02 0.000e+00 0.000e+00 5.583e-02 2.750e-02 0.000e+00 0.000e+00 5.545e-02 2.250e-02 0.000e+00 0.000e+00 5.508e-02 2.750e-02 0.000e+00 0.000e+00 5.470e-02 3.250e-02 2.500e-03 0.000e+00 0.000e+00 5.433e-02 1.500e-02 0.000e+00 5.395e-02 2.250e-02 0.000e+00 0.000e+00 5.358e-02 2.500e-02 0.000e+00 0.000e+00 5.320e-02 2.750e-02 0.000e+00 0.000e+00 5.283e-02 1.500e-02 0.000e+00 5.245e-02 1.750e-02 0.000e+00 0.000e+00 6.220e-02 4.500e-02 1.000e-02 0.000e+00 5.208e-02 1.750e-02 0.000e+00 0.000e+00 5.170e-02 2.250e-02 0.000e+00 0.000e+00 5.133e-02 2.500e-02 0.000e+00 0.000e+00 0.000e+00 5.095e-02 1.750e-02 0.000e+00 0.000e+00 5.058e-02 1.750e-02 0.000e+00 0.000e+00 5.020e-02 2.000e-02 0.000e+00 0.000e+00 4.957e-02 1.250e-02 0.000e+00 0.000e+00 4.863e-02 5.000e-03 0.000e+00 4.769e-02 1.750e-02 0.000e+00 0.000e+00 4.675e-02 1.250e-02 0.000e+00 0.000e+00 6.183e-02 4.750e-02 1.500e-02 0.000e+00 0.000e+00 4.582e-02 7.500e-03 0.000e+00 0.000e+00 4.488e-02 1.250e-02 0.000e+00 0.000e+00 4.394e-02 1.000e-02 0.000e+00 0.000e+00 4.300e-02 1.250e-02 0.000e+00 0.000e+00 4.207e-02 1.000e-02 0.000e+00 0.000e+00 4.113e-02 5.000e-03 0.000e+00 0.000e+00 4.019e-02 5.000e-03 0.000e+00 0.000e+00 3.925e-02 0.000e+00 0.000e+00 3.832e-02 2.500e-03 0.000e+00 0.000e+00 3.738e-02 0.000e+00 0.000e+00 6.145e-02 4.500e-02 1.000e-02 0.000e+00 3.644e-02 2.500e-03 0.000e+00 0.000e+00 3.550e-02 0.000e+00 0.000e+00 3.457e-02 0.000e+00 0.000e+00 3.363e-02 0.000e+00 0.000e+00 3.269e-02 0.000e+00 0.000e+00 3.175e-02 0.000e+00 0.000e+00 0.000e+00 3.082e-02 0.000e+00 0.000e+00 0.000e+00 2.988e-02 0.000e+00 0.000e+00 2.894e-02 0.000e+00 0.000e+00 2.800e-02 0.000e+00 0.000e+00 6.108e-02 4.750e-02 1.750e-02 0.000e+00 0.000e+00 2.707e-02 0.000e+00 0.000e+00 0.000e+00 2.613e-02 0.000e+00 0.000e+00 2.519e-02 0.000e+00 0.000e+00 2.425e-02 0.000e+00 0.000e+00 2.332e-02 0.000e+00 0.000e+00 2.238e-02 0.000e+00 0.000e+00 2.144e-02 0.000e+00 0.000e+00 2.050e-02 0.000e+00 0.000e+00 1.957e-02 0.000e+00 0.000e+00 0.000e+00 1.863e-02 0.000e+00 0.000e+00 6.070e-02 4.750e-02 1.750e-02 0.000e+00 0.000e+00 1.769e-02 0.000e+00 0.000e+00 1.675e-02 0.000e+00 0.000e+00 1.582e-02 0.000e+00 0.000e+00 1.488e-02 0.000e+00 0.000e+00 1.394e-02 0.000e+00 0.000e+00 1.300e-02 0.000e+00 0.000e+00 1.207e-02 0.000e+00 0.000e+00 1.113e-02 0.000e+00 0.000e+00 1.019e-02 0.000e+00 0.000e+00 9.254e-03 0.000e+00 6.033e-02 4.500e-02 1.250e-02 0.000e+00 0.000e+00 8.316e-03 0.000e+00 0.000e+00 7.379e-03 0.000e+00 6.441e-03 0.000e+00 5.504e-03 0.000e+00 0.000e+00 4.566e-03 0.000e+00 0.000e+00 3.629e-03 0.000e+00 0.000e+00 2.691e-03 0.000e+00 0.000e+00 1.754e-03 0.000e+00 8.160e-04 0.000e+00 0.000e+00 0.000e+00 0.000e+00 5.995e-02 4.000e-02 5.000e-03 0.000e+00 0.000e+00 0.000e+00 0.000e+00 0.000e+00 0.000e+00 0.000e+00 0.000e+00 0.000e+00 0.000e+00 0.000e+00 0.000e+00 0.000e+00 0.000e+00 0.000e+00 0.000e+00 0.000e+00 0.000e+00 0.000e+00 0.000e+00 0.000e+00 0.000e+00 0.000e+00 0.000e+00 0.000e+00 0.000e+00 9.833e-02 8.800e-02 8.300e-02 8.000e-02 7.700e-02 7.500e-02 7.300e-02 7.100e-02 6.900e-02 6.700e-02 6.500e-02 6.300e-02 6.100e-02 5.900e-02 5.700e-02 5.500e-02 5.300e-02 5.100e-02 4.750e-02 4.250e-02 3.750e-02 3.250e-02 2.750e-02 2.250e-02 1.750e-02 1.250e-02 7.500e-03 2.500e-03 0.000e+00 0.000e+00 0.000e+00 0.000e+00 0.000e+00 0.000e+00 0.000e+00 0.000e+00 0.000e+00 0.000e+00 0.000e+00 0.000e+00 0.000e+00 0.000e+00 0.000e+00 6.333e-02 5.000e-02 1.750e-02 0.000e+00 0.000e+00 6.295e-02 5.100e-02 2.250e-02 0.000e+00 0.000e+00 5.958e-02 4.500e-02 1.500e-02 0.000e+00 0.000e+00 0.000e+00 0.000e+00 0.000e+00 0.000e+00 0.000e+00 0.000e+00 0.000e+00 0.000e+00 0.000e+00 0.000e+00 0.000e+00 0.000e+00 0.000e+00 0.000e+00 0.000e+00 0.000e+00 0.000e+00 0.000e+00 0.000e+00 0.000e+00 0.000e+00 5.920e-02 3.500e-02 0.000e+00 0.000e+00 0.000e+00 0.000e+00 0.000e+00 0.000e+00 0.000e+00 0.000e+00 0.000e+00 0.000e+00 0.000e+00 0.000e+00 0.000e+00 0.000e+00 0.000e+00 0.000e+00 0.000e+00 0.000e+00 0.000e+00 0.000e+00 0.000e+00 0.000e+00 5.883e-02 3.500e-02 0.000e+00 0.000e+00 0.000e+00 0.000e+00 0.000e+00 0.000e+00 0.000e+00 0.000e+00 0.000e+00 0.000e+00 0.000e+00 0.000e+00 0.000e+00 0.000e+00 0.000e+00 0.000e+00 0.000e+00 0.000e+00 0.000e+00 5.845e-02 4.000e-02 7.500e-03 0.000e+00 0.000e+00 0.000e+00 0.000e+00 0.000e+00 0.000e+00 0.000e+00 0.000e+00 0.000e+00 0.000e+00 0.000e+00 0.000e+00 0.000e+00 0.000e+00 0.000e+00 5.808e-02 3.250e-02 0.000e+00 0.000e+00 0.000e+00 0.000e+00 0.000e+00 0.000e+00 0.000e+00 0.000e+00 0.000e+00 0.000e+00 0.000e+00 0.000e+00 5.770e-02 3.500e-02 0.000e+00 0.000e+00 0.000e+00 0.000e+00 0.000e+00 0.000e+00 0.000e+00 0.000e+00 0.000e+00 0.000e+00 0.000e+00 0.000e+00 5.733e-02 3.000e-02 0.000e+00 0.000e+00 0.000e+00 0.000e+00 0.000e+00 0.000e+00 0.000e+00 0.000e+00 0.000e+00 0.000e+00 0.000e+00 5.695e-02 2.500e-02 0.000e+00 0.000e+00 5.658e-02 3.250e-02 0.000e+00 0.000e+00 5.620e-02 3.000e-02 0.000e+00 0.000e+00 6.258e-02 5.000e-02 1.750e-02 0.000e+00 0.000e+00 5.583e-02 2.500e-02 0.000e+00 0.000e+00 5.545e-02 3.000e-02 0.000e+00 0.000e+00 5.508e-02 3.500e-02 5.000e-03 0.000e+00 0.000e+00 5.470e-02 1.500e-02 0.000e+00 5.433e-02 2.750e-02 0.000e+00 0.000e+00 5.395e-02 2.750e-02 0.000e+00 0.000e+00 5.358e-02 3.000e-02 0.000e+00 0.000e+00 0.000e+00 5.320e-02 2.250e-02 0.000e+00 0.000e+00 5.283e-02 1.500e-02 0.000e+00 5.245e-02 1.750e-02 0.000e+00 0.000e+00 6.220e-02 4.500e-02 1.000e-02 0.000e+00 5.208e-02 2.000e-02 0.000e+00 0.000e+00 5.170e-02 2.000e-02 0.000e+00 0.000e+00 5.133e-02 1.750e-02 0.000e+00 0.000e+00 5.095e-02 1.500e-02 0.000e+00 0.000e+00 5.058e-02 7.500e-03 0.000e+00 5.020e-02 2.000e-02 0.000e+00 0.000e+00 4.957e-02 2.000e-02 0.000e+00 0.000e+00 4.863e-02 1.000e-02 0.000e+00 0.000e+00 4.769e-02 1.500e-02 0.000e+00 0.000e+00 4.675e-02 5.000e-03 0.000e+00 6.183e-02 4.500e-02 1.000e-02 0.000e+00 4.582e-02 1.000e-02 0.000e+00 0.000e+00 4.488e-02 7.500e-03 0.000e+00 0.000e+00 4.394e-02 0.000e+00 0.000e+00 4.300e-02 2.500e-03 0.000e+00 4.207e-02 5.000e-03 0.000e+00 0.000e+00 4.113e-02 7.500e-03 0.000e+00 0.000e+00 4.019e-02 1.250e-02 0.000e+00 0.000e+00 0.000e+00 3.925e-02 5.000e-03 0.000e+00 0.000e+00 3.832e-02 2.500e-03 0.000e+00 0.000e+00 3.738e-02 0.000e+00 0.000e+00 6.145e-02 3.750e-02 0.000e+00 0.000e+00 3.644e-02 2.500e-03 0.000e+00 0.000e+00 3.550e-02 0.000e+00 0.000e+00 3.457e-02 0.000e+00 0.000e+00 3.363e-02 0.000e+00 0.000e+00 0.000e+00 3.269e-02 0.000e+00 0.000e+00 0.000e+00 3.175e-02 0.000e+00 0.000e+00 0.000e+00 3.082e-02 0.000e+00 0.000e+00 0.000e+00 2.988e-02 0.000e+00 0.000e+00 2.894e-02 0.000e+00 0.000e+00 0.000e+00 2.800e-02 0.000e+00 0.000e+00 6.108e-02 4.250e-02 7.500e-03 0.000e+00 2.707e-02 0.000e+00 0.000e+00 2.613e-02 0.000e+00 0.000e+00 2.519e-02 0.000e+00 0.000e+00 0.000e+00 2.425e-02 0.000e+00 0.000e+00 0.000e+00 2.332e-02 0.000e+00 0.000e+00 2.238e-02 0.000e+00 0.000e+00 2.144e-02 0.000e+00 0.000e+00 2.050e-02 0.000e+00 0.000e+00 0.000e+00 1.957e-02 0.000e+00 0.000e+00 1.863e-02 0.000e+00 0.000e+00 6.070e-02 4.000e-02 2.500e-03 0.000e+00 1.769e-02 0.000e+00 0.000e+00 1.675e-02 0.000e+00 1.582e-02 0.000e+00 0.000e+00 1.488e-02 0.000e+00 0.000e+00 1.394e-02 0.000e+00 0.000e+00 1.300e-02 0.000e+00 0.000e+00 1.207e-02 0.000e+00 0.000e+00 1.113e-02 0.000e+00 0.000e+00 1.019e-02 0.000e+00 0.000e+00 9.254e-03 0.000e+00 0.000e+00 6.033e-02 4.000e-02 5.000e-03 0.000e+00 8.316e-03 0.000e+00 0.000e+00 7.379e-03 0.000e+00 0.000e+00 6.441e-03 0.000e+00 0.000e+00 5.504e-03 0.000e+00 0.000e+00 4.566e-03 0.000e+00 3.629e-03 0.000e+00 0.000e+00 2.691e-03 0.000e+00 0.000e+00 1.754e-03 0.000e+00 8.160e-04 0.000e+00 0.000e+00 0.000e+00 0.000e+00 5.995e-02 4.000e-02 5.000e-03 0.000e+00 0.000e+00 0.000e+00 0.000e+00 0.000e+00 0.000e+00 0.000e+00 0.000e+00 0.000e+00 0.000e+00 0.000e+00 0.000e+00 0.000e+00 0.000e+00 0.000e+00 0.000e+00 0.000e+00 0.000e+00 0.000e+00 0.000e+00 0.000e+00 0.000e+00 0.000e+00 0.000e+00 0.000e+00 9.833e-02 8.800e-02 8.300e-02 8.000e-02 7.700e-02 7.500e-02 7.300e-02 7.100e-02 6.900e-02 6.700e-02 6.500e-02 6.300e-02 6.100e-02 5.900e-02 5.700e-02 5.500e-02 5.300e-02 5.100e-02 4.750e-02 4.250e-02 3.750e-02 3.250e-02 2.750e-02 2.250e-02 1.750e-02 1.250e-02 7.500e-03 2.500e-03 0.000e+00 0.000e+00 0.000e+00 0.000e+00 0.000e+00 0.000e+00 0.000e+00 0.000e+00 0.000e+00 0.000e+00 0.000e+00 0.000e+00 0.000e+00 0.000e+00 0.000e+00 6.333e-02 3.750e-02 0.000e+00 6.295e-02 5.100e-02 2.250e-02 0.000e+00 0.000e+00 5.958e-02 3.750e-02 0.000e+00 0.000e+00 0.000e+00 0.000e+00 0.000e+00 0.000e+00 0.000e+00 0.000e+00 0.000e+00 0.000e+00 0.000e+00 0.000e+00 0.000e+00 0.000e+00 0.000e+00 0.000e+00 0.000e+00 0.000e+00 0.000e+00 0.000e+00 0.000e+00 0.000e+00 0.000e+00 5.920e-02 3.500e-02 0.000e+00 0.000e+00 0.000e+00 0.000e+00 0.000e+00 0.000e+00 0.000e+00 0.000e+00 0.000e+00 0.000e+00 0.000e+00 0.000e+00 0.000e+00 0.000e+00 0.000e+00 0.000e+00 0.000e+00 0.000e+00 0.000e+00 0.000e+00 0.000e+00 5.883e-02 2.500e-02 0.000e+00 0.000e+00 0.000e+00 0.000e+00 0.000e+00 0.000e+00 0.000e+00 0.000e+00 0.000e+00 0.000e+00 0.000e+00 0.000e+00 0.000e+00 0.000e+00 0.000e+00 0.000e+00 0.000e+00 5.845e-02 3.000e-02 0.000e+00 0.000e+00 0.000e+00 0.000e+00 0.000e+00 0.000e+00 0.000e+00 0.000e+00 0.000e+00 0.000e+00 0.000e+00 0.000e+00 0.000e+00 0.000e+00 5.808e-02 3.750e-02 5.000e-03 0.000e+00 0.000e+00 0.000e+00 0.000e+00 0.000e+00 0.000e+00 0.000e+00 0.000e+00 0.000e+00 0.000e+00 0.000e+00 5.770e-02 3.500e-02 0.000e+00 0.000e+00 0.000e+00 0.000e+00 0.000e+00 0.000e+00 0.000e+00 0.000e+00 0.000e+00 0.000e+00 0.000e+00 0.000e+00 5.733e-02 3.250e-02 0.000e+00 0.000e+00 0.000e+00 0.000e+00 0.000e+00 0.000e+00 0.000e+00 0.000e+00 0.000e+00 0.000e+00 0.000e+00 5.695e-02 3.500e-02 2.500e-03 0.000e+00 5.658e-02 2.000e-02 0.000e+00 5.620e-02 3.000e-02 0.000e+00 0.000e+00 6.258e-02 4.250e-02 2.500e-03 0.000e+00 5.583e-02 2.750e-02 0.000e+00 0.000e+00 5.545e-02 2.500e-02 0.000e+00 0.000e+00 5.508e-02 3.250e-02 2.500e-03 0.000e+00 0.000e+00 5.470e-02 3.250e-02 2.500e-03 0.000e+00 0.000e+00 5.433e-02 2.500e-02 0.000e+00 0.000e+00 5.395e-02 2.500e-02 0.000e+00 0.000e+00 5.358e-02 2.250e-02 0.000e+00 0.000e+00 5.320e-02 1.500e-02 0.000e+00 5.283e-02 2.000e-02 0.000e+00 0.000e+00 5.245e-02 2.750e-02 0.000e+00 0.000e+00 0.000e+00 6.220e-02 5.000e-02 2.000e-02 0.000e+00 0.000e+00 5.208e-02 1.750e-02 0.000e+00 0.000e+00 5.170e-02 2.250e-02 0.000e+00 0.000e+00 5.133e-02 2.250e-02 0.000e+00 0.000e+00 5.095e-02 2.250e-02 0.000e+00 0.000e+00 0.000e+00 5.058e-02 5.000e-03 0.000e+00 5.020e-02 1.000e-02 0.000e+00 4.957e-02 1.500e-02 0.000e+00 0.000e+00 4.863e-02 1.250e-02 0.000e+00 0.000e+00 4.769e-02 1.500e-02 0.000e+00 0.000e+00 4.675e-02 1.000e-02 0.000e+00 0.000e+00 6.183e-02 5.100e-02 2.500e-02 0.000e+00 0.000e+00 4.582e-02 1.000e-02 0.000e+00 0.000e+00 4.488e-02 7.500e-03 0.000e+00 0.000e+00 4.394e-02 7.500e-03 0.000e+00 0.000e+00 4.300e-02 1.000e-02 0.000e+00 0.000e+00 4.207e-02 2.500e-03 0.000e+00 4.113e-02 1.000e-02 0.000e+00 0.000e+00 4.019e-02 0.000e+00 0.000e+00 3.925e-02 0.000e+00 0.000e+00 3.832e-02 0.000e+00 0.000e+00 3.738e-02 7.500e-03 0.000e+00 0.000e+00 6.145e-02 4.000e-02 0.000e+00 0.000e+00 3.644e-02 2.500e-03 0.000e+00 0.000e+00 3.550e-02 7.500e-03 0.000e+00 0.000e+00 3.457e-02 0.000e+00 0.000e+00 3.363e-02 5.000e-03 0.000e+00 0.000e+00 3.269e-02 0.000e+00 0.000e+00 0.000e+00 3.175e-02 0.000e+00 0.000e+00 3.082e-02 0.000e+00 0.000e+00 2.988e-02 0.000e+00 0.000e+00 2.894e-02 0.000e+00 0.000e+00 0.000e+00 2.800e-02 0.000e+00 0.000e+00 6.108e-02 4.250e-02 7.500e-03 0.000e+00 2.707e-02 0.000e+00 0.000e+00 2.613e-02 0.000e+00 0.000e+00 0.000e+00 2.519e-02 0.000e+00 0.000e+00 2.425e-02 0.000e+00 0.000e+00 0.000e+00 2.332e-02 0.000e+00 0.000e+00 2.238e-02 0.000e+00 0.000e+00 2.144e-02 0.000e+00 0.000e+00 2.050e-02 0.000e+00 0.000e+00 0.000e+00 1.957e-02 0.000e+00 0.000e+00 0.000e+00 1.863e-02 0.000e+00 0.000e+00 6.070e-02 4.250e-02 1.000e-02 0.000e+00 1.769e-02 0.000e+00 0.000e+00 1.675e-02 0.000e+00 0.000e+00 0.000e+00 1.582e-02 0.000e+00 0.000e+00 1.488e-02 0.000e+00 0.000e+00 1.394e-02 0.000e+00 0.000e+00 1.300e-02 0.000e+00 0.000e+00 1.207e-02 0.000e+00 0.000e+00 1.113e-02 0.000e+00 0.000e+00 1.019e-02 0.000e+00 0.000e+00 9.254e-03 0.000e+00 0.000e+00 6.033e-02 2.750e-02 0.000e+00 8.316e-03 0.000e+00 0.000e+00 7.379e-03 0.000e+00 0.000e+00 6.441e-03 0.000e+00 0.000e+00 5.504e-03 0.000e+00 0.000e+00 4.566e-03 0.000e+00 0.000e+00 3.629e-03 0.000e+00 2.691e-03 0.000e+00 0.000e+00 1.754e-03 0.000e+00 0.000e+00 8.160e-04 0.000e+00 0.000e+00 0.000e+00 0.000e+00 5.995e-02 3.750e-02 0.000e+00 0.000e+00 0.000e+00 0.000e+00 0.000e+00 0.000e+00 0.000e+00 0.000e+00 0.000e+00 0.000e+00 0.000e+00 0.000e+00 0.000e+00 0.000e+00 0.000e+00 0.000e+00 0.000e+00 0.000e+00 0.000e+00 0.000e+00 0.000e+00 0.000e+00 0.000e+00 0.000e+00 0.000e+00 0.000e+00 9.833e-02 8.800e-02 8.300e-02 8.000e-02 7.700e-02 7.500e-02 7.300e-02 7.100e-02 6.900e-02 6.700e-02 6.500e-02 6.300e-02 6.100e-02 5.900e-02 5.700e-02 5.500e-02 5.300e-02 5.100e-02 4.750e-02 4.250e-02 3.750e-02 3.250e-02 2.750e-02 2.250e-02 1.750e-02 1.250e-02 7.500e-03 2.500e-03 0.000e+00 0.000e+00 0.000e+00 0.000e+00 0.000e+00 0.000e+00 0.000e+00 0.000e+00 0.000e+00 0.000e+00 0.000e+00 0.000e+00 0.000e+00 0.000e+00 0.000e+00 1.875e-02 0.000e+00 0.000e+00 1.782e-02 0.000e+00 0.000e+00 9.378e-03 0.000e+00 0.000e+00 8.441e-03 0.000e+00 0.000e+00 7.503e-03 0.000e+00 0.000e