<?xml version="1.0"?>
<VTKFile type="UnstructuredGrid" version="0.1" byte_order="LittleEndian">
   <UnstructuredGrid>
      <Piece NumberOfPoints="1440" NumberOfCells="95">
         <Points>
            <DataArray type="Float32" Name="Position" NumberOfComponents="3" format="ascii">
0.017	-5.017	0.010
0.016	-5.004	0.026
0.009	-4.986	0.033
-0.002	-4.969	0.026
-0.012	-4.960	0.010
-0.018	-4.963	-0.010
-0.017	-4.976	-0.026
-0.010	-4.995	-0.032
0.001	-5.011	-0.026
0.011	-5.020	-0.010
-0.649	-5.360	0.241
-0.650	-5.349	0.258
-0.658	-5.332	0.267
-0.671	-5.316	0.264
-0.684	-5.306	0.250
-0.691	-5.307	0.231
-0.690	-5.319	0.213
-0.682	-5.336	0.204
-0.668	-5.352	0.207
-0.656	-5.361	0.221
-1.234	-5.948	0.516
-1.234	-5.941	0.536
-1.243	-5.928	0.549
-1.259	-5.914	0.551
-1.275	-5.905	0.541
-1.285	-5.904	0.523
-1.285	-5.911	0.503
-1.276	-5.924	0.490
-1.260	-5.938	0.488
-1.244	-5.947	0.498
-1.635	-6.450	0.666
-1.635	-6.440	0.685
-1.635	-6.443	0.705
-1.635	-6.458	0.720
-1.635	-6.479	0.724
-1.635	-6.498	0.714
-1.635	-6.507	0.695
-1.635	-6.504	0.674
-1.635	-6.489	0.660
-1.635	-6.468	0.656
0.027	-5.004	-0.014
0.032	-4.985	-0.006
0.025	-4.968	0.004
0.008	-4.960	0.013
-0.012	-4.963	0.017
-0.028	-4.976	0.014
-0.034	-4.995	0.006
-0.026	-5.012	-0.004
-0.009	-5.020	-0.013
0.011	-5.017	-0.017
0.214	-5.343	0.673
0.219	-5.325	0.684
0.212	-5.310	0.696
0.195	-5.302	0.705
0.174	-5.305	0.708
0.158	-5.318	0.704
0.153	-5.335	0.693
0.160	-5.350	0.681
0.177	-5.358	0.672
0.197	-5.355	0.669
0.345	-5.919	1.323
0.351	-5.905	1.337
0.345	-5.892	1.352
0.328	-5.885	1.362
0.307	-5.887	1.364
0.290	-5.897	1.356
0.284	-5.912	1.342
0.291	-5.925	1.327
0.308	-5.932	1.317
0.329	-5.930	1.315
0.416	-6.443	1.759
0.423	-6.430	1.774
0.416	-6.418	1.789
0.399	-6.411	1.800
0.378	-6.413	1.801
0.361	-6.422	1.793
0.355	-6.436	1.778
0.362	-6.448	1.762
0.379	-6.454	1.751
0.400	-6.453	1.750
0.004	-4.969	-0.026
0.010	-4.959	-0.008
0.011	-4.961	0.012
0.008	-4.974	0.029
0.002	-4.993	0.034
-0.005	-5.011	0.026
-0.011	-5.021	0.009
-0.012	-5.019	-0.012
-0.009	-5.006	-0.028
-0.003	-4.987	-0.034
0.746	-5.238	-0.105
0.753	-5.228	-0.088
0.755	-5.230	-0.067
0.751	-5.242	-0.051
0.742	-5.260	-0.045
0.732	-5.278	-0.052
0.726	-5.288	-0.069
0.724	-5.286	-0.090
0.728	-5.274	-0.107
0.737	-5.256	-0.112
1.479	-5.729	-0.195
1.488	-5.721	-0.178
1.490	-5.722	-0.157
1.484	-5.733	-0.140
1.472	-5.749	-0.133
1.459	-5.764	-0.140
1.450	-5.773	-0.157
1.448	-5.772	-0.178
1.455	-5.761	-0.195
1.466	-5.745	-0.201
1.983	-6.193	-0.260
1.992	-6.185	-0.243
1.994	-6.186	-0.223
1.987	-6.196	-0.205
1.974	-6.212	-0.199
1.960	-6.226	-0.205
1.950	-6.234	-0.222
1.949	-6.233	-0.243
1.956	-6.223	-0.260
1.969	-6.208	-0.266
-0.021	-4.964	-0.006
-0.002	-4.958	-0.013
0.018	-4.965	-0.014
0.031	-4.982	-0.010
0.031	-5.001	-0.003
0.020	-5.017	0.006
0.001	-5.022	0.013
-0.019	-5.015	0.014
-0.032	-4.998	0.011
-0.032	-4.979	0.003
-0.182	-5.255	-0.730
-0.162	-5.255	-0.735
-0.144	-5.265	-0.734
-0.134	-5.282	-0.726
-0.138	-5.300	-0.715
-0.152	-5.311	-0.704
-0.173	-5.311	-0.699
-0.191	-5.301	-0.700
-0.200	-5.284	-0.708
-0.197	-5.266	-0.720
-0.375	-5.808	-1.399
-0.356	-5.806	-1.406
-0.336	-5.813	-1.405
-0.323	-5.827	-1.395
-0.323	-5.842	-1.380
-0.335	-5.853	-1.366
-0.354	-5.855	-1.359
-0.374	-5.848	-1.360
-0.386	-5.834	-1.370
-0.387	-5.819	-1.385
-0.474	-6.323	-1.847
-0.455	-6.332	-1.842
-0.446	-6.345	-1.829
-0.449	-6.358	-1.812
-0.463	-6.366	-1.799
-0.484	-6.365	-1.794
-0.502	-6.356	-1.799
-0.512	-6.343	-1.812
-0.509	-6.330	-1.829
-0.494	-6.322	-1.842
-0.146	-5.004	0.151
-0.030	-5.002	0.208
0.098	-4.998	0.186
0.188	-4.996	0.093
0.207	-4.995	-0.036
0.146	-4.996	-0.151
0.030	-4.998	-0.208
-0.098	-5.002	-0.186
-0.188	-5.004	-0.093
-0.207	-5.005	0.036
-0.165	-4.253	0.152
-0.050	-4.251	0.209
0.077	-4.250	0.188
0.167	-4.248	0.096
0.186	-4.247	-0.031
0.127	-4.248	-0.145
0.012	-4.249	-0.202
-0.115	-4.251	-0.181
-0.205	-4.253	-0.089
-0.224	-4.253	0.038
-0.169	-3.291	0.152
-0.055	-3.290	0.209
0.071	-3.290	0.189
0.161	-3.290	0.099
0.181	-3.290	-0.027
0.123	-3.290	-0.141
0.009	-3.290	-0.199
-0.117	-3.291	-0.178
-0.207	-3.291	-0.088
-0.227	-3.291	0.038
-0.170	-2.400	0.148
-0.057	-2.400	0.206
0.068	-2.400	0.186
0.158	-2.400	0.096
0.178	-2.401	-0.029
0.121	-2.401	-0.142
0.007	-2.401	-0.200
-0.118	-2.400	-0.180
-0.208	-2.400	-0.091
-0.228	-2.400	0.035
-0.168	-1.801	0.149
-0.055	-1.801	0.206
0.070	-1.801	0.186
0.160	-1.801	0.097
0.180	-1.801	-0.028
0.122	-1.800	-0.141
0.009	-1.800	-0.199
-0.116	-1.800	-0.179
-0.205	-1.800	-0.089
-0.225	-1.800	0.036
-0.167	-1.201	0.151
-0.054	-1.201	0.208
0.070	-1.201	0.188
0.159	-1.200	0.098
0.179	-1.200	-0.027
0.121	-1.200	-0.139
0.008	-1.200	-0.196
-0.116	-1.200	-0.176
-0.205	-1.200	-0.087
-0.225	-1.201	0.038
-0.170	-0.301	0.153
-0.058	-0.301	0.210
0.066	-0.301	0.190
0.155	-0.300	0.101
0.175	-0.300	-0.024
0.117	-0.300	-0.136
0.005	-0.300	-0.193
-0.119	-0.300	-0.173
-0.208	-0.300	-0.084
-0.228	-0.301	0.041
-0.169	0.560	0.152
-0.057	0.560	0.209
0.067	0.559	0.190
0.156	0.559	0.101
0.176	0.559	-0.023
0.119	0.559	-0.135
0.007	0.560	-0.192
-0.117	0.560	-0.173
-0.206	0.560	-0.084
-0.226	0.560	0.040
-0.166	1.440	0.153
-0.055	1.440	0.209
0.069	1.440	0.190
0.157	1.439	0.102
0.177	1.439	-0.022
0.120	1.439	-0.134
0.009	1.439	-0.191
-0.115	1.440	-0.171
-0.203	1.440	-0.083
-0.223	1.440	0.041
-0.166	2.316	0.149
-0.055	2.316	0.206
0.068	2.316	0.186
0.156	2.316	0.098
0.176	2.316	-0.025
0.119	2.316	-0.135
0.008	2.316	-0.192
-0.115	2.316	-0.173
-0.203	2.316	-0.085
-0.222	2.316	0.038
-0.164	2.570	0.148
-0.054	2.569	0.204
0.068	2.569	0.185
0.155	2.569	0.098
0.175	2.569	-0.024
0.119	2.569	-0.134
0.009	2.570	-0.191
-0.113	2.570	-0.171
-0.201	2.570	-0.084
-0.220	2.570	0.038
-0.001	-5.111	0.006
0.002	-5.104	0.010
0.003	-5.095	0.009
0.002	-5.088	0.004
-0.002	-5.085	-0.005
-0.006	-5.088	-0.012
-0.009	-5.096	-0.016
-0.011	-5.105	-0.015
-0.009	-5.112	-0.009
-0.006	-5.115	-0.001
-0.771	-4.964	0.381
-0.769	-4.957	0.385
-0.769	-4.947	0.385
-0.770	-4.940	0.379
-0.773	-4.938	0.371
-0.777	-4.941	0.363
-0.779	-4.949	0.358
-0.780	-4.958	0.359
-0.778	-4.965	0.364
-0.775	-4.968	0.373
-1.129	-4.951	0.475
-1.121	-4.947	0.475
-1.112	-4.948	0.475
-1.105	-4.955	0.475
-1.104	-4.964	0.475
-1.108	-4.972	0.475
-1.116	-4.976	0.475
-1.125	-4.975	0.475
-1.132	-4.968	0.475
-1.133	-4.959	0.475
-0.003	-5.192	-0.018
0.001	-5.188	-0.010
0.002	-5.189	-0.001
-0.001	-5.194	0.006
-0.006	-5.201	0.009
-0.012	-5.208	0.006
-0.016	-5.211	-0.001
-0.017	-5.211	-0.010
-0.014	-5.206	-0.018
-0.009	-5.199	-0.021
0.650	-5.712	-0.131
0.654	-5.708	-0.124
0.654	-5.708	-0.115
0.649	-5.711	-0.107
0.643	-5.717	-0.104
0.637	-5.723	-0.107
0.633	-5.727	-0.114
0.633	-5.728	-0.123
0.638	-5.725	-0.131
0.644	-5.719	-0.134
0.938	-6.108	0.014
0.942	-6.104	0.021
0.940	-6.101	0.030
0.934	-6.103	0.037
0.927	-6.107	0.040
0.920	-6.113	0.037
0.917	-6.118	0.030
0.919	-6.120	0.021
0.924	-6.119	0.014
0.932	-6.114	0.011
-0.009	-6.109	-0.059
-0.010	-6.105	-0.051
-0.015	-6.099	-0.045
-0.021	-6.092	-0.046
-0.027	-6.088	-0.051
-0.030	-6.087	-0.060
-0.030	-6.091	-0.068
-0.025	-6.097	-0.073
-0.019	-6.104	-0.073
-0.013	-6.108	-0.068
-0.618	-6.691	0.133
-0.619	-6.688	0.142
-0.623	-6.682	0.147
-0.630	-6.675	0.147
-0.636	-6.670	0.141
-0.639	-6.670	0.133
-0.638	-6.673	0.124
-0.634	-6.680	0.119
-0.627	-6.686	0.119
-0.621	-6.691	0.125
-0.017	-6.209	-0.061
-0.015	-6.201	-0.056
-0.015	-6.192	-0.056
-0.017	-6.185	-0.062
-0.020	-6.182	-0.070
-0.023	-6.185	-0.078
-0.025	-6.193	-0.083
-0.024	-6.202	-0.083
-0.022	-6.210	-0.077
-0.019	-6.212	-0.069
-0.805	-6.210	0.222
-0.804	-6.202	0.227
-0.804	-6.193	0.226
-0.805	-6.186	0.220
-0.807	-6.183	0.212
-0.809	-6.187	0.203
-0.810	-6.195	0.198
-0.810	-6.204	0.199
-0.809	-6.211	0.205
-0.807	-6.213	0.214
-0.987	-6.183	0.226
-0.979	-6.179	0.226
-0.970	-6.180	0.226
-0.963	-6.187	0.226
-0.962	-6.196	0.226
-0.966	-6.204	0.226
-0.974	-6.209	0.226
-0.984	-6.207	0.226
-0.990	-6.201	0.226
-0.992	-6.191	0.226
-0.009	-6.308	-0.078
-0.006	-6.300	-0.073
-0.008	-6.291	-0.071
-0.014	-6.285	-0.071
-0.023	-6.283	-0.074
-0.030	-6.286	-0.078
-0.034	-6.294	-0.082
-0.032	-6.303	-0.084
-0.026	-6.309	-0.084
-0.017	-6.311	-0.082
-0.294	-6.581	0.671
-0.291	-6.573	0.675
-0.293	-6.564	0.677
-0.299	-6.558	0.677
-0.308	-6.556	0.675
-0.315	-6.559	0.671
-0.319	-6.567	0.666
-0.317	-6.576	0.664
-0.310	-6.582	0.664
-0.302	-6.584	0.667
-0.021	-6.386	-0.096
-0.014	-6.383	-0.090
-0.010	-6.386	-0.082
-0.009	-6.393	-0.076
-0.013	-6.401	-0.073
-0.019	-6.407	-0.076
-0.026	-6.410	-0.082
-0.030	-6.407	-0.089
-0.031	-6.400	-0.096
-0.027	-6.392	-0.098
0.491	-6.750	-0.504
0.500	-6.746	-0.504
0.509	-6.748	-0.504
0.515	-6.754	-0.504
0.517	-6.763	-0.504
0.513	-6.771	-0.504
0.504	-6.776	-0.504
0.495	-6.774	-0.504
0.489	-6.768	-0.504
0.487	-6.759	-0.504
-0.016	-6.507	-0.080
-0.020	-6.500	-0.077
-0.023	-6.492	-0.078
-0.024	-6.485	-0.085
-0.021	-6.482	-0.093
-0.017	-6.485	-0.101
-0.013	-6.493	-0.105
-0.010	-6.501	-0.103
-0.009	-6.508	-0.097
-0.012	-6.510	-0.088
-0.714	-6.807	-0.353
-0.719	-6.800	-0.349
-0.722	-6.791	-0.351
-0.722	-6.784	-0.357
-0.720	-6.782	-0.366
-0.716	-6.785	-0.373
-0.711	-6.792	-0.377
-0.708	-6.801	-0.376
-0.708	-6.807	-0.369
-0.710	-6.810	-0.361
-0.016	-6.584	-0.103
-0.011	-6.581	-0.096
-0.006	-6.584	-0.089
-0.004	-6.592	-0.084
-0.005	-6.601	-0.083
-0.008	-6.608	-0.087
-0.014	-6.611	-0.094
-0.018	-6.608	-0.102
-0.021	-6.601	-0.106
-0.020	-6.592	-0.107
0.699	-6.673	-0.607
0.704	-6.670	-0.600
0.709	-6.673	-0.592
0.712	-6.680	-0.587
0.711	-6.690	-0.587
0.707	-6.697	-0.591
0.702	-6.700	-0.598
0.697	-6.697	-0.605
0.695	-6.690	-0.610
0.695	-6.680	-0.611
-0.010	-6.684	-0.108
-0.002	-6.683	-0.104
0.004	-6.687	-0.098
0.006	-6.694	-0.093
0.002	-6.702	-0.089
-0.005	-6.708	-0.090
-0.014	-6.709	-0.093
-0.020	-6.705	-0.099
-0.021	-6.698	-0.105
-0.018	-6.690	-0.108
0.257	-7.025	-0.594
0.261	-7.025	-0.585
0.260	-7.025	-0.576
0.253	-7.025	-0.570
0.244	-7.025	-0.568
0.236	-7.025	-0.573
0.232	-7.025	-0.581
0.233	-7.025	-0.590
0.240	-7.025	-0.597
0.249	-7.025	-0.598
-0.010	-6.784	-0.107
-0.003	-6.781	-0.101
0.004	-6.784	-0.096
[...]
         <CellData>
           <DataArray type="Float32" Name="aerenchymaFormation" NumberOfComponents="1" format="ascii">
 0.000e+00 0.000e+00 0.000e+00 0.000e+00 0.000e+00 0.000e+00 0.000e+00 0.000e+00 0.000e+00 0.000e+00 0.000e+00 0.000e+00 0.000e+00 0.000e+00 0.000e+00 0.000e+00 0.000e+00 0.000e+00 0.000e+00 0.000e+00 0.000e+00 0.000e+00 0.000e+00 0.000e+00 0.000e+00 0.000e+00 0.000e+00 0.000e+00 0.000e+00 0.000e+00 0.000e+00 0.000e+00 0.000e+00 0.000e+00 0.000e+00 0.000e+00 0.000e+00 0.000e+00 0.000e+00 0.000e+00 0.000e+00 0.000e+00 0.000e+00 0.000e+00 0.000e+00 0.000e+00 0.000e+00 0.000e+00 0.000e+00 0.000e+00 0.000e+00 0.000e+00 0.000e+00 0.000e+00 0.000e+00 0.000e+00 0.000e+00 0.000e+00 0.000e+00 0.000e+00 0.000e+00 0.000e+00 0.000e+00 0.000e+00 0.000e+00 0.000e+00 0.000e+00 0.000e+00 0.000e+00 0.000e+00 0.000e+00 0.000e+00 0.000e+00 0.000e+00 0.000e+00 0.000e+00 6.000e-02 5.700e-02 5.400e-02 5.100e-02 4.500e-02 3.750e-02 2.750e-02 2.000e-02 1.250e-02 2.500e-03 0.000e+00 0.000e+00 0.000e+00 0.000e+00 0.000e+00 0.000e+00 0.000e+00 0.000e+00 0.000e+00
           </DataArray>
           <DataArray type="Float32" Name="combinedRootClassID" NumberOfComponents="1" format="ascii">
 -5.000e+00 -5.000e+00 -5.000e+00 -5.000e+00 -5.000e+00 -5.000e+00 -5.000e+00 -5.000e+00 -5.000e+00 -5.000e+00 -5.000e+00 -5.000e+00 -2.000e+00 -2.000e+00 -2.000e+00 -2.000e+00 -2.000e+00 -2.000e+00 -2.000e+00 -2.000e+00 -2.000e+00 -2.000e+00 -7.000e+00 -7.000e+00 -7.000e+00 -7.000e+00 -7.000e+00 -7.000e+00 -7.000e+00 -7.000e+00 -7.000e+00 -7.000e+00 -7.000e+00 -7.000e+00 -7.000e+00 -7.000e+00 -7.000e+00 -7.000e+00 -7.000e+00 -7.000e+00 -7.000e+00 -7.000e+00 -7.000e+00 -7.000e+00 -7.000e+00 -7.000e+00 -7.000e+00 -7.000e+00 -7.000e+00 -7.000e+00 -7.000e+00 -7.000e+00 -7.000e+00 -7.000e+00 -7.000e+00 -7.000e+00 -7.000e+00 -7.000e+00 -7.000e+00 -7.000e+00 -7.000e+00 -7.000e+00 -7.000e+00 -7.000e+00 -7.000e+00 -7.000e+00 -7.000e+00 -7.000e+00 -7.000e+00 -7.000e+00 -7.000e+00 -7.000e+00 -7.000e+00 -7.000e+00 -9.000e+00 -9.000e+00 -4.000e+00 -4.000e+00 -4.000e+00 -4.000e+00 -4.000e+00 -4.000e+00 -4.000e+00 -4.000e+00 -4.000e+00 -4.000e+00 -4.000e+00 -4.000e+00 -4.000e+00 -4.000e+00 -4.000e+00 -4.000e+00 -4.000e+00 -4.000e+00 -4.000e+00
           </DataArray>
           <DataArray type="Float32" Name="nitrate/Cmin" NumberOfComponents="1" format="ascii">
 1.000e-03 1.000e-03 1.000e-03 1.000e-03 1.000e-03 1.000e-03 1.000e-03 1.000e-03 1.000e-03 1.000e-03 1.000e-03 1.000e-03 1.000e-03 1.000e-03 1.000e-03 1.000e-03 1.000e-03 1.000e-03 1.000e-03 1.000e-03 1.000e-03 1.000e-03 1.000e-03 1.000e-03 1.000e-03 1.000e-03 1.000e-03 1.000e-03 1.000e-03 1.000e-03 1.000e-03 1.000e-03 1.000e-03 1.000e-03 1.000e-03 1.000e-03 1.000e-03 1.000e-03 1.000e-03 1.000e-03 1.000e-03 1.000e-03 1.000e-03 1.000e-03 1.000e-03 1.000e-03 1.000e-03 1.000e-03 1.000e-03 1.000e-03 1.000e-03 1.000e-03 1.000e-03 1.000e-03 1.000e-03 1.000e-03 1.000e-03 1.000e-03 1.000e-03 1.000e-03 1.000e-03 1.000e-03 1.000e-03 1.000e-03 1.000e-03 1.000e-03 1.000e-03 1.000e-03 1.000e-03 1.000e-03 1.000e-03 1.000e-03 1.000e-03 1.000e-03 1.000e-03 1.000e-03 1.000e-03 1.000e-03 1.000e-03 1.000e-03 1.000e-03 1.000e-03 1.000e-03 1.000e-03 1.000e-03 1.000e-03 1.000e-03 1.000e-03 1.000e-03 1.000e-03 1.000e-03 1.000e-03 1.000e-03 1.000e-03 1.000e-03
           </DataArray>
           <DataArray type="Float32" Name="nitrate/Imax" NumberOfComponents="1" format="ascii">
 1.900e+00 1.900e+00 1.900e+00 1.900e+00 1.900e+00 1.900e+00 1.900e+00 1.900e+00 1.900e+00 1.900e+00 1.900e+00 1.900e+00 1.900e+00 1.900e+00 1.900e+00 1.900e+00 1.900e+00 1.900e+00 1.900e+00 1.900e+00 1.900e+00 1.900e+00 1.900e+00 1.900e+00 1.900e+00 1.900e+00 1.900e+00 1.900e+00 1.900e+00 1.900e+00 1.900e+00 1.900e+00 1.900e+00 1.900e+00 1.900e+00 1.900e+00 1.900e+00 1.900e+00 1.900e+00 1.900e+00 1.900e+00 1.900e+00 1.900e+00 1.900e+00 1.900e+00 1.900e+00 1.900e+00 1.900e+00 1.900e+00 1.900e+00 1.900e+00 1.900e+00 1.900e+00 1.900e+00 1.900e+00 1.900e+00 1.900e+00 1.900e+00 1.900e+00 1.900e+00 1.900e+00 1.900e+00 1.900e+00 1.900e+00 1.900e+00 1.900e+00 1.900e+00 1.900e+00 1.900e+00 1.900e+00 1.900e+00 1.900e+00 1.900e+00 1.900e+00 1.900e+00 1.900e+00 1.900e+00 1.900e+00 1.900e+00 1.900e+00 1.900e+00 1.900e+00 1.900e+00 1.900e+00 1.900e+00 1.900e+00 1.900e+00 1.900e+00 1.900e+00 1.900e+00 1.900e+00 1.900e+00 1.900e+00 1.900e+00 1.900e+00
           </DataArray>
           <DataArray type="Float32" Name="nitrate/Km" NumberOfComponents="1" format="ascii">
 1.610e-02 1.610e-02 1.610e-02 1.610e-02 1.610e-02 1.610e-02 1.610e-02 1.610e-02 1.610e-02 1.610e-02 1.610e-02 1.610e-02 1.610e-02 1.610e-02 1.610e-02 1.610e-02 1.610e-02 1.610e-02 1.610e-02 1.610e-02 1.610e-02 1.610e-02 1.610e-02 1.610e-02 1.610e-02 1.610e-02 1.610e-02 1.610e-02 1.610e-02 1.610e-02 1.610e-02 1.610e-02 1.610e-02 1.610e-02 1.610e-02 1.610e-02 1.610e-02 1.610e-02 1.610e-02 1.610e-02 1.610e-02 1.610e-02 1.610e-02 1.610e-02 1.610e-02 1.610e-02 1.610e-02 1.610e-02 1.610e-02 1.610e-02 1.610e-02 1.610e-02 1.610e-02 1.610e-02 1.610e-02 1.610e-02 1.610e-02 1.610e-02 1.610e-02 1.610e-02 1.610e-02 1.610e-02 1.610e-02 1.610e-02 1.610e-02 1.610e-02 1.610e-02 1.610e-02 1.610e-02 1.610e-02 1.610e-02 1.610e-02 1.610e-02 1.610e-02 1.610e-02 1.610e-02 1.610e-02 1.610e-02 1.610e-02 1.610e-02 1.610e-02 1.610e-02 1.610e-02 1.610e-02 1.610e-02 1.610e-02 1.610e-02 1.610e-02 1.610e-02 1.610e-02 1.610e-02 1.610e-02 1.610e-02 1.610e-02 1.610e-02
           </DataArray>
           <DataArray type="Float32" Name="nitrate/minimalNutrientConcentration" NumberOfComponents="1" format="ascii">
 6.000e+02 6.000e+02 6.000e+02 6.000e+02 6.000e+02 6.000e+02 6.000e+02 6.000e+02 6.000e+02 6.000e+02 6.000e+02 6.000e+02 6.000e+02 6.000e+02 6.000e+02 6.000e+02 6.000e+02 6.000e+02 6.000e+02 6.000e+02 6.000e+02 6.000e+02 6.000e+02 6.000e+02 6.000e+02 6.000e+02 6.000e+02 6.000e+02 6.000e+02 6.000e+02 6.000e+02 6.000e+02 6.000e+02 6.000e+02 6.000e+02 6.000e+02 6.000e+02 6.000e+02 6.000e+02 6.000e+02 6.000e+02 6.000e+02 6.000e+02 6.000e+02 6.000e+02 6.000e+02 6.000e+02 6.000e+02 6.000e+02 6.000e+02 6.000e+02 6.000e+02 6.000e+02 6.000e+02 6.000e+02 6.000e+02 6.000e+02 6.000e+02 6.000e+02 6.000e+02 6.000e+02 6.000e+02 6.000e+02 6.000e+02 6.000e+02 6.000e+02 6.000e+02 6.000e+02 6.000e+02 6.000e+02 6.000e+02 6.000e+02 6.000e+02 6.000e+02 6.000e+02 6.000e+02 6.000e+02 6.000e+02 6.000e+02 6.000e+02 6.000e+02 6.000e+02 6.000e+02 6.000e+02 6.000e+02 6.000e+02 6.000e+02 6.000e+02 6.000e+02 6.000e+02 6.000e+02 6.000e+02 6.000e+02 6.000e+02 6.000e+02
           </DataArray>
           <DataArray type="Float32" Name="nitrate/nutrientConcentrationAtTheRootSurface" NumberOfComponents="1" format="ascii">
 1.675e+00 1.773e+00 2.114e+00 1.675e+00 1.788e+00 2.117e+00 1.675e+00 1.810e+00 2.095e+00 1.675e+00 1.802e+00 2.114e+00 1.677e+00 1.394e+00 1.062e+00 8.129e-01 6.766e-01 6.059e-01 4.217e-01 0.000e+00 0.000e+00 0.000e+00 1.752e+00 1.671e+00 1.770e+00 1.982e+00 2.081e+00 2.092e+00 2.091e+00 2.106e+00 2.124e+00 2.145e+00 2.166e+00 2.184e+00 2.199e+00 2.210e+00 2.239e+00 1.795e+00 1.706e+00 2.271e+00 2.277e+00 2.285e+00 2.295e+00 2.306e+00 2.317e+00 2.327e+00 2.334e+00 2.339e+00 2.357e+00 1.826e+00 1.942e+00 2.384e+00 2.391e+00 2.401e+00 2.414e+00 2.428e+00 2.442e+00 2.454e+00 2.463e+00 2.470e+00 1.361e+00 1.861e+00 1.943e+00 6.569e-01 1.896e+00 1.890e+00 1.927e+00 2.056e+00 1.952e+00 2.067e+00 1.971e+00 2.072e+00 2.015e+00 2.035e+00 2.305e+00 2.448e+00 1.677e+00 1.929e+00 2.127e+00 2.272e+00 2.335e+00 2.433e+00 2.563e+00 2.661e+00 2.732e+00 2.829e+00 2.933e+00 2.925e+00 3.164e+00 3.341e+00 3.467e+00 3.537e+00 3.633e+00 3.716e+00 3.763e+00
           </DataArray>
           <DataArray type="Float32" Name="nitrate/optimalNutrientConcentration" NumberOfComponents="1" format="ascii">
 1.200e+03 1.200e+03 1.200e+03 1.200e+03 1.200e+03 1.200e+03 1.200e+03 1.200e+03 1.200e+03 1.200e+03 1.200e+03 1.200e+03 1.200e+03 1.200e+03 1.200e+03 1.200e+03 1.200e+03 1.200e+03 1.200e+03 1.200e+03 1.200e+03 1.200e+03 1.200e+03 1.200e+03 1.200e+03 1.200e+03 1.200e+03 1.200e+03 1.200e+03 1.200e+03 1.200e+03 1.200e+03 1.200e+03 1.200e+03 1.200e+03 1.200e+03 1.200e+03 1.200e+03 1.200e+03 1.200e+03 1.200e+03 1.200e+03 1.200e+03 1.200e+03 1.200e+03 1.200e+03 1.200e+03 1.200e+03 1.200e+03 1.200e+03 1.200e+03 1.200e+03 1.200e+03 1.200e+03 1.200e+03 1.200e+03 1.200e+03 1.200e+03 1.200e+03 1.200e+03 1.200e+03 1.200e+03 1.200e+03 1.200e+03 1.200e+03 1.200e+03 1.200e+03 1.200e+03 1.200e+03 1.200e+03 1.200e+03 1.200e+03 1.200e+03 1.200e+03 1.200e+03 1.200e+03 1.200e+03 1.200e+03 1.200e+03 1.200e+03 1.200e+03 1.200e+03 1.200e+03 1.200e+03 1.200e+03 1.200e+03 1.200e+03 1.200e+03 1.200e+03 1.200e+03 1.200e+03 1.200e+03 1.200e+03 1.200e+03 1.200e+03
           </DataArray>
           <DataArray type="Float32" Name="nitrate/rootSegmentMinimalNutrientContent" NumberOfComponents="1" format="ascii">
 1.632e-01 1.811e-01 1.406e-01 1.632e-01 1.811e-01 1.406e-01 1.632e-01 1.811e-01 1.406e-01 1.632e-01 1.811e-01 1.406e-01 5.806e+00 7.305e+00 6.690e+00 4.488e+00 4.462e+00 6.659e+00 6.322e+00 6.436e+00 6.333e+00 1.809e+00 3.562e-02 1.464e-02 3.643e-02 2.036e-02 3.571e-02 3.579e-02 6.824e-03 3.511e-02 3.194e-02 3.302e-02 3.611e-02 2.798e-02 3.652e-02 2.999e-02 3.055e-02 3.405e-02 1.106e-02 3.090e-02 2.620e-02 2.426e-02 2.240e-02 2.439e-02 2.256e-02 1.755e-02 1.977e-02 1.853e-02 1.616e-02 3.552e-02 1.632e-02 1.401e-02 1.311e-02 1.185e-02 1.107e-02 7.838e-03 6.397e-03 6.203e-03 4.643e-03 3.298e-03 1.637e-03 3.362e-02 2.132e-02 6.243e-04 3.551e-02 1.287e-02 3.382e-02 5.362e-03 3.637e-02 1.428e-02 3.318e-02 1.360e-02 3.461e-02 6.105e-03 3.507e-02 1.142e-02 3.227e-01 3.135e-01 3.050e-01 2.972e-01 2.901e-01 3.789e-01 2.780e-01 2.745e-01 3.617e-01 2.674e-01 2.649e-01 3.501e-01 2.600e-01 2.583e-01 2.569e-01 2.557e-01 2.549e-01 2.542e-01 2.538e-01
           </DataArray>
           <DataArray type="Float32" Name="nitrate/rootSegmentNutrientUptake" NumberOfComponents="1" format="ascii">
 0.000e+00 2.082e-01 5.418e-02 0.000e+00 2.082e-01 5.419e-02 0.000e+00 2.082e-01 5.419e-02 0.000e+00 2.082e-01 5.419e-02 0.000e+00 5.575e+00 4.419e+00 3.453e+00 2.786e+00 2.217e+00 1.290e+00 5.794e-02 0.000e+00 0.000e+00 0.000e+00 1.955e-02 0.000e+00 3.176e-02 0.000e+00 0.000e+00 4.562e-03 0.000e+00 0.000e+00 0.000e+00 0.000e+00 0.000e+00 0.000e+00 0.000e+00 0.000e+00 0.000e+00 1.231e-02 0.000e+00 0.000e+00 0.000e+00 0.000e+00 0.000e+00 0.000e+00 0.000e+00 0.000e+00 0.000e+00 0.000e+00 0.000e+00 2.180e-02 0.000e+00 0.000e+00 0.000e+00 0.000e+00 0.000e+00 0.000e+00 0.000e+00 0.000e+00 0.000e+00 0.000e+00 0.000e+00 3.325e-02 0.000e+00 0.000e+00 1.433e-02 0.000e+00 3.583e-03 0.000e+00 1.591e-02 0.000e+00 1.515e-02 0.000e+00 4.080e-03 0.000e+00 0.000e+00 0.000e+00 2.183e+00 2.058e+00 1.936e+00 1.814e+00 2.234e+00 1.535e+00 1.417e+00 1.708e+00 1.144e+00 1.028e+00 1.192e+00 7.595e-01 6.450e-01 5.307e-01 4.167e-01 3.029e-01 1.892e-01 7.566e-02
           </DataArray>
           <DataArray type="Float32" Name="nitrate/rootSegmentOptimalNutrientContent" NumberOfComponents="1" format="ascii">
 3.265e-01 3.621e-01 2.812e-01 3.265e-01 3.621e-01 2.812e-01 3.265e-01 3.621e-01 2.812e-01 3.265e-01 3.621e-01 2.812e-01 1.161e+01 1.461e+01 1.338e+01 8.976e+00 8.924e+00 1.332e+01 1.264e+01 1.287e+01 1.267e+01 3.619e+00 7.124e-02 2.929e-02 7.287e-02 4.073e-02 7.142e-02 7.157e-02 1.365e-02 7.022e-02 6.387e-02 6.603e-02 7.221e-02 5.597e-02 7.304e-02 5.999e-02 6.110e-02 6.811e-02 2.213e-02 6.179e-02 5.240e-02 4.851e-02 4.481e-02 4.877e-02 4.512e-02 3.509e-02 3.954e-02 3.707e-02 3.233e-02 7.105e-02 3.263e-02 2.803e-02 2.623e-02 2.370e-02 2.214e-02 1.568e-02 1.279e-02 1.241e-02 9.285e-03 6.595e-03 3.275e-03 6.724e-02 4.265e-02 1.249e-03 7.101e-02 2.574e-02 6.764e-02 1.072e-02 7.275e-02 2.856e-02 6.636e-02 2.719e-02 6.922e-02 1.221e-02 7.015e-02 2.285e-02 6.454e-01 6.270e-01 6.100e-01 5.944e-01 5.802e-01 7.578e-01 5.560e-01 5.489e-01 7.234e-01 5.349e-01 5.298e-01 7.003e-01 5.199e-01 5.166e-01 5.138e-01 5.115e-01 5.097e-01 5.084e-01 5.077e-01
           </DataArray>
           <DataArray type="Float32" Name="parentRootClassID" NumberOfComponents="1" format="ascii">
 -2.000e+00 -2.000e+00 -2.000e+00 -2.000e+00 -2.000e+00 -2.000e+00 -2.000e+00 -2.000e+00 -2.000e+00 -2.000e+00 -2.000e+00 -2.000e+00 -3.000e+00 -3.000e+00 -3.000e+00 -3.000e+00 -3.000e+00 -3.000e+00 -3.000e+00 -3.000e+00 -3.000e+00 -3.000e+00 -4.000e+00 -4.000e+00 -4.000e+00 -4.000e+00 -4.000e+00 -4.000e+00 -4.000e+00 -4.000e+00 -4.000e+00 -4.000e+00 -4.000e+00 -4.000e+00 -4.000e+00 -4.000e+00 -4.000e+00 -4.000e+00 -4.000e+00 -4.000e+00 -4.000e+00 -4.000e+00 -4.000e+00 -4.000e+00 -4.000e+00 -4.000e+00 -4.000e+00 -4.000e+00 -4.000e+00 -4.000e+00 -4.000e+00 -4.000e+00 -4.000e+00 -4.000e+00 -4.000e+00 -4.000e+00 -4.000e+00 -4.000e+00 -4.000e+00 -4.000e+00 -4.000e+00 -4.000e+00 -4.000e+00 -4.000e+00 -4.000e+00 -4.000e+00 -4.000e+00 -4.000e+00 -4.000e+00 -4.000e+00 -4.000e+00 -4.000e+00 -4.000e+00 -4.000e+00 -4.000e+00 -4.000e+00 -3.000e+00 -3.000e+00 -3.000e+00 -3.000e+00 -3.000e+00 -3.000e+00 -3.000e+00 -3.000e+00 -3.000e+00 -3.000e+00 -3.000e+00 -3.000e+00 -3.000e+00 -3.000e+00 -3.000e+00 -3.000e+00 -3.000e+00 -3.000e+00 -3.000e+00
           </DataArray>
           <DataArray type="Float32" Name="plantID" NumberOfComponents="1" format="ascii">
 7.000e+00 7.000e+00 7.000e+00 7.000e+00 7.000e+00 7.000e+00 7.000e+00 7.000e+00 7.000e+00 7.000e+00 7.000e+00 7.000e+00 7.000e+00 7.000e+00 7.000e+00 7.000e+00 7.000e+00 7.000e+00 7.000e+00 7.000e+00 7.000e+00 7.000e+00 7.000e+00 7.000e+00 7.000e+00 7.000e+00 7.000e+00 7.000e+00 7.000e+00 7.000e+00 7.000e+00 7.000e+00 7.000e+00 7.000e+00 7.000e+00 7.000e+00 7.000e+00 7.000e+00 7.000e+00 7.000e+00 7.000e+00 7.000e+00 7.000e+00 7.000e+00 7.000e+00 7.000e+00 7.000e+00 7.000e+00 7.000e+00 7.000e+00 7.000e+00 7.000e+00 7.000e+00 7.000e+00 7.000e+00 7.000e+00 7.000e+00 7.000e+00 7.000e+00 7.000e+00 7.000e+00 7.000e+00 7.000e+00 7.000e+00 7.000e+00 7.000e+00 7.000e+00 7.000e+00 7.000e+00 7.000e+00 7.000e+00 7.000e+00 7.000e+00 7.000e+00 7.000e+00 7.000e+00 7.000e+00 7.000e+00 7.000e+00 7.000e+00 7.000e+00 7.000e+00 7.000e+00 7.000e+00 7.000e+00 7.000e+00 7.000e+00 7.000e+00 7.000e+00 7.000e+00 7.000e+00 7.000e+00 7.000e+00 7.000e+00 7.000e+00
           </DataArray>
           <DataArray type="Float32" Name="plantTypeID" NumberOfComponents="1" format="ascii">
 0.000e+00 0.000e+00 0.000e+00 0.000e+00 0.000e+00 0.000e+00 0.000e+00 0.000e+00 0.000e+00 0.000e+00 0.000e+00 0.000e+00 0.000e+00 0.000e+00 0.000e+00 0.000e+00 0.000e+00 0.000e+00 0.000e+00 0.000e+00 0.000e+00 0.000e+00 0.000e+00 0.000e+00 0.000e+00 0.000e+00 0.000e+00 0.000e+00 0.000e+00 0.000e+00 0.000e+00 0.000e+00 0.000e+00 0.000e+00 0.000e+00 0.000e+00 0.000e+00 0.000e+00 0.000e+00 0.000e+00 0.000e+00 0.000e+00 0.000e+00 0.000e+00 0.000e+00 0.000e+00 0.000e+00 0.000e+00 0.000e+00 0.000e+00 0.000e+00 0.000e+00 0.000e+00 0.000e+00 0.000e+00 0.000e+00 0.000e+00 0.000e+00 0.000e+00 0.000e+00 0.000e+00 0.000e+00 0.000e+00 0.000e+00 0.000e+00 0.000e+00 0.000e+00 0.000e+00 0.000e+00 0.000e+00 0.000e+00 0.000e+00 0.000e+00 0.000e+00 0.000e+00 0.000e+00 0.000e+00 0.000e+00 0.000e+00 0.000e+00 0.000e+00 0.000e+00 0.000e+00 0.000e+00 0.000e+00 0.000e+00 0.000e+00 0.000e+00 0.000e+00 0.000e+00 0.000e+00 0.000e+00 0.000e+00 0.000e+00 0.000e+00
           </DataArray>
           <DataArray type="Float32" Name="potassium/Cmin" NumberOfComponents="1" format="ascii">
 2.000e-03 2.000e-03 2.000e-03 2.000e-03 2.000e-03 2.000e-03 2.000e-03 2.000e-03 2.000e-03 2.000e-03 2.000e-03 2.000e-03 2.000e-03 2.000e-03 2.000e-03 2.000e-03 2.000e-03 2.000e-03 2.000e-03 2.000e-03 2.000e-03 2.000e-03 2.000e-03 2.000e-03 2.000e-03 2.000e-03 2.000e-03 2.000e-03 2.000e-03 2.000e-03 2.000e-03 2.000e-03 2.000e-03 2.000e-03 2.000e-03 2.000e-03 2.000e-03 2.000e-03 2.000e-03 2.000e-03 2.000e-03 2.000e-03 2.000e-03 2.000e-03 2.000e-03 2.000e-03 2.000e-03 2.000e-03 2.000e-03 2.000e-03 2.000e-03 2.000e-03 2.000e-03 2.000e-03 2.000e-03 2.000e-03 2.000e-03 2.000e-03 2.000e-03 2.000e-03 2.000e-03 2.000e-03 2.000e-03 2.000e-03 2.000e-03 2.000e-03 2.000e-03 2.000e-03 2.000e-03 2.000e-03 2.000e-03 2.000e-03 2.000e-03 2.000e-03 2.000e-03 2.000e-03 2.000e-03 2.000e-03 2.000e-03 2.000e-03 2.000e-03 2.000e-03 2.000e-03 2.000e-03 2.000e-03 2.000e-03 2.000e-03 2.000e-03 2.000e-03 2.000e-03 2.000e-03 2.000e-03 2.000e-03 2.000e-03 2.000e-03
           </DataArray>
           <DataArray type="Float32" Name="potassium/Imax" NumberOfComponents="1" format="ascii">
 4.670e-01 4.670e-01 4.670e-01 4.670e-01 4.670e-01 4.670e-01 4.670e-01 4.670e-01 4.670e-01 4.670e-01 4.670e-01 4.670e-01 4.670e-01 4.670e-01 4.670e-01 4.670e-01 4.670e-01 4.670e-01 4.670e-01 4.670e-01 4.670e-01 4.670e-01 4.670e-01 4.670e-01 4.670e-01 4.670e-01 4.670e-01 4.670e-01 4.670e-01 4.670e-01 4.670e-01 4.670e-01 4.670e-01 4.670e-01 4.670e-01 4.670e-01 4.670e-01 4.670e-01 4.670e-01 4.670e-01 4.670e-01 4.670e-01 4.670e-01 4.670e-01 4.670e-01 4.670e-01 4.670e-01 4.670e-01 4.670e-01 4.670e-01 4.670e-01 4.670e-01 4.670e-01 4.670e-01 4.670e-01 4.670e-01 4.670e-01 4.670e-01 4.670e-01 4.670e-01 4.670e-01 4.670e-01 4.670e-01 4.670e-01 4.670e-01 4.670e-01 4.670e-01 4.670e-01 4.670e-01 4.670e-01 4.670e-01 4.670e-01 4.670e-01 4.670e-01 4.670e-01 4.670e-01 4.670e-01 4.670e-01 4.670e-01 4.670e-01 4.670e-01 4.670e-01 4.670e-01 4.670e-01 4.670e-01 4.670e-01 4.670e-01 4.670e-01 4.670e-01 4.670e-01 4.670e-01 4.670e-01 4.670e-01 4.670e-01 4.670e-01
           </DataArray>
           <DataArray type="Float32" Name="potassium/Km" NumberOfComponents="1" format="ascii">
 3.900e-02 3.900e-02 3.900e-02 3.900e-02 3.900e-02 3.900e-02 3.900e-02 3.900e-02 3.900e-02 3.900e-02 3.900e-02 3.900e-02 3.900e-02 3.900e-02 3.900e-02 3.900e-02 3.900e-02 3.900e-02 3.900e-02 3.900e-02 3.900e-02 3.900e-02 3.900e-02 3.900e-02 3.900e-02 3.900e-02 3.900e-02 3.900e-02 3.900e-02 3.900e-02 3.900e-02 3.900e-02 3.900e-02 3.900e-02 3.900e-02 3.900e-02 3.900e-02 3.900e-02 3.900e-02 3.900e-02 3.900e-02 3.900e-02 3.900e-02 3.900e-02 3.900e-02 3.900e-02 3.900e-02 3.900e-02 3.900e-02 3.900e-02 3.900e-02 3.900e-02 3.900e-02 3.900e-02 3.900e-02 3.900e-02 3.900e-02 3.900e-02 3.900e-02 3.900e-02 3.900e-02 3.900e-02 3.900e-02 3.900e-02 3.900e-02 3.900e-02 3.900e-02 3.900e-02 3.900e-02 3.900e-02 3.900e-02 3.900e-02 3.900e-02 3.900e-02 3.900e-02 3.900e-02 3.900e-02 3.900e-02 3.900e-02 3.900e-02 3.900e-02 3.900e-02 3.900e-02 3.900e-02 3.900e-02 3.900e-02 3.900e-02 3.900e-02 3.900e-02 3.900e-02 3.900e-02 3.900e-02 3.900e-02 3.900e-02 3.900e-02
           </DataArray>
           <DataArray type="Float32" Name="potassium/minimalNutrientConcentration" NumberOfComponents="1" format="ascii">
 1.680e+02 1.680e+02 1.680e+02 1.680e+02 1.680e+02 1.680e+02 1.680e+02 1.680e+02 1.680e+02 1.680e+02 1.680e+02 1.680e+02 1.680e+02 1.680e+02 1.680e+02 1.680e+02 1.680e+02 1.680e+02 1.680e+02 1.680e+02 1.680e+02 1.680e+02 1.680e+02 1.680e+02 1.680e+02 1.680e+02 1.680e+02 1.680e+02 1.680e+02 1.680e+02 1.680e+02 1.680e+02 1.680e+02 1.680e+02 1.680e+02 1.680e+02 1.680e+02 1.680e+02 1.680e+02 1.680e+02 1.680e+02 1.680e+02 1.680e+02 1.680e+02 1.680e+02 1.680e+02 1.680e+02 1.680e+02 1.680e+02 1.680e+02 1.680e+02 1.680e+02 1.680e+02 1.680e+02 1.680e+02 1.680e+02 1.680e+02 1.680e+02 1.680e+02 1.680e+02 1.680e+02 1.680e+02 1.680e+02 1.680e+02 1.680e+02 1.680e+02 1.680e+02 1.680e+02 1.680e+02 1.680e+02 1.680e+02 1.680e+02 1.680e+02 1.680e+02 1.680e+02 1.680e+02 1.680e+02 1.680e+02 1.680e+02 1.680e+02 1.680e+02 1.680e+02 1.680e+02 1.680e+02 1.680e+02 1.680e+02 1.680e+02 1.680e+02 1.680e+02 1.680e+02 1.680e+02 1.680e+02 1.680e+02 1.680e+02 1.680e+02
           </DataArray>
           <DataArray type="Float32" Name="potassium/nutrientConcentrationAtTheRootSurface" NumberOfComponents="1" format="ascii">