<?xml version="1.0"?>
<VTKFile type="UnstructuredGrid" version="0.1" byte_order="LittleEndian">
   <UnstructuredGrid>
      <Piece NumberOfPoints="4750" NumberOfCells="338">
         <Points>
            <DataArray type="Float32" Name="Position" NumberOfComponents="3" format="ascii">
-0.131	-5.025	0.024
-0.127	-5.025	0.032
-0.128	-5.025	0.041
-0.134	-5.025	0.048
-0.143	-5.026	0.050
-0.152	-5.027	0.046
-0.156	-5.028	0.038
-0.155	-5.028	0.029
-0.149	-5.027	0.022
-0.140	-5.026	0.020
-0.106	-5.262	0.026
-0.101	-5.261	0.034
-0.102	-5.261	0.044
-0.108	-5.262	0.050
-0.117	-5.263	0.052
-0.126	-5.264	0.048
-0.130	-5.264	0.040
-0.129	-5.264	0.031
-0.123	-5.264	0.024
-0.114	-5.263	0.022
-0.287	-5.074	0.083
-0.282	-5.068	0.079
-0.274	-5.066	0.074
-0.266	-5.070	0.071
-0.262	-5.078	0.070
-0.262	-5.087	0.072
-0.267	-5.094	0.076
-0.275	-5.095	0.081
-0.283	-5.091	0.085
-0.287	-5.083	0.086
-0.363	-5.103	-0.047
-0.358	-5.096	-0.051
-0.350	-5.094	-0.056
-0.343	-5.098	-0.060
-0.338	-5.106	-0.060
-0.338	-5.116	-0.058
-0.343	-5.122	-0.054
-0.351	-5.124	-0.049
-0.359	-5.120	-0.046
-0.363	-5.112	-0.045
-0.399	-5.155	0.133
-0.398	-5.147	0.138
-0.398	-5.138	0.138
-0.401	-5.130	0.133
-0.404	-5.128	0.125
-0.406	-5.131	0.116
-0.408	-5.138	0.111
-0.407	-5.147	0.111
-0.405	-5.155	0.116
-0.402	-5.158	0.125
-0.582	-5.167	0.195
-0.581	-5.160	0.200
-0.581	-5.151	0.201
-0.584	-5.143	0.195
-0.587	-5.141	0.187
-0.589	-5.144	0.179
-0.591	-5.151	0.174
-0.590	-5.160	0.173
-0.588	-5.168	0.179
-0.585	-5.170	0.187
-0.510	-5.229	0.169
-0.507	-5.221	0.171
-0.509	-5.212	0.173
-0.517	-5.207	0.175
-0.526	-5.207	0.176
-0.533	-5.212	0.176
-0.536	-5.221	0.174
-0.534	-5.229	0.172
-0.526	-5.235	0.170
-0.517	-5.235	0.169
-0.496	-5.254	0.291
-0.493	-5.245	0.292
-0.495	-5.236	0.294
-0.502	-5.231	0.296
-0.512	-5.231	0.297
-0.519	-5.236	0.297
-0.522	-5.245	0.296
-0.520	-5.254	0.294
-0.512	-5.259	0.292
-0.503	-5.259	0.291
-0.630	-5.318	0.228
-0.628	-5.311	0.233
-0.628	-5.302	0.233
-0.631	-5.294	0.229
-0.636	-5.291	0.221
-0.640	-5.294	0.213
-0.642	-5.301	0.208
-0.642	-5.311	0.208
-0.639	-5.318	0.212
-0.634	-5.321	0.220
-0.706	-5.323	0.270
-0.704	-5.316	0.275
-0.704	-5.306	0.275
-0.707	-5.299	0.270
-0.712	-5.296	0.263
-0.716	-5.299	0.255
-0.718	-5.306	0.250
-0.718	-5.316	0.250
-0.715	-5.323	0.254
-0.710	-5.326	0.262
-0.738	-5.410	0.278
-0.736	-5.403	0.283
-0.736	-5.393	0.283
-0.739	-5.386	0.278
-0.742	-5.383	0.270
-0.746	-5.386	0.262
-0.748	-5.394	0.257
-0.748	-5.403	0.257
-0.746	-5.411	0.262
-0.742	-5.413	0.270
-0.819	-5.411	0.315
-0.817	-5.404	0.320
-0.817	-5.395	0.320
-0.819	-5.387	0.315
-0.823	-5.384	0.307
-0.827	-5.387	0.299
-0.829	-5.395	0.294
-0.829	-5.404	0.294
-0.826	-5.412	0.299
-0.823	-5.414	0.307
-0.859	-5.489	0.328
-0.856	-5.482	0.324
-0.849	-5.479	0.318
-0.842	-5.481	0.313
-0.836	-5.489	0.311
-0.835	-5.498	0.312
-0.838	-5.505	0.316
-0.845	-5.508	0.322
-0.852	-5.506	0.327
-0.858	-5.498	0.329
-0.898	-5.507	0.276
-0.890	-5.507	0.280
-0.881	-5.507	0.278
-0.874	-5.507	0.272
-0.873	-5.507	0.263
-0.877	-5.507	0.254
-0.885	-5.507	0.250
-0.894	-5.507	0.252
-0.901	-5.507	0.258
-0.902	-5.507	0.267
-0.938	-5.600	0.366
-0.935	-5.591	0.368
-0.937	-5.582	0.370
-0.945	-5.577	0.372
-0.954	-5.577	0.373
-0.961	-5.582	0.373
-0.965	-5.591	0.371
-0.962	-5.599	0.369
-0.955	-5.605	0.367
-0.945	-5.605	0.366
-0.934	-5.608	0.404
-0.931	-5.599	0.406
-0.933	-5.591	0.408
-0.941	-5.585	0.410
-0.950	-5.585	0.411
-0.958	-5.591	0.411
-0.961	-5.599	0.409
-0.958	-5.608	0.407
-0.951	-5.613	0.405
-0.941	-5.613	0.404
-1.046	-5.703	0.426
-1.045	-5.695	0.432
-1.045	-5.686	0.432
-1.048	-5.679	0.427
-1.051	-5.676	0.419
-1.054	-5.679	0.411
-1.056	-5.686	0.405
-1.055	-5.696	0.405
-1.053	-5.703	0.410
-1.049	-5.706	0.418
-1.069	-5.704	0.436
-1.068	-5.697	0.441
-1.068	-5.688	0.441
-1.071	-5.680	0.436
-1.074	-5.677	0.428
-1.077	-5.680	0.420
-1.079	-5.688	0.415
-1.079	-5.697	0.415
-1.076	-5.705	0.420
-1.072	-5.707	0.428
0.017	-5.018	0.010
0.016	-5.004	0.026
0.009	-4.986	0.033
-0.002	-4.969	0.027
-0.013	-4.960	0.010
-0.018	-4.963	-0.010
-0.017	-4.976	-0.026
-0.010	-4.995	-0.032
0.001	-5.012	-0.026
0.011	-5.020	-0.010
-0.649	-5.360	0.241
-0.650	-5.349	0.258
-0.658	-5.332	0.267
-0.671	-5.316	0.264
-0.684	-5.306	0.250
-0.691	-5.307	0.231
-0.690	-5.319	0.213
-0.682	-5.336	0.204
-0.668	-5.352	0.207
-0.656	-5.361	0.221
-1.234	-5.948	0.516
-1.234	-5.941	0.536
-1.243	-5.928	0.549
-1.259	-5.914	0.551
-1.275	-5.905	0.541
-1.285	-5.904	0.523
-1.285	-5.911	0.503
-1.276	-5.924	0.490
-1.260	-5.938	0.488
-1.244	-5.947	0.498
-1.608	-6.493	0.682
-1.607	-6.488	0.702
-1.616	-6.477	0.718
-1.633	-6.466	0.723
-1.651	-6.457	0.715
-1.662	-6.455	0.698
-1.664	-6.460	0.678
-1.654	-6.470	0.662
-1.638	-6.482	0.657
-1.620	-6.490	0.665
-1.984	-7.177	0.855
-1.981	-7.173	0.876
-1.990	-7.165	0.893
-2.007	-7.155	0.900
-2.026	-7.147	0.894
-2.039	-7.144	0.878
-2.041	-7.147	0.857
-2.032	-7.156	0.840
-2.015	-7.166	0.833
-1.997	-7.174	0.839
-2.226	-7.714	0.955
-2.223	-7.712	0.976
-2.231	-7.705	0.994
-2.248	-7.697	1.003
-2.268	-7.690	0.999
-2.282	-7.686	0.983
-2.285	-7.688	0.963
-2.277	-7.695	0.945
-2.260	-7.703	0.936
-2.240	-7.710	0.940
-2.445	-8.320	1.044
-2.441	-8.319	1.065
-2.449	-8.314	1.084
-2.466	-8.307	1.094
-2.485	-8.300	1.091
-2.500	-8.296	1.076
-2.504	-8.297	1.056
-2.496	-8.302	1.037
-2.479	-8.309	1.027
-2.460	-8.316	1.030
-2.681	-8.980	1.092
-2.676	-8.980	1.112
-2.684	-8.977	1.132
-2.701	-8.971	1.142
-2.720	-8.964	1.140
-2.735	-8.959	1.127
-2.740	-8.959	1.106
-2.733	-8.962	1.087
-2.716	-8.969	1.076
-2.696	-8.975	1.078
-2.914	-9.698	1.102
-2.909	-9.699	1.123
-2.916	-9.697	1.142
-2.933	-9.691	1.154
-2.953	-9.685	1.153
-2.968	-9.681	1.139
-2.974	-9.679	1.119
-2.966	-9.682	1.099
-2.950	-9.687	1.088
-2.930	-9.693	1.089
-3.138	-10.460	1.109
-3.132	-10.462	1.129
-3.139	-10.460	1.149
-3.155	-10.455	1.161
-3.175	-10.450	1.160
-3.191	-10.445	1.148
-3.197	-10.444	1.127
-3.191	-10.445	1.108
-3.174	-10.450	1.096
-3.154	-10.455	1.096
-3.343	-11.232	1.094
-3.336	-11.234	1.114
-3.342	-11.233	1.134
-3.359	-11.229	1.146
-3.379	-11.224	1.146
-3.396	-11.219	1.134
-3.402	-11.217	1.114
-3.396	-11.219	1.094
-3.379	-11.223	1.082
-3.359	-11.228	1.082
-3.535	-12.008	1.074
-3.528	-12.010	1.094
-3.534	-12.010	1.114
-3.550	-12.006	1.127
-3.570	-12.002	1.128
-3.587	-11.997	1.116
-3.594	-11.994	1.096
-3.588	-11.995	1.076
-3.572	-11.998	1.063
-3.551	-12.003	1.062
-3.719	-12.783	1.017
-3.712	-12.786	1.036
-3.717	-12.786	1.057
-3.733	-12.784	1.070
-3.754	-12.779	1.072
-3.771	-12.775	1.061
-3.778	-12.772	1.041
-3.773	-12.771	1.021
-3.757	-12.774	1.007
-3.737	-12.778	1.006
-3.798	-13.173	0.984
-3.790	-13.176	1.003
-3.795	-13.177	1.023
-3.811	-13.175	1.037
-3.832	-13.171	1.039
-3.849	-13.166	1.028
-3.857	-13.163	1.009
-3.852	-13.162	0.988
-3.836	-13.164	0.975
-3.816	-13.168	0.973
0.030	-5.036	0.151
0.031	-5.029	0.157
0.030	-5.020	0.157
0.028	-5.012	0.152
0.024	-5.009	0.144
0.022	-5.012	0.135
0.021	-5.020	0.130
0.022	-5.029	0.130
0.024	-5.036	0.135
0.027	-5.039	0.143
-0.173	-5.060	0.221
-0.172	-5.052	0.226
-0.173	-5.043	0.227
-0.176	-5.036	0.222
-0.179	-5.033	0.214
-0.182	-5.036	0.205
-0.183	-5.043	0.200
-0.182	-5.052	0.199
-0.179	-5.060	0.204
-0.176	-5.063	0.213
0.066	-5.095	0.283
0.068	-5.087	0.289
0.067	-5.078	0.290
0.063	-5.071	0.286
0.059	-5.068	0.278
0.055	-5.070	0.270
0.053	-5.078	0.265
0.054	-5.087	0.264
0.057	-5.094	0.268
0.062	-5.097	0.276
-0.129	-5.127	0.394
-0.127	-5.119	0.400
-0.128	-5.110	0.401
-0.132	-5.103	0.397
-0.136	-5.100	0.389
-0.140	-5.102	0.381
-0.142	-5.110	0.376
-0.141	-5.119	0.375
-0.138	-5.126	0.379
-0.133	-5.129	0.386
0.101	-5.164	0.411
0.103	-5.157	0.417
0.101	-5.148	0.418
0.097	-5.140	0.415
0.092	-5.137	0.408
0.088	-5.140	0.400
0.087	-5.147	0.394
0.088	-5.156	0.392
0.092	-5.163	0.396
0.097	-5.166	0.403
-0.054	-5.207	0.502
-0.052	-5.200	0.508
-0.054	-5.191	0.509
-0.058	-5.183	0.506
-0.063	-5.180	0.499
-0.067	-5.182	0.491
-0.068	-5.189	0.485
-0.067	-5.198	0.484
-0.063	-5.206	0.487
-0.058	-5.209	0.494
0.145	-5.225	0.518
0.150	-5.228	0.525
0.149	-5.230	0.534
0.143	-5.231	0.541
0.134	-5.230	0.543
0.125	-5.228	0.540
0.121	-5.225	0.533
0.122	-5.222	0.524
0.128	-5.222	0.517
0.137	-5.223	0.515
0.121	-5.354	0.482
0.126	-5.357	0.489
0.125	-5.359	0.498
0.119	-5.360	0.505
0.110	-5.359	0.508
0.101	-5.357	0.504
0.097	-5.354	0.497
0.098	-5.351	0.488
0.104	-5.351	0.481
0.113	-5.352	0.479
0.180	-5.317	0.657
0.183	-5.310	0.662
0.182	-5.300	0.663
0.178	-5.293	0.659
0.173	-5.290	0.652
0.169	-5.293	0.644
0.166	-5.300	0.639
0.167	-5.309	0.638
0.170	-5.317	0.642
0.176	-5.320	0.649
0.078	-5.330	0.725
0.080	-5.323	0.730
0.079	-5.314	0.731
0.076	-5.306	0.727
0.071	-5.303	0.720
0.066	-5.306	0.713
0.064	-5.313	0.707
0.064	-5.322	0.707
0.068	-5.330	0.711
0.073	-5.333	0.718
0.216	-5.402	0.776
0.218	-5.394	0.781
0.217	-5.385	0.782
0.215	-5.377	0.777
0.211	-5.374	0.769
0.207	-5.377	0.761
0.205	-5.385	0.756
0.206	-5.394	0.756
0.209	-5.401	0.760
0.213	-5.404	0.768
0.135	-5.409	0.815
0.136	-5.402	0.820
0.136	-5.393	0.820
0.133	-5.385	0.816
0.129	-5.382	0.808
0.125	-5.385	0.800
0.123	-5.392	0.795
0.124	-5.402	0.794
0.127	-5.409	0.799
0.131	-5.412	0.807
0.245	-5.472	0.872
0.246	-5.467	0.880
0.246	-5.467	0.889
0.245	-5.473	0.896
0.243	-5.482	0.898
0.240	-5.490	0.895
0.239	-5.495	0.887
0.239	-5.494	0.878
0.240	-5.489	0.871
0.242	-5.480	0.868
0.321	-5.492	0.870
0.323	-5.487	0.877
0.323	-5.488	0.887
0.321	-5.493	0.894
0.319	-5.502	0.896
0.317	-5.510	0.893
0.315	-5.515	0.885
0.315	-5.514	0.875
0.317	-5.509	0.868
0.319	-5.500	0.866
0.269	-5.566	0.986
0.269	-5.561	0.994
0.269	-5.561	1.003
0.267	-5.567	1.010
0.265	-5.575	1.013
0.264	-5.584	1.009
0.263	-5.589	1.002
0.264	-5.589	0.992
0.266	-5.583	0.985
0.267	-5.574	0.983
0.306	-5.573	1.001
0.314	-5.569	1.001
0.323	-5.571	1.001
0.329	-5.577	1.001
0.331	-5.586	1.001
0.327	-5.595	1.001
0.318	-5.599	1.001
0.309	-5.597	1.001
0.303	-5.591	1.001
0.301	-5.582	1.001
0.291	-5.685	1.116
0.292	-5.678	1.122
0.290	-5.669	1.124
0.286	-5.662	1.120
0.282	-5.658	1.112
0.279	-5.660	1.103
0.279	-5.667	1.097
0.281	-5.676	1.096
0.285	-5.684	1.100
[...]
         <CellData>
           <DataArray type="Float32" Name="aerenchymaFormation" NumberOfComponents="1" format="ascii">
 0.000e+00 0.000e+00 0.000e+00 0.000e+00 0.000e+00 0.000e+00 0.000e+00 0.000e+00 0.000e+00 2.083e-02 0.000e+00 0.000e+00 0.000e+00 0.000e+00 0.000e+00 0.000e+00 0.000e+00 0.000e+00 0.000e+00 0.000e+00 0.000e+00 0.000e+00 0.000e+00 0.000e+00 0.000e+00 0.000e+00 0.000e+00 0.000e+00 0.000e+00 0.000e+00 0.000e+00 2.083e-02 0.000e+00 0.000e+00 0.000e+00 0.000e+00 0.000e+00 0.000e+00 0.000e+00 0.000e+00 0.000e+00 0.000e+00 0.000e+00 0.000e+00 0.000e+00 0.000e+00 0.000e+00 0.000e+00 0.000e+00 0.000e+00 0.000e+00 0.000e+00 0.000e+00 2.083e-02 0.000e+00 0.000e+00 0.000e+00 0.000e+00 0.000e+00 0.000e+00 0.000e+00 0.000e+00 0.000e+00 0.000e+00 0.000e+00 0.000e+00 0.000e+00 0.000e+00 0.000e+00 0.000e+00 0.000e+00 0.000e+00 0.000e+00 0.000e+00 0.000e+00 2.083e-02 0.000e+00 0.000e+00 0.000e+00 0.000e+00 0.000e+00 0.000e+00 0.000e+00 0.000e+00 0.000e+00 0.000e+00 0.000e+00 0.000e+00 0.000e+00 0.000e+00 0.000e+00 0.000e+00 0.000e+00 0.000e+00 0.000e+00 0.000e+00 0.000e+00 0.000e+00 0.000e+00 0.000e+00 0.000e+00 0.000e+00 0.000e+00 0.000e+00 0.000e+00 0.000e+00 0.000e+00 0.000e+00 0.000e+00 0.000e+00 1.787e-02 0.000e+00 0.000e+00 0.000e+00 1.681e-02 0.000e+00 0.000e+00 0.000e+00 7.266e-03 0.000e+00 0.000e+00 6.205e-03 0.000e+00 0.000e+00 0.000e+00 5.144e-03 0.000e+00 0.000e+00 4.084e-03 0.000e+00 0.000e+00 3.023e-03 0.000e+00 0.000e+00 1.962e-03 0.000e+00 0.000e+00 9.016e-04 0.000e+00 0.000e+00 0.000e+00 0.000e+00 0.000e+00 0.000e+00 0.000e+00 0.000e+00 0.000e+00 0.000e+00 0.000e+00 1.575e-02 0.000e+00 0.000e+00 0.000e+00 0.000e+00 0.000e+00 0.000e+00 0.000e+00 0.000e+00 0.000e+00 0.000e+00 0.000e+00 0.000e+00 0.000e+00 0.000e+00 0.000e+00 0.000e+00 0.000e+00 0.000e+00 0.000e+00 0.000e+00 0.000e+00 0.000e+00 0.000e+00 0.000e+00 0.000e+00 0.000e+00 0.000e+00 0.000e+00 0.000e+00 0.000e+00 0.000e+00 0.000e+00 1.469e-02 0.000e+00 0.000e+00 0.000e+00 0.000e+00 0.000e+00 0.000e+00 0.000e+00 0.000e+00 0.000e+00 0.000e+00 0.000e+00 0.000e+00 0.000e+00 0.000e+00 0.000e+00 0.000e+00 0.000e+00 0.000e+00 0.000e+00 0.000e+00 0.000e+00 0.000e+00 0.000e+00 0.000e+00 0.000e+00 0.000e+00 0.000e+00 0.000e+00 1.363e-02 0.000e+00 0.000e+00 0.000e+00 0.000e+00 0.000e+00 0.000e+00 0.000e+00 0.000e+00 0.000e+00 0.000e+00 0.000e+00 0.000e+00 0.000e+00 0.000e+00 0.000e+00 0.000e+00 0.000e+00 0.000e+00 0.000e+00 0.000e+00 0.000e+00 0.000e+00 0.000e+00 1.257e-02 0.000e+00 0.000e+00 0.000e+00 0.000e+00 0.000e+00 0.000e+00 0.000e+00 0.000e+00 0.000e+00 0.000e+00 0.000e+00 0.000e+00 0.000e+00 0.000e+00 0.000e+00 0.000e+00 0.000e+00 0.000e+00 0.000e+00 0.000e+00 0.000e+00 0.000e+00 0.000e+00 1.151e-02 0.000e+00 0.000e+00 0.000e+00 0.000e+00 0.000e+00 0.000e+00 0.000e+00 0.000e+00 0.000e+00 0.000e+00 0.000e+00 0.000e+00 0.000e+00 1.045e-02 0.000e+00 0.000e+00 0.000e+00 0.000e+00 0.000e+00 0.000e+00 0.000e+00 0.000e+00 0.000e+00 0.000e+00 0.000e+00 0.000e+00 0.000e+00 9.387e-03 0.000e+00 0.000e+00 0.000e+00 0.000e+00 0.000e+00 0.000e+00 0.000e+00 0.000e+00 0.000e+00 0.000e+00 0.000e+00 8.326e-03 0.000e+00 0.000e+00 0.000e+00 0.000e+00 0.000e+00 0.000e+00 0.000e+00 0.000e+00 0.000e+00 0.000e+00 0.000e+00 0.000e+00 8.000e-02 7.700e-02 7.400e-02 7.100e-02 6.800e-02 6.500e-02 6.100e-02 5.800e-02 5.500e-02 5.100e-02 4.500e-02 3.750e-02 2.750e-02 2.000e-02 1.250e-02 5.000e-03 0.000e+00 0.000e+00 0.000e+00 0.000e+00 0.000e+00 0.000e+00 0.000e+00 0.000e+00 0.000e+00 0.000e+00
           </DataArray>
           <DataArray type="Float32" Name="combinedRootClassID" NumberOfComponents="1" format="ascii">
 -1.300e+01 -1.300e+01 -1.300e+01 -1.300e+01 -1.300e+01 -1.300e+01 -1.300e+01 -1.300e+01 -1.300e+01 -5.000e+00 -5.000e+00 -5.000e+00 -5.000e+00 -5.000e+00 -5.000e+00 -5.000e+00 -5.000e+00 -5.000e+00 -5.000e+00 -5.000e+00 -5.000e+00 -5.000e+00 -1.300e+01 -1.300e+01 -1.300e+01 -1.300e+01 -1.300e+01 -1.300e+01 -1.300e+01 -1.300e+01 -1.300e+01 -5.000e+00 -5.000e+00 -5.000e+00 -5.000e+00 -5.000e+00 -5.000e+00 -5.000e+00 -5.000e+00 -5.000e+00 -5.000e+00 -5.000e+00 -5.000e+00 -5.000e+00 -1.300e+01 -1.300e+01 -1.300e+01 -1.300e+01 -1.300e+01 -1.300e+01 -1.300e+01 -1.300e+01 -1.300e+01 -5.000e+00 -5.000e+00 -5.000e+00 -5.000e+00 -5.000e+00 -5.000e+00 -5.000e+00 -5.000e+00 -5.000e+00 -5.000e+00 -5.000e+00 -5.000e+00 -5.000e+00 -1.300e+01 -1.300e+01 -1.300e+01 -1.300e+01 -1.300e+01 -1.300e+01 -1.300e+01 -1.300e+01 -1.300e+01 -5.000e+00 -5.000e+00 -5.000e+00 -5.000e+00 -5.000e+00 -5.000e+00 -5.000e+00 -5.000e+00 -5.000e+00 -5.000e+00 -5.000e+00 -5.000e+00 -5.000e+00 -1.100e+01 -1.100e+01 -1.100e+01 -1.100e+01 -1.100e+01 -1.100e+01 -1.100e+01 -1.100e+01 -1.100e+01 -1.100e+01 -1.100e+01 -1.100e+01 -2.000e+00 -2.000e+00 -2.000e+00 -2.000e+00 -2.000e+00 -2.000e+00 -2.000e+00 -2.000e+00 -2.000e+00 -2.000e+00 -7.000e+00 -7.000e+00 -7.000e+00 -7.000e+00 -7.000e+00 -7.000e+00 -7.000e+00 -7.000e+00 -7.000e+00 -7.000e+00 -7.000e+00 -7.000e+00 -7.000e+00 -7.000e+00 -7.000e+00 -7.000e+00 -7.000e+00 -7.000e+00 -7.000e+00 -7.000e+00 -7.000e+00 -7.000e+00 -7.000e+00 -7.000e+00 -7.000e+00 -7.000e+00 -7.000e+00 -7.000e+00 -7.000e+00 -7.000e+00 -7.000e+00 -7.000e+00 -7.000e+00 -7.000e+00 -7.000e+00 -7.000e+00 -7.000e+00 -7.000e+00 -7.000e+00 -7.000e+00 -7.000e+00 -7.000e+00 -7.000e+00 -7.000e+00 -7.000e+00 -7.000e+00 -7.000e+00 -7.000e+00 -7.000e+00 -7.000e+00 -7.000e+00 -7.000e+00 -7.000e+00 -7.000e+00 -7.000e+00 -7.000e+00 -7.000e+00 -7.000e+00 -7.000e+00 -7.000e+00 -7.000e+00 -7.000e+00 -7.000e+00 -7.000e+00 -7.000e+00 -7.000e+00 -7.000e+00 -7.000e+00 -7.000e+00 -7.000e+00 -7.000e+00 -7.000e+00 -7.000e+00 -7.000e+00 -7.000e+00 -7.000e+00 -7.000e+00 -7.000e+00 -7.000e+00 -7.000e+00 -7.000e+00 -7.000e+00 -7.000e+00 -7.000e+00 -7.000e+00 -7.000e+00 -7.000e+00 -7.000e+00 -7.000e+00 -7.000e+00 -7.000e+00 -7.000e+00 -7.000e+00 -7.000e+00 -7.000e+00 -7.000e+00 -7.000e+00 -7.000e+00 -7.000e+00 -7.000e+00 -7.000e+00 -7.000e+00 -7.000e+00 -7.000e+00 -7.000e+00 -7.000e+00 -7.000e+00 -7.000e+00 -7.000e+00 -7.000e+00 -7.000e+00 -7.000e+00 -7.000e+00 -7.000e+00 -7.000e+00 -7.000e+00 -7.000e+00 -7.000e+00 -7.000e+00 -7.000e+00 -7.000e+00 -7.000e+00 -7.000e+00 -7.000e+00 -7.000e+00 -7.000e+00 -7.000e+00 -7.000e+00 -7.000e+00 -7.000e+00 -7.000e+00 -7.000e+00 -7.000e+00 -7.000e+00 -7.000e+00 -7.000e+00 -7.000e+00 -7.000e+00 -7.000e+00 -7.000e+00 -7.000e+00 -7.000e+00 -7.000e+00 -7.000e+00 -7.000e+00 -7.000e+00 -7.000e+00 -7.000e+00 -7.000e+00 -7.000e+00 -7.000e+00 -7.000e+00 -7.000e+00 -7.000e+00 -7.000e+00 -7.000e+00 -7.000e+00 -7.000e+00 -7.000e+00 -7.000e+00 -7.000e+00 -7.000e+00 -7.000e+00 -7.000e+00 -7.000e+00 -7.000e+00 -7.000e+00 -7.000e+00 -7.000e+00 -7.000e+00 -7.000e+00 -7.000e+00 -7.000e+00 -7.000e+00 -7.000e+00 -7.000e+00 -7.000e+00 -7.000e+00 -7.000e+00 -7.000e+00 -7.000e+00 -7.000e+00 -7.000e+00 -7.000e+00 -7.000e+00 -7.000e+00 -7.000e+00 -7.000e+00 -7.000e+00 -7.000e+00 -7.000e+00 -7.000e+00 -9.000e+00 -9.000e+00 -9.000e+00 -9.000e+00 -9.000e+00 -9.000e+00 -9.000e+00 -9.000e+00 -9.000e+00 -9.000e+00 -4.000e+00 -4.000e+00 -4.000e+00 -4.000e+00 -4.000e+00 -4.000e+00 -4.000e+00 -4.000e+00 -4.000e+00 -4.000e+00 -4.000e+00 -4.000e+00 -4.000e+00 -4.000e+00 -4.000e+00 -4.000e+00 -4.000e+00 -4.000e+00 -4.000e+00 -4.000e+00 -4.000e+00 -4.000e+00 -4.000e+00 -4.000e+00 -4.000e+00 -4.000e+00
           </DataArray>
           <DataArray type="Float32" Name="nitrate/Cmin" NumberOfComponents="1" format="ascii">
 1.000e-03 1.000e-03 1.000e-03 1.000e-03 1.000e-03 1.000e-03 1.000e-03 1.000e-03 1.000e-03 1.000e-03 1.000e-03 1.000e-03 1.000e-03 1.000e-03 1.000e-03 1.000e-03 1.000e-03 1.000e-03 1.000e-03 1.000e-03 1.000e-03 1.000e-03 1.000e-03 1.000e-03 1.000e-03 1.000e-03 1.000e-03 1.000e-03 1.000e-03 1.000e-03 1.000e-03 1.000e-03 1.000e-03 1.000e-03 1.000e-03 1.000e-03 1.000e-03 1.000e-03 1.000e-03 1.000e-03 1.000e-03 1.000e-03 1.000e-03 1.000e-03 1.000e-03 1.000e-03 1.000e-03 1.000e-03 1.000e-03 1.000e-03 1.000e-03 1.000e-03 1.000e-03 1.000e-03 1.000e-03 1.000e-03 1.000e-03 1.000e-03 1.000e-03 1.000e-03 1.000e-03 1.000e-03 1.000e-03 1.000e-03 1.000e-03 1.000e-03 1.000e-03 1.000e-03 1.000e-03 1.000e-03 1.000e-03 1.000e-03 1.000e-03 1.000e-03 1.000e-03 1.000e-03 1.000e-03 1.000e-03 1.000e-03 1.000e-03 1.000e-03 1.000e-03 1.000e-03 1.000e-03 1.000e-03 1.000e-03 1.000e-03 1.000e-03 1.000e-03 1.000e-03 1.000e-03 1.000e-03 1.000e-03 1.000e-03 1.000e-03 1.000e-03 1.000e-03 1.000e-03 1.000e-03 1.000e-03 1.000e-03 1.000e-03 1.000e-03 1.000e-03 1.000e-03 1.000e-03 1.000e-03 1.000e-03 1.000e-03 1.000e-03 1.000e-03 1.000e-03 1.000e-03 1.000e-03 1.000e-03 1.000e-03 1.000e-03 1.000e-03 1.000e-03 1.000e-03 1.000e-03 1.000e-03 1.000e-03 1.000e-03 1.000e-03 1.000e-03 1.000e-03 1.000e-03 1.000e-03 1.000e-03 1.000e-03 1.000e-03 1.000e-03 1.000e-03 1.000e-03 1.000e-03 1.000e-03 1.000e-03 1.000e-03 1.000e-03 1.000e-03 1.000e-03 1.000e-03 1.000e-03 1.000e-03 1.000e-03 1.000e-03 1.000e-03 1.000e-03 1.000e-03 1.000e-03 1.000e-03 1.000e-03 1.000e-03 1.000e-03 1.000e-03 1.000e-03 1.000e-03 1.000e-03 1.000e-03 1.000e-03 1.000e-03 1.000e-03 1.000e-03 1.000e-03 1.000e-03 1.000e-03 1.000e-03 1.000e-03 1.000e-03 1.000e-03 1.000e-03 1.000e-03 1.000e-03 1.000e-03 1.000e-03 1.000e-03 1.000e-03 1.000e-03 1.000e-03 1.000e-03 1.000e-03 1.000e-03 1.000e-03 1.000e-03 1.000e-03 1.000e-03 1.000e-03 1.000e-03 1.000e-03 1.000e-03 1.000e-03 1.000e-03 1.000e-03 1.000e-03 1.000e-03 1.000e-03 1.000e-03 1.000e-03 1.000e-03 1.000e-03 1.000e-03 1.000e-03 1.000e-03 1.000e-03 1.000e-03 1.000e-03 1.000e-03 1.000e-03 1.000e-03 1.000e-03 1.000e-03 1.000e-03 1.000e-03 1.000e-03 1.000e-03 1.000e-03 1.000e-03 1.000e-03 1.000e-03 1.000e-03 1.000e-03 1.000e-03 1.000e-03 1.000e-03 1.000e-03 1.000e-03 1.000e-03 1.000e-03 1.000e-03 1.000e-03 1.000e-03 1.000e-03 1.000e-03 1.000e-03 1.000e-03 1.000e-03 1.000e-03 1.000e-03 1.000e-03 1.000e-03 1.000e-03 1.000e-03 1.000e-03 1.000e-03 1.000e-03 1.000e-03 1.000e-03 1.000e-03 1.000e-03 1.000e-03 1.000e-03 1.000e-03 1.000e-03 1.000e-03 1.000e-03 1.000e-03 1.000e-03 1.000e-03 1.000e-03 1.000e-03 1.000e-03 1.000e-03 1.000e-03 1.000e-03 1.000e-03 1.000e-03 1.000e-03 1.000e-03 1.000e-03 1.000e-03 1.000e-03 1.000e-03 1.000e-03 1.000e-03 1.000e-03 1.000e-03 1.000e-03 1.000e-03 1.000e-03 1.000e-03 1.000e-03 1.000e-03 1.000e-03 1.000e-03 1.000e-03 1.000e-03 1.000e-03 1.000e-03 1.000e-03 1.000e-03 1.000e-03 1.000e-03 1.000e-03 1.000e-03 1.000e-03 1.000e-03 1.000e-03 1.000e-03 1.000e-03 1.000e-03 1.000e-03 1.000e-03 1.000e-03 1.000e-03 1.000e-03 1.000e-03 1.000e-03 1.000e-03 1.000e-03 1.000e-03 1.000e-03 1.000e-03 1.000e-03 1.000e-03 1.000e-03 1.000e-03 1.000e-03 1.000e-03 1.000e-03 1.000e-03 1.000e-03 1.000e-03 1.000e-03 1.000e-03 1.000e-03 1.000e-03 1.000e-03 1.000e-03 1.000e-03 1.000e-03 1.000e-03 1.000e-03 1.000e-03 1.000e-03 1.000e-03 1.000e-03 1.000e-03
           </DataArray>
           <DataArray type="Float32" Name="nitrate/Imax" NumberOfComponents="1" format="ascii">
 1.900e+00 1.900e+00 1.900e+00 1.900e+00 1.900e+00 1.900e+00 1.900e+00 1.900e+00 1.900e+00 1.900e+00 1.900e+00 1.900e+00 1.900e+00 1.900e+00 1.900e+00 1.900e+00 1.900e+00 1.900e+00 1.900e+00 1.900e+00 1.900e+00 1.900e+00 1.900e+00 1.900e+00 1.900e+00 1.900e+00 1.900e+00 1.900e+00 1.900e+00 1.900e+00 1.900e+00 1.900e+00 1.900e+00 1.900e+00 1.900e+00 1.900e+00 1.900e+00 1.900e+00 1.900e+00 1.900e+00 1.900e+00 1.900e+00 1.900e+00 1.900e+00 1.900e+00 1.900e+00 1.900e+00 1.900e+00 1.900e+00 1.900e+00 1.900e+00 1.900e+00 1.900e+00 1.900e+00 1.900e+00 1.900e+00 1.900e+00 1.900e+00 1.900e+00 1.900e+00 1.900e+00 1.900e+00 1.900e+00 1.900e+00 1.900e+00 1.900e+00 1.900e+00 1.900e+00 1.900e+00 1.900e+00 1.900e+00 1.900e+00 1.900e+00 1.900e+00 1.900e+00 1.900e+00 1.900e+00 1.900e+00 1.900e+00 1.900e+00 1.900e+00 1.900e+00 1.900e+00 1.900e+00 1.900e+00 1.900e+00 1.900e+00 1.900e+00 1.900e+00 1.900e+00 1.900e+00 1.900e+00 1.900e+00 1.900e+00 1.900e+00 1.900e+00 1.900e+00 1.900e+00 1.900e+00 1.900e+00 1.900e+00 1.900e+00 1.900e+00 1.900e+00 1.900e+00 1.900e+00 1.900e+00 1.900e+00 1.900e+00 1.900e+00 1.900e+00 1.900e+00 1.900e+00 1.900e+00 1.900e+00 1.900e+00 1.900e+00 1.900e+00 1.900e+00 1.900e+00 1.900e+00 1.900e+00 1.900e+00 1.900e+00 1.900e+00 1.900e+00 1.900e+00 1.900e+00 1.900e+00 1.900e+00 1.900e+00 1.900e+00 1.900e+00 1.900e+00 1.900e+00 1.900e+00 1.900e+00 1.900e+00 1.900e+00 1.900e+00 1.900e+00 1.900e+00 1.900e+00 1.900e+00 1.900e+00 1.900e+00 1.900e+00 1.900e+00 1.900e+00 1.900e+00 1.900e+00 1.900e+00 1.900e+00 1.900e+00 1.900e+00 1.900e+00 1.900e+00 1.900e+00 1.900e+00 1.900e+00 1.900e+00 1.900e+00 1.900e+00 1.900e+00 1.900e+00 1.900e+00 1.900e+00 1.900e+00 1.900e+00 1.900e+00 1.900e+00 1.900e+00 1.900e+00 1.900e+00 1.900e+00 1.900e+00 1.900e+00 1.900e+00 1.900e+00 1.900e+00 1.900e+00 1.900e+00 1.900e+00 1.900e+00 1.900e+00 1.900e+00 1.900e+00 1.900e+00 1.900e+00 1.900e+00 1.900e+00 1.900e+00 1.900e+00 1.900e+00 1.900e+00 1.900e+00 1.900e+00 1.900e+00 1.900e+00 1.900e+00 1.900e+00 1.900e+00 1.900e+00 1.900e+00 1.900e+00 1.900e+00 1.900e+00 1.900e+00 1.900e+00 1.900e+00 1.900e+00 1.900e+00 1.900e+00 1.900e+00 1.900e+00 1.900e+00 1.900e+00 1.900e+00 1.900e+00 1.900e+00 1.900e+00 1.900e+00 1.900e+00 1.900e+00 1.900e+00 1.900e+00 1.900e+00 1.900e+00 1.900e+00 1.900e+00 1.900e+00 1.900e+00 1.900e+00 1.900e+00 1.900e+00 1.900e+00 1.900e+00 1.900e+00 1.900e+00 1.900e+00 1.900e+00 1.900e+00 1.900e+00 1.900e+00 1.900e+00 1.900e+00 1.900e+00 1.900e+00 1.900e+00 1.900e+00 1.900e+00 1.900e+00 1.900e+00 1.900e+00 1.900e+00 1.900e+00 1.900e+00 1.900e+00 1.900e+00 1.900e+00 1.900e+00 1.900e+00 1.900e+00 1.900e+00 1.900e+00 1.900e+00 1.900e+00 1.900e+00 1.900e+00 1.900e+00 1.900e+00 1.900e+00 1.900e+00 1.900e+00 1.900e+00 1.900e+00 1.900e+00 1.900e+00 1.900e+00 1.900e+00 1.900e+00 1.900e+00 1.900e+00 1.900e+00 1.900e+00 1.900e+00 1.900e+00 1.900e+00 1.900e+00 1.900e+00 1.900e+00 1.900e+00 1.900e+00 1.900e+00 1.900e+00 1.900e+00 1.900e+00 1.900e+00 1.900e+00 1.900e+00 1.900e+00 1.900e+00 1.900e+00 1.900e+00 1.900e+00 1.900e+00 1.900e+00 1.900e+00 1.900e+00 1.900e+00 1.900e+00 1.900e+00 1.900e+00 1.900e+00 1.900e+00 1.900e+00 1.900e+00 1.900e+00 1.900e+00 1.900e+00 1.900e+00 1.900e+00 1.900e+00 1.900e+00 1.900e+00 1.900e+00 1.900e+00 1.900e+00 1.900e+00 1.900e+00 1.900e+00 1.900e+00 1.900e+00 1.900e+00 1.900e+00 1.900e+00 1.900e+00 1.900e+00
           </DataArray>
           <DataArray type="Float32" Name="nitrate/Km" NumberOfComponents="1" format="ascii">
 1.610e-02 1.610e-02 1.610e-02 1.610e-02 1.610e-02 1.610e-02 1.610e-02 1.610e-02 1.610e-02 1.610e-02 1.610e-02 1.610e-02 1.610e-02 1.610e-02 1.610e-02 1.610e-02 1.610e-02 1.610e-02 1.610e-02 1.610e-02 1.610e-02 1.610e-02 1.610e-02 1.610e-02 1.610e-02 1.610e-02 1.610e-02 1.610e-02 1.610e-02 1.610e-02 1.610e-02 1.610e-02 1.610e-02 1.610e-02 1.610e-02 1.610e-02 1.610e-02 1.610e-02 1.610e-02 1.610e-02 1.610e-02 1.610e-02 1.610e-02 1.610e-02 1.610e-02 1.610e-02 1.610e-02 1.610e-02 1.610e-02 1.610e-02 1.610e-02 1.610e-02 1.610e-02 1.610e-02 1.610e-02 1.610e-02 1.610e-02 1.610e-02 1.610e-02 1.610e-02 1.610e-02 1.610e-02 1.610e-02 1.610e-02 1.610e-02 1.610e-02 1.610e-02 1.610e-02 1.610e-02 1.610e-02 1.610e-02 1.610e-02 1.610e-02 1.610e-02 1.610e-02 1.610e-02 1.610e-02 1.610e-02 1.610e-02 1.610e-02 1.610e-02 1.610e-02 1.610e-02 1.610e-02 1.610e-02 1.610e-02 1.610e-02 1.610e-02 1.610e-02 1.610e-02 1.610e-02 1.610e-02 1.610e-02 1.610e-02 1.610e-02 1.610e-02 1.610e-02 1.610e-02 1.610e-02 1.610e-02 1.610e-02 1.610e-02 1.610e-02 1.610e-02 1.610e-02 1.610e-02 1.610e-02 1.610e-02 1.610e-02 1.610e-02 1.610e-02 1.610e-02 1.610e-02 1.610e-02 1.610e-02 1.610e-02 1.610e-02 1.610e-02 1.610e-02 1.610e-02 1.610e-02 1.610e-02 1.610e-02 1.610e-02 1.610e-02 1.610e-02 1.610e-02 1.610e-02 1.610e-02 1.610e-02 1.610e-02 1.610e-02 1.610e-02 1.610e-02 1.610e-02 1.610e-02 1.610e-02 1.610e-02 1.610e-02 1.610e-02 1.610e-02 1.610e-02 1.610e-02 1.610e-02 1.610e-02 1.610e-02 1.610e-02 1.610e-02 1.610e-02 1.610e-02 1.610e-02 1.610e-02 1.610e-02 1.610e-02 1.610e-02 1.610e-02 1.610e-02 1.610e-02 1.610e-02 1.610e-02 1.610e-02 1.610e-02 1.610e-02 1.610e-02 1.610e-02 1.610e-02 1.610e-02 1.610e-02 1.610e-02 1.610e-02 1.610e-02 1.610e-02 1.610e-02 1.610e-02 1.610e-02 1.610e-02 1.610e-02 1.610e-02 1.610e-02 1.610e-02 1.610e-02 1.610e-02 1.610e-02 1.610e-02 1.610e-02 1.610e-02 1.610e-02 1.610e-02 1.610e-02 1.610e-02 1.610e-02 1.610e-02 1.610e-02 1.610e-02 1.610e-02 1.610e-02 1.610e-02 1.610e-02 1.610e-02 1.610e-02 1.610e-02 1.610e-02 1.610e-02 1.610e-02 1.610e-02 1.610e-02 1.610e-02 1.610e-02 1.610e-02 1.610e-02 1.610e-02 1.610e-02 1.610e-02 1.610e-02 1.610e-02 1.610e-02 1.610e-02 1.610e-02 1.610e-02 1.610e-02 1.610e-02 1.610e-02 1.610e-02 1.610e-02 1.610e-02 1.610e-02 1.610e-02 1.610e-02 1.610e-02 1.610e-02 1.610e-02 1.610e-02 1.610e-02 1.610e-02 1.610e-02 1.610e-02 1.610e-02 1.610e-02 1.610e-02 1.610e-02 1.610e-02 1.610e-02 1.610e-02 1.610e-02 1.610e-02 1.610e-02 1.610e-02 1.610e-02 1.610e-02 1.610e-02 1.610e-02 1.610e-02 1.610e-02 1.610e-02 1.610e-02 1.610e-02 1.610e-02 1.610e-02 1.610e-02 1.610e-02 1.610e-02 1.610e-02 1.610e-02 1.610e-02 1.610e-02 1.610e-02 1.610e-02 1.610e-02 1.610e-02 1.610e-02 1.610e-02 1.610e-02 1.610e-02 1.610e-02 1.610e-02 1.610e-02 1.610e-02 1.610e-02 1.610e-02 1.610e-02 1.610e-02 1.610e-02 1.610e-02 1.610e-02 1.610e-02 1.610e-02 1.610e-02 1.610e-02 1.610e-02 1.610e-02 1.610e-02 1.610e-02 1.610e-02 1.610e-02 1.610e-02 1.610e-02 1.610e-02 1.610e-02 1.610e-02 1.610e-02 1.610e-02 1.610e-02 1.610e-02 1.610e-02 1.610e-02 1.610e-02 1.610e-02 1.610e-02 1.610e-02 1.610e-02 1.610e-02 1.610e-02 1.610e-02 1.610e-02 1.610e-02 1.610e-02 1.610e-02 1.610e-02 1.610e-02 1.610e-02 1.610e-02 1.610e-02 1.610e-02 1.610e-02 1.610e-02 1.610e-02 1.610e-02 1.610e-02 1.610e-02 1.610e-02 1.610e-02 1.610e-02 1.610e-02 1.610e-02 1.610e-02 1.610e-02 1.610e-02 1.610e-02
           </DataArray>
           <DataArray type="Float32" Name="nitrate/minimalNutrientConcentration" NumberOfComponents="1" format="ascii">