<?xml version="1.0"?>
<VTKFile type="UnstructuredGrid" version="0.1" byte_order="LittleEndian">
   <UnstructuredGrid>
      <Piece NumberOfPoints="22300" NumberOfCells="1560">
         <Points>
            <DataArray type="Float32" Name="Position" NumberOfComponents="3" format="ascii">
-0.132	-5.024	0.023
-0.127	-5.025	0.031
-0.128	-5.027	0.040
-0.133	-5.028	0.047
-0.142	-5.029	0.050
-0.151	-5.029	0.046
-0.156	-5.028	0.039
-0.156	-5.026	0.030
-0.150	-5.025	0.022
-0.141	-5.024	0.020
-0.096	-5.885	-0.108
-0.091	-5.886	-0.100
-0.091	-5.888	-0.091
-0.097	-5.889	-0.084
-0.106	-5.889	-0.082
-0.115	-5.888	-0.085
-0.120	-5.887	-0.093
-0.119	-5.885	-0.102
-0.113	-5.884	-0.109
-0.104	-5.884	-0.111
-0.206	-6.704	-0.317
-0.201	-6.706	-0.310
-0.201	-6.709	-0.301
-0.206	-6.711	-0.293
-0.215	-6.711	-0.291
-0.224	-6.710	-0.293
-0.229	-6.708	-0.300
-0.229	-6.705	-0.309
-0.224	-6.703	-0.316
-0.215	-6.703	-0.319
-0.195	-7.325	-0.494
-0.195	-7.317	-0.490
-0.195	-7.308	-0.492
-0.195	-7.301	-0.498
-0.195	-7.300	-0.507
-0.195	-7.304	-0.515
-0.195	-7.312	-0.520
-0.195	-7.321	-0.518
-0.195	-7.328	-0.512
-0.195	-7.329	-0.503
-0.287	-5.075	0.085
-0.282	-5.068	0.080
-0.275	-5.066	0.075
-0.268	-5.069	0.071
-0.263	-5.077	0.069
-0.262	-5.086	0.071
-0.267	-5.093	0.075
-0.274	-5.096	0.080
-0.281	-5.092	0.085
-0.286	-5.085	0.086
-0.758	-5.223	-0.646
-0.753	-5.217	-0.650
-0.745	-5.216	-0.654
-0.737	-5.221	-0.657
-0.733	-5.229	-0.657
-0.734	-5.238	-0.655
-0.740	-5.244	-0.651
-0.748	-5.245	-0.646
-0.756	-5.240	-0.643
-0.760	-5.232	-0.643
-1.051	-5.402	-1.396
-1.044	-5.397	-1.400
-1.036	-5.397	-1.403
-1.029	-5.403	-1.405
-1.026	-5.412	-1.404
-1.028	-5.420	-1.401
-1.035	-5.425	-1.397
-1.044	-5.425	-1.393
-1.051	-5.419	-1.392
-1.054	-5.410	-1.393
-1.253	-5.898	0.517
-1.248	-5.891	0.514
-1.241	-5.888	0.509
-1.234	-5.892	0.504
-1.229	-5.899	0.502
-1.228	-5.909	0.503
-1.233	-5.916	0.507
-1.240	-5.918	0.512
-1.248	-5.915	0.516
-1.253	-5.907	0.518
-1.714	-5.996	-0.210
-1.710	-5.989	-0.215
-1.702	-5.988	-0.220
-1.694	-5.991	-0.224
-1.690	-5.999	-0.224
-1.690	-6.008	-0.222
-1.694	-6.015	-0.217
-1.701	-6.016	-0.212
-1.709	-6.013	-0.208
-1.714	-6.005	-0.207
-2.160	-6.319	-0.901
-2.155	-6.314	-0.907
-2.147	-6.313	-0.912
-2.139	-6.318	-0.915
-2.135	-6.327	-0.914
-2.136	-6.335	-0.909
-2.141	-6.340	-0.904
-2.149	-6.340	-0.899
-2.156	-6.335	-0.896
-2.160	-6.327	-0.897
-1.318	-6.026	0.546
-1.315	-6.017	0.546
-1.318	-6.008	0.548
-1.325	-6.003	0.550
-1.334	-6.003	0.552
-1.342	-6.009	0.552
-1.345	-6.018	0.552
-1.342	-6.026	0.550
-1.335	-6.032	0.548
-1.325	-6.031	0.547
-1.160	-6.119	1.365
-1.157	-6.110	1.366
-1.160	-6.102	1.367
-1.167	-6.097	1.369
-1.176	-6.097	1.371
-1.183	-6.102	1.372
-1.186	-6.111	1.372
-1.183	-6.120	1.370
-1.176	-6.125	1.368
-1.167	-6.125	1.366
-0.952	-6.194	2.229
-0.949	-6.185	2.229
-0.952	-6.177	2.230
-0.959	-6.171	2.233
-0.968	-6.172	2.235
-0.976	-6.177	2.236
-0.978	-6.186	2.236
-0.975	-6.195	2.234
-0.968	-6.200	2.232
-0.959	-6.200	2.230
-1.404	-6.138	0.578
-1.403	-6.130	0.581
-1.407	-6.123	0.586
-1.414	-6.120	0.591
-1.423	-6.123	0.594
-1.428	-6.130	0.594
-1.430	-6.139	0.591
-1.426	-6.146	0.586
-1.419	-6.148	0.581
-1.410	-6.145	0.578
-1.031	-6.442	1.304
-1.030	-6.434	1.307
-1.034	-6.427	1.312
-1.041	-6.425	1.318
-1.049	-6.429	1.321
-1.054	-6.437	1.322
-1.055	-6.445	1.319
-1.051	-6.452	1.313
-1.044	-6.454	1.308
-1.036	-6.450	1.304
-0.541	-6.691	1.919
-0.541	-6.682	1.922
-0.545	-6.676	1.928
-0.552	-6.675	1.933
-0.559	-6.679	1.937
-0.564	-6.687	1.938
-0.564	-6.696	1.935
-0.560	-6.702	1.929
-0.553	-6.703	1.923
-0.546	-6.699	1.919
-0.489	-6.715	2.027
-0.481	-6.710	2.027
-0.472	-6.712	2.027
-0.465	-6.718	2.027
-0.464	-6.728	2.027
-0.468	-6.736	2.027
-0.476	-6.740	2.027
-0.486	-6.739	2.027
-0.492	-6.732	2.027
-0.494	-6.723	2.027
-1.511	-6.251	0.630
-1.508	-6.243	0.627
-1.502	-6.239	0.621
-1.494	-6.241	0.616
-1.489	-6.248	0.612
-1.487	-6.257	0.613
-1.490	-6.265	0.616
-1.497	-6.269	0.622
-1.504	-6.267	0.627
-1.509	-6.260	0.630
-2.028	-6.353	-0.031
-2.024	-6.346	-0.035
-2.017	-6.344	-0.041
-2.010	-6.347	-0.045
-2.005	-6.354	-0.047
-2.004	-6.363	-0.045
-2.008	-6.371	-0.040
-2.015	-6.373	-0.035
-2.022	-6.370	-0.030
-2.027	-6.362	-0.029
-2.435	-6.594	-0.700
-2.429	-6.589	-0.706
-2.422	-6.588	-0.711
-2.414	-6.592	-0.713
-2.410	-6.601	-0.713
-2.410	-6.609	-0.710
-2.415	-6.615	-0.704
-2.423	-6.616	-0.700
-2.431	-6.611	-0.697
-2.435	-6.603	-0.697
-1.584	-6.381	0.672
-1.586	-6.372	0.670
-1.584	-6.365	0.664
-1.579	-6.363	0.656
-1.573	-6.366	0.650
-1.568	-6.374	0.648
-1.566	-6.382	0.650
-1.568	-6.389	0.656
-1.573	-6.392	0.663
-1.579	-6.388	0.669
-2.228	-6.627	0.149
-2.231	-6.618	0.148
-2.230	-6.611	0.142
-2.226	-6.608	0.135
-2.220	-6.610	0.128
-2.214	-6.617	0.125
-2.211	-6.625	0.127
-2.212	-6.633	0.132
-2.216	-6.636	0.140
-2.222	-6.634	0.146
-2.762	-6.950	-0.272
-2.754	-6.945	-0.272
-2.745	-6.947	-0.272
-2.738	-6.953	-0.272
-2.737	-6.963	-0.272
-2.741	-6.971	-0.272
-2.750	-6.975	-0.272
-2.759	-6.974	-0.272
-2.765	-6.967	-0.272
-2.767	-6.958	-0.272
-1.647	-6.493	0.687
-1.641	-6.492	0.693
-1.638	-6.495	0.701
-1.640	-6.500	0.709
-1.647	-6.505	0.712
-1.655	-6.509	0.711
-1.662	-6.510	0.704
-1.665	-6.507	0.696
-1.662	-6.502	0.689
-1.656	-6.497	0.685
-1.261	-7.192	0.338
-1.253	-7.192	0.344
-1.250	-7.195	0.351
-1.251	-7.201	0.359
-1.258	-7.206	0.363
-1.266	-7.210	0.361
-1.274	-7.210	0.356
-1.277	-7.207	0.348
-1.275	-7.201	0.341
-1.269	-7.196	0.337
-0.979	-7.805	-0.146
-0.971	-7.806	-0.141
-0.967	-7.810	-0.133
-0.969	-7.815	-0.126
-0.975	-7.820	-0.122
-0.984	-7.823	-0.122
-0.992	-7.822	-0.127
-0.996	-7.818	-0.135
-0.994	-7.812	-0.142
-0.988	-7.807	-0.146
-0.946	-7.981	-0.254
-0.938	-7.982	-0.250
-0.935	-7.986	-0.242
-0.937	-7.991	-0.234
-0.944	-7.995	-0.230
-0.953	-7.997	-0.230
-0.961	-7.995	-0.235
-0.964	-7.991	-0.243
-0.962	-7.986	-0.250
-0.955	-7.982	-0.255
-1.717	-6.638	0.743
-1.714	-6.631	0.748
-1.715	-6.622	0.749
-1.720	-6.614	0.746
-1.726	-6.611	0.740
-1.731	-6.614	0.733
-1.734	-6.621	0.728
-1.733	-6.630	0.727
-1.729	-6.638	0.730
-1.723	-6.641	0.737
-2.351	-6.766	1.314
-2.347	-6.759	1.318
-2.348	-6.749	1.319
-2.353	-6.742	1.317
-2.360	-6.739	1.311
-2.367	-6.742	1.305
-2.370	-6.749	1.301
-2.369	-6.758	1.300
-2.364	-6.766	1.302
-2.357	-6.769	1.308
-2.712	-6.876	1.870
-2.708	-6.868	1.874
-2.709	-6.859	1.876
-2.714	-6.852	1.874
-2.722	-6.849	1.869
-2.729	-6.852	1.864
-2.733	-6.860	1.860
-2.732	-6.869	1.859
-2.727	-6.876	1.861
-2.719	-6.879	1.865
-1.785	-6.757	0.767
-1.783	-6.749	0.771
-1.786	-6.742	0.775
-1.794	-6.738	0.780
-1.803	-6.740	0.782
-1.810	-6.747	0.781
-1.812	-6.755	0.777
-1.808	-6.762	0.772
-1.801	-6.765	0.768
-1.792	-6.763	0.766
-1.529	-7.136	1.499
-1.528	-7.128	1.503
-1.531	-7.122	1.510
-1.538	-7.120	1.515
-1.547	-7.123	1.518
-1.553	-7.130	1.517
-1.555	-7.138	1.512
-1.551	-7.144	1.506
-1.544	-7.145	1.500
-1.536	-7.142	1.498
-1.108	-7.579	2.000
-1.100	-7.574	2.000
-1.091	-7.576	2.000
-1.084	-7.582	2.000
-1.083	-7.591	2.000
-1.087	-7.600	2.000
-1.095	-7.604	2.000
-1.104	-7.602	2.000
-1.111	-7.596	2.000
-1.112	-7.587	2.000
-1.859	-6.888	0.803
-1.855	-6.880	0.805
-1.858	-6.871	0.808
-1.865	-6.865	0.809
-1.874	-6.865	0.809
-1.882	-6.870	0.808
-1.885	-6.878	0.806
-1.883	-6.887	0.804
-1.876	-6.892	0.802
-1.866	-6.893	0.802
-1.854	-7.105	1.633
-1.850	-7.097	1.635
-1.852	-7.088	1.636
-1.859	-7.082	1.637
-1.868	-7.081	1.636
-1.876	-7.085	1.635
-1.880	-7.094	1.634
-1.878	-7.103	1.633
-1.871	-7.109	1.632
-1.862	-7.110	1.632
-1.941	-7.144	2.454
-1.936	-7.136	2.455
-1.938	-7.127	2.455
-1.944	-7.120	2.455
-1.953	-7.118	2.454
-1.961	-7.122	2.453
-1.966	-7.130	2.452
-1.965	-7.140	2.452
-1.958	-7.146	2.452
-1.949	-7.148	2.453
-1.932	-7.022	0.842
-1.931	-7.015	0.848
-1.933	-7.006	0.848
-1.936	-6.998	0.844
-1.940	-6.995	0.836
-1.943	-6.998	0.828
-1.944	-7.005	0.822
-1.942	-7.014	0.821
-1.939	-7.022	0.826
-1.935	-7.025	0.834
-2.715	-7.160	1.162
-2.714	-7.153	1.167
-2.715	-7.143	1.167
-2.717	-7.136	1.162
-2.720	-7.133	1.154
-2.722	-7.136	1.146
-2.723	-7.144	1.140
-2.722	-7.153	1.140
-2.720	-7.160	1.145
-2.717	-7.163	1.153
-3.334	-7.189	1.282
-3.325	-7.189	1.287
-3.316	-7.189	1.285
-3.310	-7.189	1.279
-3.308	-7.189	1.270
-3.313	-7.189	1.261
-3.321	-7.189	1.257
-3.330	-7.189	1.259
-3.336	-7.189	1.265
-3.338	-7.189	1.274
-0.398	-5.155	0.132
-0.396	-5.147	0.137
-0.397	-5.138	0.138
-0.400	-5.131	0.133
-0.404	-5.128	0.126
-0.408	-5.130	0.118
-0.409	-5.138	0.112
-0.408	-5.147	0.112
-0.405	-5.154	0.116
-0.401	-5.157	0.124
-1.173	-5.260	0.503
-1.172	-5.253	0.508
-1.173	-5.244	0.510
-1.177	-5.237	0.506
-1.182	-5.233	0.499
-1.185	-5.236	0.490
-1.186	-5.243	0.484
-1.184	-5.252	0.483
-1.180	-5.259	0.487
-1.176	-5.262	0.494
-1.868	-5.540	0.842
-1.866	-5.533	0.848
-1.868	-5.524	0.850
-1.873	-5.517	0.848
-1.879	-5.514	0.842
-1.884	-5.516	0.834
-1.886	-5.523	0.828
-1.884	-5.531	0.826
-1.879	-5.539	0.828
-1.873	-5.542	0.835
-2.363	-5.726	1.378
-2.363	-5.718	1.382
-2.363	-5.709	1.381
-2.363	-5.702	1.374
-2.363	-5.701	1.365
-2.363	-5.705	1.357
-2.363	-5.713	1.352
-2.363	-5.722	1.354
-2.363	-5.729	1.360
-2.363	-5.730	1.369
-1.991	-7.146	0.855
-1.990	-7.137	0.856
-1.994	-7.130	0.860
-2.002	-7.127	0.866
-2.009	-7.131	0.870
-2.014	-7.138	0.871
-2.015	-7.148	0.869
-2.010	-7.155	0.865
-2.003	-7.157	0.860
-1.995	-7.153	0.856
-1.541	-7.299	1.568
-1.540	-7.290	1.570
-1.545	-7.283	1.574
-1.552	-7.281	1.579
-1.560	-7.284	1.583
-1.565	-7.292	1.585
-1.565	-7.301	1.583
-1.561	-7.308	1.579
-1.553	-7.310	1.574
-1.546	-7.307	1.570
-1.092	-7.437	2.314
-1.092	-7.429	2.318
-1.092	-7.420	2.317
-1.092	-7.413	2.310
-1.092	-7.412	2.301
-1.092	-7.416	2.293
-1.092	-7.424	2.288
-1.092	-7.434	2.290
-1.092	-7.440	2.296
-1.092	-7.442	2.305
-2.052	-7.283	0.884
-2.050	-7.274	0.886
-2.053	-7.266	0.890
-2.061	-7.262	0.893
-2.070	-7.263	0.895
-2.077	-7.269	0.894
-2.079	-7.278	0.892
-2.076	-7.286	0.888
-2.069	-7.290	0.885
-2.060	-7.289	0.883
-1.857	-7.562	1.701
-1.855	-7.553	1.704
-1.859	-7.546	1.708
-1.867	-7.542	1.712
-1.875	-7.544	1.714
-1.882	-7.551	1.715
-1.884	-7.559	1.712
-1.880	-7.567	1.708
-1.872	-7.570	1.704
[...]
         <CellData>
           <DataArray type="Float32" Name="aerenchymaFormation" NumberOfComponents="1" format="ascii">
 8.316e-03 0.000e+00 0.000e+00 7.379e-03 0.000e+00 0.000e+00 0.000e+00 0.000e+00 0.000e+00 0.000e+00 0.000e+00 0.000e+00 0.000e+00 0.000e+00 0.000e+00 0.000e+00 0.000e+00 0.000e+00 0.000e+00 0.000e+00 0.000e+00 0.000e+00 0.000e+00 0.000e+00 0.000e+00 0.000e+00 0.000e+00 6.441e-03 0.000e+00 0.000e+00 0.000e+00 0.000e+00 0.000e+00 0.000e+00 0.000e+00 0.000e+00 0.000e+00 0.000e+00 0.000e+00 0.000e+00 0.000e+00 0.000e+00 0.000e+00 0.000e+00 0.000e+00 0.000e+00 0.000e+00 0.000e+00 0.000e+00 0.000e+00 5.504e-03 0.000e+00 0.000e+00 0.000e+00 0.000e+00 0.000e+00 0.000e+00 0.000e+00 0.000e+00 0.000e+00 0.000e+00 0.000e+00 0.000e+00 0.000e+00 0.000e+00 0.000e+00 0.000e+00 0.000e+00 0.000e+00 0.000e+00 0.000e+00 0.000e+00 0.000e+00 4.566e-03 0.000e+00 0.000e+00 0.000e+00 0.000e+00 0.000e+00 0.000e+00 0.000e+00 0.000e+00 0.000e+00 0.000e+00 0.000e+00 0.000e+00 0.000e+00 0.000e+00 0.000e+00 0.000e+00 0.000e+00 0.000e+00 0.000e+00 0.000e+00 0.000e+00 3.629e-03 0.000e+00 0.000e+00 0.000e+00 0.000e+00 0.000e+00 0.000e+00 0.000e+00 0.000e+00 0.000e+00 0.000e+00 0.000e+00 0.000e+00 0.000e+00 2.691e-03 0.000e+00 0.000e+00 0.000e+00 0.000e+00 0.000e+00 0.000e+00 0.000e+00 0.000e+00 0.000e+00 0.000e+00 0.000e+00 0.000e+00 1.754e-03 0.000e+00 0.000e+00 0.000e+00 0.000e+00 0.000e+00 0.000e+00 0.000e+00 0.000e+00 0.000e+00 0.000e+00 0.000e+00 8.160e-04 0.000e+00 0.000e+00 0.000e+00 0.000e+00 0.000e+00 0.000e+00 0.000e+00 0.000e+00 0.000e+00 0.000e+00 0.000e+00 0.000e+00 0.000e+00 6.833e-02 5.800e-02 5.300e-02 5.000e-02 4.250e-02 3.750e-02 3.250e-02 2.750e-02 2.250e-02 1.750e-02 1.250e-02 7.500e-03 2.500e-03 0.000e+00 0.000e+00 0.000e+00 0.000e+00 0.000e+00 0.000e+00 0.000e+00 0.000e+00 0.000e+00 0.000e+00 0.000e+00 0.000e+00 0.000e+00 0.000e+00 0.000e+00 8.316e-03 0.000e+00 0.000e+00 7.379e-03 0.000e+00 0.000e+00 0.000e+00 0.000e+00 0.000e+00 0.000e+00 0.000e+00 0.000e+00 0.000e+00 0.000e+00 0.000e+00 0.000e+00 0.000e+00 0.000e+00 0.000e+00 0.000e+00 0.000e+00 0.000e+00 0.000e+00 0.000e+00 0.000e+00 0.000e+00 0.000e+00 0.000e+00 0.000e+00 0.000e+00 0.000e+00 6.441e-03 0.000e+00 0.000e+00 0.000e+00 0.000e+00 0.000e+00 0.000e+00 0.000e+00 0.000e+00 0.000e+00 0.000e+00 0.000e+00 0.000e+00 0.000e+00 0.000e+00 0.000e+00 0.000e+00 0.000e+00 0.000e+00 0.000e+00 0.000e+00 0.000e+00 0.000e+00 0.000e+00 5.504e-03 0.000e+00 0.000e+00 0.000e+00 0.000e+00 0.000e+00 0.000e+00 0.000e+00 0.000e+00 0.000e+00 0.000e+00 0.000e+00 0.000e+00 0.000e+00 0.000e+00 0.000e+00 0.000e+00 0.000e+00 0.000e+00 0.000e+00 0.000e+00 0.000e+00 0.000e+00 4.566e-03 0.000e+00 0.000e+00 0.000e+00 0.000e+00 0.000e+00 0.000e+00 0.000e+00 0.000e+00 0.000e+00 0.000e+00 0.000e+00 0.000e+00 0.000e+00 0.000e+00 0.000e+00 0.000e+00 0.000e+00 0.000e+00 0.000e+00 0.000e+00 3.629e-03 0.000e+00 0.000e+00 0.000e+00 0.000e+00 0.000e+00 0.000e+00 0.000e+00 0.000e+00 0.000e+00 0.000e+00 0.000e+00 0.000e+00 0.000e+00 2.691e-03 0.000e+00 0.000e+00 0.000e+00 0.000e+00 0.000e+00 0.000e+00 0.000e+00 0.000e+00 0.000e+00 0.000e+00 0.000e+00 0.000e+00 1.754e-03 0.000e+00 0.000e+00 0.000e+00 0.000e+00 0.000e+00 0.000e+00 0.000e+00 0.000e+00 0.000e+00 0.000e+00 0.000e+00 0.000e+00 8.160e-04 0.000e+00 0.000e+00 0.000e+00 0.000e+00 0.000e+00 0.000e+00 0.000e+00 0.000e+00 0.000e+00 0.000e+00 0.000e+00 0.000e+00 0.000e+00 0.000e+00 6.833e-02 5.800e-02 5.300e-02 5.000e-02 4.250e-02 3.750e-02 3.250e-02 2.750e-02 2.250e-02 1.750e-02 1.250e-02 7.500e-03 2.500e-03 0.000e+00 0.000e+00 0.000e+00 0.000e+00 0.000e+00 0.000e+00 0.000e+00 0.000e+00 0.000e+00 0.000e+00 0.000e+00 0.000e+00 0.000e+00 0.000e+00 0.000e+00 8.316e-03 0.000e+00 0.000e+00 7.379e-03 0.000e+00 0.000e+00 0.000e+00 0.000e+00 0.000e+00 0.000e+00 0.000e+00 0.000e+00 0.000e+00 0.000e+00 0.000e+00 0.000e+00 0.000e+00 0.000e+00 0.000e+00 0.000e+00 0.000e+00 0.000e+00 0.000e+00 0.000e+00 0.000e+00 0.000e+00 0.000e+00 0.000e+00 6.441e-03 0.000e+00 0.000e+00 0.000e+00 0.000e+00 0.000e+00 0.000e+00 0.000e+00 0.000e+00 0.000e+00 0.000e+00 0.000e+00 0.000e+00 0.000e+00 0.000e+00 0.000e+00 0.000e+00 0.000e+00 0.000e+00 0.000e+00 0.000e+00 0.000e+00 0.000e+00 0.000e+00 5.504e-03 0.000e+00 0.000e+00 0.000e+00 0.000e+00 0.000e+00 0.000e+00 0.000e+00 0.000e+00 0.000e+00 0.000e+00 0.000e+00 0.000e+00 0.000e+00 0.000e+00 0.000e+00 0.000e+00 0.000e+00 0.000e+00 0.000e+00 0.000e+00 0.000e+00 0.000e+00 4.566e-03 0.000e+00 0.000e+00 0.000e+00 0.000e+00 0.000e+00 0.000e+00 0.000e+00 0.000e+00 0.000e+00 0.000e+00 0.000e+00 0.000e+00 0.000e+00 0.000e+00 0.000e+00 0.000e+00 0.000e+00 0.000e+00 0.000e+00 0.000e+00 3.629e-03 0.000e+00 0.000e+00 0.000e+00 0.000e+00 0.000e+00 0.000e+00 0.000e+00 0.000e+00 0.000e+00 0.000e+00 0.000e+00 0.000e+00 2.691e-03 0.000e+00 0.000e+00 0.000e+00 0.000e+00 0.000e+00 0.000e+00 0.000e+00 0.000e+00 0.000e+00 0.000e+00 0.000e+00 0.000e+00 1.754e-03 0.000e+00 0.000e+00 0.000e+00 0.000e+00 0.000e+00 0.000e+00 0.000e+00 0.000e+00 0.000e+00 0.000e+00 0.000e+00 0.000e+00 8.160e-04 0.000e+00 0.000e+00 0.000e+00 0.000e+00 0.000e+00 0.000e+00 0.000e+00 0.000e+00 0.000e+00 0.000e+00 0.000e+00 0.000e+00 0.000e+00 0.000e+00 6.833e-02 5.800e-02 5.300e-02 5.000e-02 4.250e-02 3.750e-02 3.250e-02 2.750e-02 2.250e-02 1.750e-02 1.250e-02 7.500e-03 2.500e-03 0.000e+00 0.000e+00 0.000e+00 0.000e+00 0.000e+00 0.000e+00 0.000e+00 0.000e+00 0.000e+00 0.000e+00 0.000e+00 0.000e+00 0.000e+00 0.000e+00 0.000e+00 8.316e-03 0.000e+00 7.379e-03 0.000e+00 0.000e+00 0.000e+00 0.000e+00 0.000e+00 0.000e+00 0.000e+00 0.000e+00 0.000e+00 0.000e+00 0.000e+00 0.000e+00 0.000e+00 0.000e+00 0.000e+00 0.000e+00 0.000e+00 0.000e+00 0.000e+00 0.000e+00 0.000e+00 0.000e+00 0.000e+00 0.000e+00 6.441e-03 0.000e+00 0.000e+00 0.000e+00 0.000e+00 0.000e+00 0.000e+00 0.000e+00 0.000e+00 0.000e+00 0.000e+00 0.000e+00 0.000e+00 0.000e+00 0.000e+00 0.000e+00 0.000e+00 0.000e+00 0.000e+00 0.000e+00 0.000e+00 0.000e+00 0.000e+00 0.000e+00 0.000e+00 5.504e-03 0.000e+00 0.000e+00 0.000e+00 0.000e+00 0.000e+00 0.000e+00 0.000e+00 0.000e+00 0.000e+00 0.000e+00 0.000e+00 0.000e+00 0.000e+00 0.000e+00 0.000e+00 0.000e+00 0.000e+00 0.000e+00 0.000e+00 0.000e+00 0.000e+00 0.000e+00 4.566e-03 0.000e+00 0.000e+00 0.000e+00 0.000e+00 0.000e+00 0.000e+00 0.000e+00 0.000e+00 0.000e+00 0.000e+00 0.000e+00 0.000e+00 0.000e+00 0.000e+00 0.000e+00 0.000e+00 0.000e+00 0.000e+00 0.000e+00 3.629e-03 0.000e+00 0.000e+00 0.000e+00 0.000e+00 0.000e+00 0.000e+00 0.000e+00 0.000e+00 0.000e+00 0.000e+00 0.000e+00 0.000e+00 0.000e+00 0.000e+00 2.691e-03 0.000e+00 0.000e+00 0.000e+00 0.000e+00 0.000e+00 0.000e+00 0.000e+00 0.000e+00 0.000e+00 0.000e+00 0.000e+00 0.000e+00 1.754e-03 0.000e+00 0.000e+00 0.000e+00 0.000e+00 0.000e+00 0.000e+00 0.000e+00 0.000e+00 0.000e+00 0.000e+00 0.000e+00 0.000e+00 8.160e-04 0.000e+00 0.000e+00 0.000e+00 0.000e+00 0.000e+00 0.000e+00 0.000e+00 0.000e+00 0.000e+00 0.000e+00 0.000e+00 0.000e+00 6.833e-02 5.800e-02 5.300e-02 5.000e-02 4.250e-02 3.750e-02 3.250e-02 2.750e-02 2.250e-02 1.750e-02 1.250e-02 7.500e-03 2.500e-03 0.000e+00 0.000e+00 0.000e+00 0.000e+00 0.000e+00 0.000e+00 0.000e+00 0.000e+00 0.000e+00 0.000e+00 0.000e+00 0.000e+00 0.000e+00 0.000e+00 0.000e+00 0.000e+00 0.000e+00 0.000e+00 0.000e+00 0.000e+00 0.000e+00 0.000e+00 0.000e+00 0.000e+00 0.000e+00 0.000e+00 0.000e+00 0.000e+00 0.000e+00 0.000e+00 0.000e+00 0.000e+00 0.000e+00 0.000e+00 0.000e+00 4.375e-02 1.750e-02 5.000e-03 0.000e+00 0.000e+00 0.000e+00 0.000e+00 0.000e+00 0.000e+00 0.000e+00 0.000e+00 0.000e+00 0.000e+00 0.000e+00 0.000e+00 0.000e+00 0.000e+00 0.000e+00 0.000e+00 0.000e+00 0.000e+00 0.000e+00 0.000e+00 0.000e+00 0.000e+00 0.000e+00 0.000e+00 0.000e+00 0.000e+00 0.000e+00 0.000e+00 0.000e+00 0.000e+00 0.000e+00 0.000e+00 0.000e+00 0.000e+00 4.375e-02 1.750e-02 5.000e-03 0.000e+00 0.000e+00 0.000e+00 0.000e+00 0.000e+00 0.000e+00 0.000e+00 0.000e+00 0.000e+00 0.000e+00 0.000e+00 0.000e+00 0.000e+00 0.000e+00 0.000e+00 0.000e+00 0.000e+00 0.000e+00 0.000e+00 0.000e+00 0.000e+00 0.000e+00 0.000e+00 0.000e+00 0.000e+00 0.000e+00 0.000e+00 0.000e+00 0.000e+00 0.000e+00 0.000e+00 0.000e+00 0.000e+00 0.000e+00 4.375e-02 1.750e-02 5.000e-03 0.000e+00 0.000e+00 0.000e+00 0.000e+00 0.000e+00 0.000e+00 0.000e+00 0.000e+00 0.000e+00 0.000e+00 0.000e+00 0.000e+00 0.000e+00 0.000e+00 0.000e+00 0.000e+00 0.000e+00 0.000e+00 0.000e+00 0.000e+00 0.000e+00 0.000e+00 0.000e+00 0.000e+00 0.000e+00 0.000e+00 0.000e+00 0.000e+00 0.000e+00 0.000e+00 0.000e+00 0.000e+00 0.000e+00 0.000e+00 4.375e-02 1.750e-02 5.000e-03 0.000e+00 0.000e+00 0.000e+00 0.000e+00 0.000e+00 0.000e+00 0.000e+00 0.000e+00 0.000e+00 0.000e+00 0.000e+00 0.000e+00 0.000e+00 0.000e+00 0.000e+00 0.000e+00 0.000e+00 0.000e+00 0.000e+00 0.000e+00 0.000e+00 0.000e+00 0.000e+00 0.000e+00 0.000e+00 0.000e+00 0.000e+00 0.000e+00 0.000e+00 0.000e+00 0.000e+00 0.000e+00 0.000e+00 0.000e+00 0.000e+00 0.000e+00 0.000e+00 0.000e+00 0.000e+00 0.000e+00 0.000e+00 0.000e+00 0.000e+00 6.715e-02 5.500e-02 3.250e-02 2.500e-03 0.000e+00 0.000e+00 0.000e+00 0.000e+00 0.000e+00 6.672e-02 5.600e-02 4.000e-02 1.500e-02 0.000e+00 0.000e+00 0.000e+00 6.291e-02 5.000e-02 2.000e-02 0.000e+00 0.000e+00 0.000e+00 0.000e+00 0.000e+00 0.000e+00 0.000e+00 0.000e+00 0.000e+00 0.000e+00 0.000e+00 0.000e+00 0.000e+00 0.000e+00 0.000e+00 0.000e+00 0.000e+00 0.000e+00 0.000e+00 0.000e+00 0.000e+00 0.000e+00 0.000e+00 0.000e+00 0.000e+00 0.000e+00 0.000e+00 0.000e+00 0.000e+00 6.248e-02 5.200e-02 3.000e-02 5.000e-03 0.000e+00 0.000e+00 0.000e+00 0.000e+00 0.000e+00 0.000e+00 0.000e+00 0.000e+00 0.000e+00 0.000e+00 0.000e+00 0.000e+00 0.000e+00 0.000e+00 0.000e+00 0.000e+00 0.000e+00 0.000e+00 0.000e+00 0.000e+00 0.000e+00 0.000e+00 0.000e+00 0.000e+00 6.206e-02 5.000e-02 2.000e-02 0.000e+00 0.000e+00 0.000e+00 0.000e+00 0.000e+00 0.000e+00 0.000e+00 0.000e+00 0.000e+00 0.000e+00 0.000e+00 0.000e+00 0.000e+00 0.000e+00 0.000e+00 0.000e+00 0.000e+00 0.000e+00 0.000e+00 0.000e+00 0.000e+00 0.000e+00 6.163e-02 4.500e-02 1.250e-02 0.000e+00 0.000e+00 0.000e+00 0.000e+00 0.000e+00 0.000e+00 0.000e+00 0.000e+00 0.000e+00 0.000e+00 0.000e+00 0.000e+00 0.000e+00 6.121e-02 5.000e-02 2.000e-02 0.000e+00 0.000e+00 0.000e+00 0.000e+00 0.000e+00 0.000e+00 0.000e+00 0.000e+00 0.000e+00 0.000e+00 0.000e+00 0.000e+00 0.000e+00 0.000e+00 0.000e+00 6.078e-02 5.000e-02 2.500e-02 0.000e+00 0.000e+00 0.000e+00 0.000e+00 0.000e+00 0.000e+00 0.000e+00 0.000e+00 0.000e+00 0.000e+00 0.000e+00 0.000e+00 6.036e-02 4.500e-02 1.250e-02 0.000e+00 0.000e+00 0.000e+00 0.000e+00 0.000e+00 5.994e-02 5.000e-02 2.500e-02 0.000e+00 0.000e+00 0.000e+00 0.000e+00 5.951e-02 4.500e-02 1.750e-02 0.000e+00 0.000e+00 0.000e+00 0.000e+00 5.909e-02 4.500e-02 2.000e-02 0.000e+00 0.000e+00 0.000e+00 0.000e+00 6.630e-02 5.400e-02 3.000e-02 0.000e+00 0.000e+00 0.000e+00 0.000e+00 0.000e+00 5.866e-02 4.750e-02 2.250e-02 0.000e+00 0.000e+00 0.000e+00 0.000e+00 5.824e-02 4.250e-02 1.500e-02 0.000e+00 0.000e+00 0.000e+00 5.782e-02 4.000e-02 1.000e-02 0.000e+00 0.000e+00 5.739e-02 4.000e-02 1.000e-02 0.000e+00 0.000e+00 0.000e+00 5.697e-02 4.250e-02 1.750e-02 0.000e+00 0.000e+00 0.000e+00 0.000e+00 5.654e-02 4.000e-02 1.500e-02 0.000e+00 0.000e+00 0.000e+00 5.612e-02 3.500e-02 5.000e-03 0.000e+00 0.000e+00 0.000e+00 5.569e-02 4.000e-02 1.500e-02 0.000e+00 0.000e+00 0.000e+00 0.000e+00 5.527e-02 4.000e-02 1.500e-02 0.000e+00 0.000e+00 0.000e+00 0.000e+00 5.485e-02 3.500e-02 1.000e-02 0.000e+00 0.000e+00 0.000e+00 0.000e+00 0.000e+00 6.588e-02 5.500e-02 3.500e-02 1.000e-02 0.000e+00 0.000e+00 0.000e+00 5.442e-02 3.500e-02 7.500e-03 0.000e+00 0.000e+00 5.400e-02 3.500e-02 1.000e-02 0.000e+00 0.000e+00 0.000e+00 5.357e-02 3.250e-02 5.000e-03 0.000e+00 0.000e+00 0.000e+00 0.000e+00 5.315e-02 3.250e-02 7.500e-03 0.000e+00 0.000e+00 0.000e+00 5.272e-02 2.500e-02 0.000e+00 0.000e+00 0.000e+00 5.230e-02 2.500e-02 0.000e+00 0.000e+00 0.000e+00 5.188e-02 3.000e-02 5.000e-03 0.000e+00 0.000e+00 0.000e+00 5.145e-02 2.500e-02 0.000e+00 0.000e+00 0.000e+00 5.103e-02 2.500e-02 0.000e+00 0.000e+00 0.000e+00 5.060e-02 2.000e-02 0.000e+00 0.000e+00 0.000e+00 0.000e+00 0.000e+00 6.545e-02 5.600e-02 4.000e-02 1.500e-02 0.000e+00 0.000e+00 0.000e+00 5.018e-02 2.500e-02 0.000e+00 0.000e+00 0.000e+00 4.938e-02 2.000e-02 0.000e+00 0.000e+00 0.000e+00 4.832e-02 2.000e-02 0.000e+00 0.000e+00 0.000e+00 4.726e-02 2.000e-02 0.000e+00 0.000e+00 0.000e+00 4.620e-02 2.000e-02 0.000e+00 0.000e+00 0.000e+00 4.514e-02 2.000e-02 0.000e+00 0.000e+00 0.000e+00 4.408e-02 1.500e-02 0.000e+00 0.000e+00 4.302e-02 2.000e-02 0.000e+00 0.000e+00 0.000e+00 4.196e-02 1.500e-02 0.000e+00 0.000e+00 0.000e+00 4.090e-02 1.000e-02 0.000e+00 0.000e+00 0.000e+00 0.000e+00 6.503e-02 5.400e-02 3.250e-02 5.000e-03 0.000e+00 0.000e+00 3.984e-02 1.000e-02 0.000e+00 0.000e+00 3.878e-02 1.000e-02 0.000e+00 0.000e+00 0.000e+00 3.772e-02 5.000e-03 0.000e+00 0.000e+00 3.666e-02 7.500e-03 0.000e+00 0.000e+00 3.560e-02 5.000e-03 0.000e+00 0.000e+00 3.454e-02 7.500e-03 0.000e+00 0.000e+00 3.347e-02 2.500e-03 0.000e+00 0.000e+00 3.241e-02 5.000e-03 0.000e+00 0.000e+00 0.000e+00 3.135e-02 5.000e-03 0.000e+00 0.000e+00 3.029e-02 5.000e-03 0.000e+00 0.000e+00 0.000e+00 6.460e-02 5.200e-02 2.250e-02 0.000e+00 0.000e+00 2.923e-02 5.000e-03 0.000e+00 0.000e+00 0.000e+00 2.817e-02 0.000e+00 0.000e+00 0.000e+00 2.711e-02 0.000e+00 0.000e+00 0.000e+00 2.605e-02 0.000e+00 0.000e+00 0.000e+00 2.499e-02 0.000e+00 0.000e+00 2.393e-02 0.000e+00 0.000e+00 0.000e+00 2.287e-02 0.000e+00 0.000e+00 2.181e-02 0.000e+00 0.000e+00 0.000e+00 2.075e-02 0.000e+00 0.000e+00 0.000e+00 1.969e-02 0.000e+00 0.000e+00 0.000e+00 0.000e+00 0.000e+00 6.418e-02 5.400e-02 3.500e-02 1.000e-02 0.000e+00 0.000e+00 0.000e+00 1.863e-02 0.000e+00 0.000e+00 0.000e+00 1.756e-02 0.000e+00 0.000e+00 0.000e+00 1.650e-02 0.000e+00 0.000e+00 0.000e+00 1.544e-02 0.000e+00 0.000e+00 1.438e-02 0.000e+00 0.000e+00 0.000e+00 1.332e-02 0.000e+00 0.000e+00 0.000e+00 1.226e-02 0.000e+00 0.000e+00 0.000e+00 1.120e-02 0.000e+00 0.000e+00 1.014e-02 0.000e+00 0.000e+00 0.000e+00 9.079e-03 0.000e+00 0.000e+00 0.000e+00 0.000e+00 0.000e+00 6.375e-02 5.400e-02 3.500e-02 1.000e-02 0.000e+00 0.000e+00 0.000e+00 8.019e-03 0.000e+00 0.000e+00 6.958e-03 0.000e+00 0.000e+00 5.897e-03 0.000e+00 0.000e+00 4.837e-03 0.000e+00 0.000e+00 0.000e+00 3.776e-03 0.000e+00 0.000e+00 2.715e-03 0.000e+00 0.000e+00 1.655e-03 0.000e+00 0.000e+00 5.940e-04 0.000e+00 0.000e+00 0.000e+00 0.000e+00 0.000e+00 0.000e+00 0.000e+00 0.000e+00 0.000e+00 6.333e-02 5.200e-02 2.500e-02 0.000e+00 0.000e+00 0.000e+00 0.000e+00 0.000e+00 0.000e+00 0.000e+00 0.000e+00 0.000e+00 0.000e+00 0.000e+00 0.000e+00 0.000e+00 0.000e+00 0.000e+00 0.000e+00 0.000e+00 0.000e+00 0.000e+00 0.000e+00 0.000e+00 0.000e+00 0.000e+00 0.000e+00 0.000e+00 0.000e+00 0.000e+00 0.000e+00 0.000e+00 0.000e+00 0.000e+00 0.000e+00 0.000e+00 0.000e+00 0.000e+00 0.000e+00 0.000e+00 5.701e-02 5.000e-02 3.250e-02 1.500e-02 0.000e+00 0.000e+00 0.000e+00 0.000e+00 0.000e+00 0.000e+00 0.000e+00 0.000e+00 0.000e+00 0.000e+00 0.000e+00 5.211e-02 4.000e-02 2.500e-02 1.000e-02 0.000e+00 0.000e+00 0.000e+00 0.000e+00 0.000e+00 0.000e+00 0.000e+00 2.367e-02 7.500e-03 0.000e+00 0.000e+00 0.000e+00 0.000e+00 0.000e+00 0.000e+00 0.000e+00 0.000e+00 0.000e+00 0.000e+00 0.000e+00 0.000e+00 0.000e+00 1.168e-01 1.118e-01 1.067e-01 1.017e-01 9.800e-02 9.500e-02 9.100e-02 8.800e-02 8.500e-02 8.100e-02 7.800e-02 7.500e-02 7.100e-02 6.800e-02 6.500e-02 6.200e-02 5.900e-02 5.600e-02 5.300e-02 5.000e-02 4.250e-02 3.500e-02 2.750e-02 2.000e-02 1.250e-02 5.000e-03 0.000e+00 0.000e+00 0.000e+00 0.000e+00 0.000e+00 0.000e+00 0.000e+00 0.000e+00 0.000e+00
           </DataArray>
           <DataArray type="Float32" Name="combinedRootClassID" NumberOfComponents="1" format="ascii">