<?xml version="1.0"?>
<VTKFile type="UnstructuredGrid" version="0.1" byte_order="LittleEndian">
   <UnstructuredGrid>
      <Piece NumberOfPoints="2580" NumberOfCells="182">
         <Points>
            <DataArray type="Float32" Name="Position" NumberOfComponents="3" format="ascii">
0.017	-5.017	0.010
0.016	-5.004	0.026
0.009	-4.986	0.033
-0.002	-4.969	0.026
-0.012	-4.960	0.010
-0.018	-4.963	-0.010
-0.017	-4.976	-0.026
-0.010	-4.995	-0.032
0.001	-5.011	-0.026
0.011	-5.020	-0.010
-0.649	-5.360	0.241
-0.650	-5.349	0.258
-0.658	-5.332	0.267
-0.671	-5.316	0.264
-0.684	-5.306	0.250
-0.691	-5.307	0.231
-0.690	-5.319	0.213
-0.682	-5.336	0.204
-0.668	-5.352	0.207
-0.656	-5.361	0.221
-1.234	-5.948	0.516
-1.234	-5.941	0.536
-1.243	-5.928	0.549
-1.259	-5.914	0.551
-1.275	-5.905	0.541
-1.285	-5.904	0.523
-1.285	-5.911	0.503
-1.276	-5.924	0.490
-1.260	-5.938	0.488
-1.244	-5.947	0.498
-1.608	-6.493	0.682
-1.607	-6.488	0.702
-1.616	-6.477	0.718
-1.633	-6.466	0.723
-1.651	-6.457	0.715
-1.662	-6.455	0.698
-1.664	-6.460	0.678
-1.654	-6.470	0.662
-1.638	-6.482	0.657
-1.620	-6.490	0.665
-1.984	-7.177	0.855
-1.981	-7.173	0.876
-1.990	-7.165	0.893
-2.007	-7.155	0.900
-2.026	-7.147	0.894
-2.039	-7.144	0.878
-2.041	-7.147	0.857
-2.032	-7.156	0.840
-2.015	-7.166	0.833
-1.997	-7.174	0.839
-2.226	-7.714	0.955
-2.223	-7.712	0.976
-2.231	-7.705	0.994
-2.248	-7.697	1.003
-2.268	-7.690	0.999
-2.282	-7.686	0.983
-2.285	-7.688	0.963
-2.277	-7.695	0.945
-2.260	-7.703	0.936
-2.240	-7.710	0.940
-2.445	-8.320	1.044
-2.441	-8.319	1.065
-2.449	-8.314	1.084
-2.466	-8.307	1.094
-2.485	-8.300	1.091
-2.500	-8.296	1.076
-2.504	-8.297	1.056
-2.496	-8.302	1.037
-2.479	-8.309	1.027
-2.460	-8.316	1.030
-2.681	-8.980	1.092
-2.676	-8.980	1.113
-2.684	-8.977	1.132
-2.701	-8.970	1.142
-2.720	-8.964	1.140
-2.736	-8.959	1.126
-2.740	-8.959	1.106
-2.732	-8.962	1.087
-2.715	-8.969	1.076
-2.696	-8.975	1.078
-2.825	-9.298	1.095
-2.825	-9.289	1.114
-2.825	-9.292	1.134
-2.825	-9.307	1.149
-2.825	-9.328	1.152
-2.825	-9.347	1.143
-2.825	-9.356	1.124
-2.825	-9.353	1.103
-2.825	-9.338	1.089
-2.825	-9.317	1.085
0.027	-5.004	-0.014
0.032	-4.985	-0.006
0.025	-4.968	0.004
0.008	-4.960	0.013
-0.012	-4.963	0.017
-0.028	-4.976	0.014
-0.034	-4.995	0.006
-0.026	-5.012	-0.004
-0.009	-5.020	-0.013
0.011	-5.017	-0.017
0.214	-5.343	0.673
0.219	-5.325	0.684
0.212	-5.310	0.696
0.195	-5.302	0.705
0.174	-5.305	0.708
0.158	-5.318	0.704
0.153	-5.335	0.693
0.160	-5.350	0.681
0.177	-5.358	0.672
0.197	-5.355	0.669
0.345	-5.919	1.323
0.351	-5.905	1.337
0.345	-5.892	1.352
0.328	-5.885	1.362
0.307	-5.887	1.364
0.290	-5.897	1.356
0.284	-5.912	1.342
0.291	-5.925	1.327
0.308	-5.932	1.317
0.329	-5.930	1.315
0.416	-6.443	1.758
0.423	-6.430	1.774
0.416	-6.419	1.790
0.399	-6.413	1.801
0.378	-6.414	1.802
0.362	-6.423	1.793
0.355	-6.436	1.778
0.362	-6.447	1.761
0.378	-6.453	1.750
0.399	-6.451	1.749
0.506	-7.105	2.201
0.513	-7.093	2.218
0.506	-7.083	2.235
0.490	-7.078	2.246
0.469	-7.079	2.248
0.452	-7.087	2.238
0.445	-7.099	2.222
0.451	-7.109	2.205
0.468	-7.114	2.193
0.489	-7.113	2.192
0.562	-7.614	2.512
0.569	-7.604	2.529
0.563	-7.595	2.547
0.547	-7.590	2.559
0.526	-7.591	2.560
0.508	-7.598	2.550
0.502	-7.608	2.533
0.508	-7.617	2.515
0.524	-7.622	2.504
0.545	-7.621	2.502
0.611	-8.198	2.798
0.618	-8.189	2.816
0.612	-8.181	2.834
0.596	-8.176	2.846
0.575	-8.177	2.847
0.557	-8.183	2.837
0.550	-8.192	2.819
0.556	-8.200	2.801
0.573	-8.204	2.789
0.594	-8.204	2.788
0.635	-8.839	3.088
0.642	-8.831	3.106
0.636	-8.823	3.124
0.619	-8.819	3.136
0.598	-8.819	3.137
0.581	-8.824	3.127
0.574	-8.833	3.109
0.580	-8.840	3.090
0.596	-8.845	3.078
0.617	-8.845	3.077
0.646	-9.181	3.234
0.653	-9.173	3.252
0.647	-9.165	3.270
0.631	-9.161	3.282
0.610	-9.161	3.283
0.593	-9.166	3.273
0.585	-9.174	3.255
0.591	-9.182	3.236
0.608	-9.187	3.224
0.629	-9.186	3.223
0.004	-4.969	-0.026
0.010	-4.959	-0.008
0.011	-4.961	0.013
0.008	-4.974	0.029
0.002	-4.993	0.034
-0.005	-5.011	0.026
-0.011	-5.021	0.009
-0.012	-5.019	-0.012
-0.009	-5.006	-0.028
-0.003	-4.987	-0.034
0.746	-5.238	-0.105
0.753	-5.228	-0.088
0.755	-5.230	-0.067
0.751	-5.242	-0.051
0.742	-5.260	-0.045
0.732	-5.278	-0.052
0.726	-5.288	-0.069
0.724	-5.286	-0.090
0.728	-5.274	-0.107
0.737	-5.256	-0.112
1.479	-5.729	-0.195
1.488	-5.721	-0.178
1.490	-5.722	-0.157
1.484	-5.733	-0.140
1.472	-5.749	-0.133
1.459	-5.764	-0.140
1.450	-5.773	-0.157
1.448	-5.772	-0.178
1.455	-5.761	-0.195
1.466	-5.745	-0.201
1.984	-6.194	-0.260
1.994	-6.187	-0.244
1.995	-6.188	-0.223
1.988	-6.197	-0.205
1.974	-6.211	-0.199
1.959	-6.225	-0.205
1.949	-6.233	-0.222
1.947	-6.232	-0.243
1.955	-6.222	-0.260
1.969	-6.208	-0.266
2.510	-6.800	-0.323
2.521	-6.793	-0.307
2.522	-6.794	-0.286
2.513	-6.803	-0.269
2.498	-6.815	-0.262
2.482	-6.828	-0.268
2.472	-6.835	-0.285
2.470	-6.834	-0.306
2.479	-6.826	-0.323
2.494	-6.813	-0.330
2.871	-7.283	-0.349
2.882	-7.277	-0.332
2.882	-7.278	-0.311
2.872	-7.285	-0.294
2.856	-7.296	-0.287
2.839	-7.306	-0.294
2.828	-7.313	-0.311
2.827	-7.312	-0.332
2.837	-7.305	-0.349
2.854	-7.294	-0.355
3.184	-7.858	-0.364
3.195	-7.852	-0.347
3.195	-7.853	-0.326
3.185	-7.859	-0.309
3.167	-7.868	-0.303
3.149	-7.877	-0.310
3.138	-7.882	-0.327
3.138	-7.882	-0.348
3.149	-7.876	-0.365
3.167	-7.867	-0.371
3.493	-8.493	-0.370
3.504	-8.488	-0.352
3.503	-8.488	-0.331
3.491	-8.493	-0.315
3.473	-8.501	-0.309
3.455	-8.510	-0.315
3.444	-8.515	-0.333
3.445	-8.515	-0.354
3.457	-8.510	-0.370
3.475	-8.501	-0.377
3.646	-8.832	-0.355
3.657	-8.827	-0.338
3.656	-8.826	-0.317
3.644	-8.831	-0.300
3.625	-8.839	-0.294
3.607	-8.848	-0.301
3.597	-8.853	-0.319
3.598	-8.854	-0.340
3.610	-8.849	-0.356
3.628	-8.841	-0.362
-0.021	-4.964	-0.006
-0.002	-4.958	-0.013
0.018	-4.965	-0.014
0.031	-4.982	-0.011
0.031	-5.001	-0.003
0.020	-5.017	0.006
0.001	-5.022	0.013
-0.019	-5.015	0.014
-0.032	-4.998	0.011
-0.033	-4.979	0.003
-0.182	-5.255	-0.730
-0.162	-5.255	-0.735
-0.144	-5.265	-0.734
-0.134	-5.282	-0.726
-0.138	-5.300	-0.715
-0.152	-5.311	-0.704
-0.173	-5.311	-0.699
-0.191	-5.301	-0.700
-0.200	-5.284	-0.708
-0.197	-5.266	-0.720
-0.375	-5.808	-1.399
-0.356	-5.806	-1.406
-0.336	-5.813	-1.405
-0.323	-5.827	-1.395
-0.323	-5.842	-1.380
-0.335	-5.853	-1.366
-0.354	-5.855	-1.359
-0.374	-5.848	-1.360
-0.386	-5.834	-1.370
-0.387	-5.819	-1.385
-0.491	-6.323	-1.844
-0.471	-6.325	-1.848
-0.453	-6.334	-1.841
-0.445	-6.348	-1.827
-0.450	-6.359	-1.810
-0.466	-6.365	-1.797
-0.487	-6.363	-1.794
-0.504	-6.354	-1.800
-0.512	-6.340	-1.815
-0.507	-6.329	-1.831
-0.649	-6.965	-2.302
-0.628	-6.970	-2.303
-0.613	-6.980	-2.293
-0.609	-6.992	-2.276
-0.617	-7.001	-2.259
-0.635	-7.004	-2.248
-0.655	-6.999	-2.248
-0.670	-6.989	-2.258
-0.675	-6.977	-2.274
-0.667	-6.968	-2.291
-0.769	-7.477	-2.598
-0.749	-7.483	-2.596
-0.735	-7.493	-2.583
-0.734	-7.504	-2.565
-0.744	-7.510	-2.548
-0.763	-7.510	-2.539
-0.783	-7.504	-2.541
-0.797	-7.494	-2.553
-0.798	-7.483	-2.571
-0.788	-7.477	-2.588
-0.922	-8.045	-2.884
-0.903	-8.052	-2.880
-0.891	-8.062	-2.866
-0.891	-8.071	-2.847
-0.903	-8.075	-2.830
-0.923	-8.073	-2.822
-0.942	-8.066	-2.827
-0.954	-8.057	-2.841
-0.954	-8.048	-2.860
-0.942	-8.043	-2.877
-1.085	-8.677	-3.151
-1.066	-8.684	-3.146
-1.054	-8.693	-3.131
-1.054	-8.701	-3.112
-1.067	-8.706	-3.096
-1.086	-8.704	-3.088
-1.106	-8.697	-3.093
-1.117	-8.688	-3.108
-1.117	-8.680	-3.127
-1.105	-8.676	-3.143
-1.144	-9.015	-3.294
-1.132	-9.025	-3.280
-1.131	-9.033	-3.261
-1.143	-9.038	-3.244
-1.163	-9.037	-3.236
-1.183	-9.030	-3.240
-1.195	-9.021	-3.255
-1.195	-9.012	-3.274
-1.183	-9.008	-3.291
-1.163	-9.009	-3.298
-0.006	-4.727	0.022
-0.008	-4.710	0.034
-0.013	-4.690	0.034
-0.017	-4.673	0.022
-0.019	-4.667	0.002
-0.019	-4.674	-0.018
-0.016	-4.690	-0.030
-0.012	-4.711	-0.030
-0.008	-4.727	-0.018
-0.005	-4.734	0.002
-0.435	-4.818	0.046
-0.438	-4.801	0.058
-0.443	-4.780	0.058
-0.447	-4.764	0.046
-0.449	-4.758	0.026
-0.449	-4.764	0.006
-0.446	-4.781	-0.006
-0.442	-4.802	-0.006
-0.437	-4.818	0.006
-0.435	-4.824	0.026
0.015	-4.719	-0.006
0.021	-4.699	-0.004
0.015	-4.680	0.001
-0.002	-4.668	0.006
-0.023	-4.669	0.009
-0.039	-4.682	0.010
-0.046	-4.701	0.008
-0.039	-4.721	0.004
-0.023	-4.733	-0.001
-0.002	-4.732	-0.005
0.096	-4.791	0.420
0.102	-4.771	0.422
0.096	-4.752	0.427
0.079	-4.740	0.432
0.058	-4.741	0.436
0.042	-4.754	0.437
0.035	-4.774	0.435
0.042	-4.793	0.430
0.059	-4.805	0.425
0.079	-4.804	0.421
-0.011	-4.677	-0.023
-0.007	-4.667	-0.004
-0.005	-4.670	0.016
-0.005	-4.685	0.032
-0.009	-4.705	0.036
-0.014	-4.724	0.027
-0.018	-4.733	0.009
-0.020	-4.730	-0.012
-0.019	-4.716	-0.027
-0.016	-4.695	-0.031
0.440	-4.808	-0.053
0.449	-4.789	-0.053
0.446	-4.768	-0.053
0.431	-4.753	-0.053
0.410	-4.750	-0.053
0.392	-4.759	-0.053
0.382	-4.778	-0.053
0.386	-4.799	-0.053
0.400	-4.814	-0.053
0.421	-4.817	-0.053
-0.035	-4.675	0.000
-0.017	-4.667	-0.005
0.003	-4.672	-0.008
0.018	-4.687	-0.007
0.021	-4.708	-0.003
0.011	-4.725	0.004
-0.008	-4.733	0.010
-0.028	-4.729	0.013
-0.042	-4.713	0.012
-0.045	-4.693	0.007
-0.120	-4.782	-0.418
-0.101	-4.774	-0.423
-0.081	-4.779	-0.426
-0.066	-4.794	-0.425
-0.064	-4.814	-0.421
-0.073	-4.832	-0.414
-0.092	-4.840	-0.408
-0.112	-4.835	-0.406
-0.126	-4.820	-0.407
-0.129	-4.800	-0.411
-0.150	-5.004	0.154
-0.030	-5.002	0.213
0.100	-4.998	0.190
0.193	-4.996	0.095
0.212	-4.995	-0.037
0.150	-4.996	-0.154
0.030	-4.998	-0.213
-0.100	-5.002	-0.190
-0.193	-5.004	-0.095
-0.212	-5.005	0.037
-0.168	-4.253	0.155
-0.050	-4.252	0.214
0.079	-4.250	0.192
0.171	-4.248	0.098
0.191	-4.247	-0.032
0.130	-4.248	-0.148
0.013	-4.249	-0.206
-0.117	-4.251	-0.185
-0.209	-4.253	-0.091
-0.228	-4.254	0.039
-0.172	-3.291	0.154
-0.056	-3.290	0.213
0.073	-3.290	0.193
0.165	-3.290	0.101
0.185	-3.290	-0.028
0.126	-3.290	-0.144
0.010	-3.290	-0.203
-0.119	-3.291	-0.182
-0.211	-3.291	-0.090
-0.231	-3.291	0.039
-0.173	-2.400	0.151
-0.058	-2.400	0.209
0.070	-2.400	0.189
0.161	-2.400	0.098
0.182	-2.401	-0.030
0.123	-2.401	-0.145
0.008	-2.401	-0.204
-0.120	-2.400	-0.184
-0.211	-2.400	-0.092
-0.232	-2.400	0.035
-0.170	-1.801	0.151
-0.055	-1.801	0.210
0.072	-1.801	0.189
0.163	-1.801	0.098
0.183	-1.801	-0.029
[...]
         <CellData>
           <DataArray type="Float32" Name="aerenchymaFormation" NumberOfComponents="1" format="ascii">
 0.000e+00 0.000e+00 0.000e+00 0.000e+00 0.000e+00 0.000e+00 0.000e+00 0.000e+00 0.000e+00 0.000e+00 0.000e+00 0.000e+00 0.000e+00 0.000e+00 0.000e+00 0.000e+00 0.000e+00 0.000e+00 0.000e+00 0.000e+00 0.000e+00 0.000e+00 0.000e+00 0.000e+00 0.000e+00 0.000e+00 0.000e+00 0.000e+00 0.000e+00 0.000e+00 0.000e+00 0.000e+00 0.000e+00 0.000e+00 0.000e+00 0.000e+00 0.000e+00 0.000e+00 0.000e+00 0.000e+00 0.000e+00 0.000e+00 0.000e+00 0.000e+00 0.000e+00 0.000e+00 0.000e+00 0.000e+00 0.000e+00 0.000e+00 0.000e+00 0.000e+00 0.000e+00 0.000e+00 0.000e+00 0.000e+00 0.000e+00 0.000e+00 0.000e+00 0.000e+00 0.000e+00 0.000e+00 0.000e+00 0.000e+00 0.000e+00 0.000e+00 0.000e+00 0.000e+00 0.000e+00 0.000e+00 0.000e+00 0.000e+00 0.000e+00 0.000e+00 0.000e+00 0.000e+00 0.000e+00 0.000e+00 0.000e+00 0.000e+00 0.000e+00 0.000e+00 0.000e+00 0.000e+00 0.000e+00 0.000e+00 0.000e+00 0.000e+00 0.000e+00 0.000e+00 0.000e+00 0.000e+00 0.000e+00 0.000e+00 0.000e+00 0.000e+00 0.000e+00 0.000e+00 0.000e+00 0.000e+00 0.000e+00 0.000e+00 0.000e+00 0.000e+00 0.000e+00 0.000e+00 0.000e+00 0.000e+00 0.000e+00 0.000e+00 0.000e+00 0.000e+00 0.000e+00 0.000e+00 0.000e+00 0.000e+00 0.000e+00 0.000e+00 0.000e+00 0.000e+00 0.000e+00 0.000e+00 0.000e+00 0.000e+00 0.000e+00 0.000e+00 0.000e+00 0.000e+00 0.000e+00 0.000e+00 0.000e+00 0.000e+00 0.000e+00 0.000e+00 0.000e+00 0.000e+00 0.000e+00 0.000e+00 0.000e+00 0.000e+00 0.000e+00 0.000e+00 0.000e+00 0.000e+00 0.000e+00 0.000e+00 0.000e+00 0.000e+00 0.000e+00 0.000e+00 0.000e+00 0.000e+00 0.000e+00 0.000e+00 0.000e+00 0.000e+00 0.000e+00 0.000e+00 0.000e+00 7.000e-02 6.700e-02 6.400e-02 6.100e-02 5.800e-02 5.500e-02 5.100e-02 4.500e-02 3.750e-02 2.750e-02 2.000e-02 1.250e-02 2.500e-03 0.000e+00 0.000e+00 0.000e+00 0.000e+00 0.000e+00 0.000e+00 0.000e+00 0.000e+00 0.000e+00 0.000e+00
           </DataArray>
           <DataArray type="Float32" Name="combinedRootClassID" NumberOfComponents="1" format="ascii">
 -5.000e+00 -5.000e+00 -5.000e+00 -5.000e+00 -5.000e+00 -5.000e+00 -5.000e+00 -5.000e+00 -5.000e+00 -5.000e+00 -5.000e+00 -5.000e+00 -5.000e+00 -5.000e+00 -5.000e+00 -5.000e+00 -5.000e+00 -5.000e+00 -5.000e+00 -5.000e+00 -5.000e+00 -5.000e+00 -5.000e+00 -5.000e+00 -5.000e+00 -5.000e+00 -5.000e+00 -5.000e+00 -5.000e+00 -5.000e+00 -5.000e+00 -5.000e+00 -1.100e+01 -1.100e+01 -1.100e+01 -1.100e+01 -2.000e+00 -2.000e+00 -2.000e+00 -2.000e+00 -2.000e+00 -2.000e+00 -2.000e+00 -2.000e+00 -2.000e+00 -2.000e+00 -7.000e+00 -7.000e+00 -7.000e+00 -7.000e+00 -7.000e+00 -7.000e+00 -7.000e+00 -7.000e+00 -7.000e+00 -7.000e+00 -7.000e+00 -7.000e+00 -7.000e+00 -7.000e+00 -7.000e+00 -7.000e+00 -7.000e+00 -7.000e+00 -7.000e+00 -7.000e+00 -7.000e+00 -7.000e+00 -7.000e+00 -7.000e+00 -7.000e+00 -7.000e+00 -7.000e+00 -7.000e+00 -7.000e+00 -7.000e+00 -7.000e+00 -7.000e+00 -7.000e+00 -7.000e+00 -7.000e+00 -7.000e+00 -7.000e+00 -7.000e+00 -7.000e+00 -7.000e+00 -7.000e+00 -7.000e+00 -7.000e+00 -7.000e+00 -7.000e+00 -7.000e+00 -7.000e+00 -7.000e+00 -7.000e+00 -7.000e+00 -7.000e+00 -7.000e+00 -7.000e+00 -7.000e+00 -7.000e+00 -7.000e+00 -7.000e+00 -7.000e+00 -7.000e+00 -7.000e+00 -7.000e+00 -7.000e+00 -7.000e+00 -7.000e+00 -7.000e+00 -7.000e+00 -7.000e+00 -7.000e+00 -7.000e+00 -7.000e+00 -7.000e+00 -7.000e+00 -7.000e+00 -7.000e+00 -7.000e+00 -7.000e+00 -7.000e+00 -7.000e+00 -7.000e+00 -7.000e+00 -7.000e+00 -7.000e+00 -7.000e+00 -7.000e+00 -7.000e+00 -7.000e+00 -7.000e+00 -7.000e+00 -7.000e+00 -7.000e+00 -7.000e+00 -7.000e+00 -7.000e+00 -7.000e+00 -7.000e+00 -7.000e+00 -7.000e+00 -7.000e+00 -7.000e+00 -7.000e+00 -7.000e+00 -7.000e+00 -7.000e+00 -7.000e+00 -7.000e+00 -7.000e+00 -7.000e+00 -7.000e+00 -9.000e+00 -9.000e+00 -9.000e+00 -9.000e+00 -9.000e+00 -4.000e+00 -4.000e+00 -4.000e+00 -4.000e+00 -4.000e+00 -4.000e+00 -4.000e+00 -4.000e+00 -4.000e+00 -4.000e+00 -4.000e+00 -4.000e+00 -4.000e+00 -4.000e+00 -4.000e+00 -4.000e+00 -4.000e+00 -4.000e+00 -4.000e+00 -4.000e+00 -4.000e+00 -4.000e+00 -4.000e+00
           </DataArray>
           <DataArray type="Float32" Name="nitrate/Cmin" NumberOfComponents="1" format="ascii">
 1.000e-03 1.000e-03 1.000e-03 1.000e-03 1.000e-03 1.000e-03 1.000e-03 1.000e-03 1.000e-03 1.000e-03 1.000e-03 1.000e-03 1.000e-03 1.000e-03 1.000e-03 1.000e-03 1.000e-03 1.000e-03 1.000e-03 1.000e-03 1.000e-03 1.000e-03 1.000e-03 1.000e-03 1.000e-03 1.000e-03 1.000e-03 1.000e-03 1.000e-03 1.000e-03 1.000e-03 1.000e-03 1.000e-03 1.000e-03 1.000e-03 1.000e-03 1.000e-03 1.000e-03 1.000e-03 1.000e-03 1.000e-03 1.000e-03 1.000e-03 1.000e-03 1.000e-03 1.000e-03 1.000e-03 1.000e-03 1.000e-03 1.000e-03 1.000e-03 1.000e-03 1.000e-03 1.000e-03 1.000e-03 1.000e-03 1.000e-03 1.000e-03 1.000e-03 1.000e-03 1.000e-03 1.000e-03 1.000e-03 1.000e-03 1.000e-03 1.000e-03 1.000e-03 1.000e-03 1.000e-03 1.000e-03 1.000e-03 1.000e-03 1.000e-03 1.000e-03 1.000e-03 1.000e-03 1.000e-03 1.000e-03 1.000e-03 1.000e-03 1.000e-03 1.000e-03 1.000e-03 1.000e-03 1.000e-03 1.000e-03 1.000e-03 1.000e-03 1.000e-03 1.000e-03 1.000e-03 1.000e-03 1.000e-03 1.000e-03 1.000e-03 1.000e-03 1.000e-03 1.000e-03 1.000e-03 1.000e-03 1.000e-03 1.000e-03 1.000e-03 1.000e-03 1.000e-03 1.000e-03 1.000e-03 1.000e-03 1.000e-03 1.000e-03 1.000e-03 1.000e-03 1.000e-03 1.000e-03 1.000e-03 1.000e-03 1.000e-03 1.000e-03 1.000e-03 1.000e-03 1.000e-03 1.000e-03 1.000e-03 1.000e-03 1.000e-03 1.000e-03 1.000e-03 1.000e-03 1.000e-03 1.000e-03 1.000e-03 1.000e-03 1.000e-03 1.000e-03 1.000e-03 1.000e-03 1.000e-03 1.000e-03 1.000e-03 1.000e-03 1.000e-03 1.000e-03 1.000e-03 1.000e-03 1.000e-03 1.000e-03 1.000e-03 1.000e-03 1.000e-03 1.000e-03 1.000e-03 1.000e-03 1.000e-03 1.000e-03 1.000e-03 1.000e-03 1.000e-03 1.000e-03 1.000e-03 1.000e-03 1.000e-03 1.000e-03 1.000e-03 1.000e-03 1.000e-03 1.000e-03 1.000e-03 1.000e-03 1.000e-03 1.000e-03 1.000e-03 1.000e-03 1.000e-03 1.000e-03 1.000e-03 1.000e-03 1.000e-03 1.000e-03 1.000e-03 1.000e-03 1.000e-03 1.000e-03
           </DataArray>
           <DataArray type="Float32" Name="nitrate/Imax" NumberOfComponents="1" format="ascii">
 1.900e+00 1.900e+00 1.900e+00 1.900e+00 1.900e+00 1.900e+00 1.900e+00 1.900e+00 1.900e+00 1.900e+00 1.900e+00 1.900e+00 1.900e+00 1.900e+00 1.900e+00 1.900e+00 1.900e+00 1.900e+00 1.900e+00 1.900e+00 1.900e+00 1.900e+00 1.900e+00 1.900e+00 1.900e+00 1.900e+00 1.900e+00 1.900e+00 1.900e+00 1.900e+00 1.900e+00 1.900e+00 1.900e+00 1.900e+00 1.900e+00 1.900e+00 1.900e+00 1.900e+00 1.900e+00 1.900e+00 1.900e+00 1.900e+00 1.900e+00 1.900e+00 1.900e+00 1.900e+00 1.900e+00 1.900e+00 1.900e+00 1.900e+00 1.900e+00 1.900e+00 1.900e+00 1.900e+00 1.900e+00 1.900e+00 1.900e+00 1.900e+00 1.900e+00 1.900e+00 1.900e+00 1.900e+00 1.900e+00 1.900e+00 1.900e+00 1.900e+00 1.900e+00 1.900e+00 1.900e+00 1.900e+00 1.900e+00 1.900e+00 1.900e+00 1.900e+00 1.900e+00 1.900e+00 1.900e+00 1.900e+00 1.900e+00 1.900e+00 1.900e+00 1.900e+00 1.900e+00 1.900e+00 1.900e+00 1.900e+00 1.900e+00 1.900e+00 1.900e+00 1.900e+00 1.900e+00 1.900e+00 1.900e+00 1.900e+00 1.900e+00 1.900e+00 1.900e+00 1.900e+00 1.900e+00 1.900e+00 1.900e+00 1.900e+00 1.900e+00 1.900e+00 1.900e+00 1.900e+00 1.900e+00 1.900e+00 1.900e+00 1.900e+00 1.900e+00 1.900e+00 1.900e+00 1.900e+00 1.900e+00 1.900e+00 1.900e+00 1.900e+00 1.900e+00 1.900e+00 1.900e+00 1.900e+00 1.900e+00 1.900e+00 1.900e+00 1.900e+00 1.900e+00 1.900e+00 1.900e+00 1.900e+00 1.900e+00 1.900e+00 1.900e+00 1.900e+00 1.900e+00 1.900e+00 1.900e+00 1.900e+00 1.900e+00 1.900e+00 1.900e+00 1.900e+00 1.900e+00 1.900e+00 1.900e+00 1.900e+00 1.900e+00 1.900e+00 1.900e+00 1.900e+00 1.900e+00 1.900e+00 1.900e+00 1.900e+00 1.900e+00 1.900e+00 1.900e+00 1.900e+00 1.900e+00 1.900e+00 1.900e+00 1.900e+00 1.900e+00 1.900e+00 1.900e+00 1.900e+00 1.900e+00 1.900e+00 1.900e+00 1.900e+00 1.900e+00 1.900e+00 1.900e+00 1.900e+00 1.900e+00 1.900e+00 1.900e+00 1.900e+00 1.900e+00 1.900e+00 1.900e+00 1.900e+00
           </DataArray>
           <DataArray type="Float32" Name="nitrate/Km" NumberOfComponents="1" format="ascii">
 1.610e-02 1.610e-02 1.610e-02 1.610e-02 1.610e-02 1.610e-02 1.610e-02 1.610e-02 1.610e-02 1.610e-02 1.610e-02 1.610e-02 1.610e-02 1.610e-02 1.610e-02 1.610e-02 1.610e-02 1.610e-02 1.610e-02 1.610e-02 1.610e-02 1.610e-02 1.610e-02 1.610e-02 1.610e-02 1.610e-02 1.610e-02 1.610e-02 1.610e-02 1.610e-02 1.610e-02 1.610e-02 1.610e-02 1.610e-02 1.610e-02 1.610e-02 1.610e-02 1.610e-02 1.610e-02 1.610e-02 1.610e-02 1.610e-02 1.610e-02 1.610e-02 1.610e-02 1.610e-02 1.610e-02 1.610e-02 1.610e-02 1.610e-02 1.610e-02 1.610e-02 1.610e-02 1.610e-02 1.610e-02 1.610e-02 1.610e-02 1.610e-02 1.610e-02 1.610e-02 1.610e-02 1.610e-02 1.610e-02 1.610e-02 1.610e-02 1.610e-02 1.610e-02 1.610e-02 1.610e-02 1.610e-02 1.610e-02 1.610e-02 1.610e-02 1.610e-02 1.610e-02 1.610e-02 1.610e-02 1.610e-02 1.610e-02 1.610e-02 1.610e-02 1.610e-02 1.610e-02 1.610e-02 1.610e-02 1.610e-02 1.610e-02 1.610e-02 1.610e-02 1.610e-02 1.610e-02 1.610e-02 1.610e-02 1.610e-02 1.610e-02 1.610e-02 1.610e-02 1.610e-02 1.610e-02 1.610e-02 1.610e-02 1.610e-02 1.610e-02 1.610e-02 1.610e-02 1.610e-02 1.610e-02 1.610e-02 1.610e-02 1.610e-02 1.610e-02 1.610e-02 1.610e-02 1.610e-02 1.610e-02 1.610e-02 1.610e-02 1.610e-02 1.610e-02 1.610e-02 1.610e-02 1.610e-02 1.610e-02 1.610e-02 1.610e-02 1.610e-02 1.610e-02 1.610e-02 1.610e-02 1.610e-02 1.610e-02 1.610e-02 1.610e-02 1.610e-02 1.610e-02 1.610e-02 1.610e-02 1.610e-02 1.610e-02 1.610e-02 1.610e-02 1.610e-02 1.610e-02 1.610e-02 1.610e-02 1.610e-02 1.610e-02 1.610e-02 1.610e-02 1.610e-02 1.610e-02 1.610e-02 1.610e-02 1.610e-02 1.610e-02 1.610e-02 1.610e-02 1.610e-02 1.610e-02 1.610e-02 1.610e-02 1.610e-02 1.610e-02 1.610e-02 1.610e-02 1.610e-02 1.610e-02 1.610e-02 1.610e-02 1.610e-02 1.610e-02 1.610e-02 1.610e-02 1.610e-02 1.610e-02 1.610e-02 1.610e-02 1.610e-02 1.610e-02 1.610e-02 1.610e-02 1.610e-02
           </DataArray>
           <DataArray type="Float32" Name="nitrate/minimalNutrientConcentration" NumberOfComponents="1" format="ascii">
 6.000e+02 6.000e+02 6.000e+02 6.000e+02 6.000e+02 6.000e+02 6.000e+02 6.000e+02 6.000e+02 6.000e+02 6.000e+02 6.000e+02 6.000e+02 6.000e+02 6.000e+02 6.000e+02 6.000e+02 6.000e+02 6.000e+02 6.000e+02 6.000e+02 6.000e+02 6.000e+02 6.000e+02 6.000e+02 6.000e+02 6.000e+02 6.000e+02 6.000e+02 6.000e+02 6.000e+02 6.000e+02 6.000e+02 6.000e+02 6.000e+02 6.000e+02 6.000e+02 6.000e+02 6.000e+02 6.000e+02 6.000e+02 6.000e+02 6.000e+02 6.000e+02 6.000e+02 6.000e+02 6.000e+02 6.000e+02 6.000e+02 6.000e+02 6.000e+02 6.000e+02 6.000e+02 6.000e+02 6.000e+02 6.000e+02 6.000e+02 6.000e+02 6.000e+02 6.000e+02 6.000e+02 6.000e+02 6.000e+02 6.000e+02 6.000e+02 6.000e+02 6.000e+02 6.000e+02 6.000e+02 6.000e+02 6.000e+02 6.000e+02 6.000e+02 6.000e+02 6.000e+02 6.000e+02 6.000e+02 6.000e+02 6.000e+02 6.000e+02 6.000e+02 6.000e+02 6.000e+02 6.000e+02 6.000e+02 6.000e+02 6.000e+02 6.000e+02 6.000e+02 6.000e+02 6.000e+02 6.000e+02 6.000e+02 6.000e+02 6.000e+02 6.000e+02 6.000e+02 6.000e+02 6.000e+02 6.000e+02 6.000e+02 6.000e+02 6.000e+02 6.000e+02 6.000e+02 6.000e+02 6.000e+02 6.000e+02 6.000e+02 6.000e+02 6.000e+02 6.000e+02 6.000e+02 6.000e+02 6.000e+02 6.000e+02 6.000e+02 6.000e+02 6.000e+02 6.000e+02 6.000e+02 6.000e+02 6.000e+02 6.000e+02 6.000e+02 6.000e+02 6.000e+02 6.000e+02 6.000e+02 6.000e+02 6.000e+02 6.000e+02 6.000e+02 6.000e+02 6.000e+02 6.000e+02 6.000e+02 6.000e+02 6.000e+02 6.000e+02 6.000e+02 6.000e+02 6.000e+02 6.000e+02 6.000e+02 6.000e+02 6.000e+02 6.000e+02 6.000e+02 6.000e+02 6.000e+02 6.000e+02 6.000e+02 6.000e+02 6.000e+02 6.000e+02 6.000e+02 6.000e+02 6.000e+02 6.000e+02 6.000e+02 6.000e+02 6.000e+02 6.000e+02 6.000e+02 6.000e+02 6.000e+02 6.000e+02 6.000e+02 6.000e+02 6.000e+02 6.000e+02 6.000e+02 6.000e+02 6.000e+02 6.000e+02 6.000e+02 6.000e+02 6.000e+02 6.000e+02 6.000e+02 6.000e+02
           </DataArray>
           <DataArray type="Float32" Name="nitrate/nutrientConcentrationAtTheRootSurface" NumberOfComponents="1" format="ascii">
 1.208e+00 1.278e+00 1.577e+00 1.757e+00 2.055e+00 2.224e+00 2.378e+00 2.349e+00 1.208e+00 1.302e+00 1.606e+00 1.761e+00 2.033e+00 2.231e+00 2.330e+00 2.486e+00 1.208e+00 1.312e+00 1.577e+00 1.755e+00 2.015e+00 2.121e+00 2.361e+00 2.431e+00 1.208e+00 1.286e+00 1.600e+00 1.722e+00 2.036e+00 2.184e+00 2.372e+00 2.468e+00 1.138e+00 1.138e+00 1.138e+00 1.138e+00 1.210e+00 1.052e+00 8.359e-01 6.353e-01 5.055e-01 4.182e-01 3.066e-01 0.000e+00 0.000e+00 0.000e+00 1.253e+00 1.211e+00 1.369e+00 1.265e+00 1.425e+00 1.660e+00 1.512e+00 1.710e+00 1.527e+00 1.528e+00 1.827e+00 1.548e+00 1.680e+00 1.576e+00 1.746e+00 1.607e+00 1.758e+00 1.638e+00 1.725e+00 1.666e+00 1.776e+00 1.688e+00 1.743e+00 1.703e+00 1.844e+00 1.763e+00 1.803e+00 1.282e+00 1.203e+00 1.264e+00 1.824e+00 1.861e+00 1.841e+00 1.857e+00 1.864e+00 2.095e+00 1.893e+00 1.960e+00 1.927e+00 2.105e+00 1.960e+00 2.079e+00 1.990e+00 2.095e+00 2.014e+00 2.108e+00 2.031e+00 2.081e+00 2.087e+00 2.147e+00 1.303e+00 1.409e+00 1.607e+00 2.143e+00 2.170e+00 2.157e+00 2.293e+00 2.178e+00 2.293e+00 2.204e+00 2.277e+00 2.234e+00 2.265e+00 2.292e+00 2.334e+00 2.313e+00 2.336e+00 2.369e+00 1.328e+00 1.414e+00 1.588e+00 2.388e+00 2.422e+00 2.436e+00 2.454e+00 2.475e+00 2.496e+00 2.514e+00 2.528e+00 2.546e+00 2.563e+00 1.352e+00 1.359e+00 1.486e+00 2.580e+00 2.601e+00 2.611e+00 2.625e+00 2.641e+00 2.656e+00 2.667e+00 2.676e+00 2.682e+00 2.684e+00 1.373e+00 1.494e+00 2.698e+00 2.703e+00 1.703e+00 1.245e+00 1.391e+00 1.498e+00 1.766e+00 1.403e+00 1.510e+00 1.632e+00 1.446e+00 1.455e+00 1.923e+00 2.005e+00 2.010e+00 2.277e+00 2.381e+00 1.210e+00 1.375e+00 1.580e+00 1.827e+00 2.020e+00 2.245e+00 2.470e+00 2.599e+00 2.681e+00 2.788e+00 2.879e+00 2.897e+00 3.074e+00 3.229e+00 3.341e+00 3.408e+00 3.492e+00 3.569e+00 3.615e+00 3.647e+00 3.671e+00 3.687e+00 3.689e+00
           </DataArray>
           <DataArray type="Float32" Name="nitrate/optimalNutrientConcentration" NumberOfComponents="1" format="ascii">
 1.200e+03 1.200e+03 1.200e+03 1.200e+03 1.200e+03 1.200e+03 1.200e+03 1.200e+03 1.200e+03 1.200e+03 1.200e+03 1.200e+03 1.200e+03 1.200e+03 1.200e+03 1.200e+03 1.200e+03 1.200e+03 1.200e+03 1.200e+03 1.200e+03 1.200e+03 1.200e+03 1.200e+03 1.200e+03 1.200e+03 1.200e+03 1.200e+03 1.200e+03 1.200e+03 1.200e+03 1.200e+03 1.200e+03 1.200e+03 1.200e+03 1.200e+03 1.200e+03 1.200e+03 1.200e+03 1.200e+03 1.200e+03 1.200e+03 1.200e+03 1.200e+03 1.200e+03 1.200e+03 1.200e+03 1.200e+03 1.200e+03 1.200e+03 1.200e+03 1.200e+03 1.200e+03 1.200e+03 1.200e+03 1.200e+03 1.200e+03 1.200e+03 1.200e+03 1.200e+03 1.200e+03 1.200e+03 1.200e+03 1.200e+03 1.200e+03 1.200e+03 1.200e+03 1.200e+03 1.200e+03 1.200e+03 1.200e+03 1.200e+03 1.200e+03 1.200e+03 1.200e+03 1.200e+03 1.200e+03 1.200e+03 1.200e+03 1.200e+03 1.200e+03 1.200e+03 1.200e+03 1.200e+03 1.200e+03 1.200e+03 1.200e+03 1.200e+03 1.200e+03 1.200e+03 1.200e+03 1.200e+03 1.200e+03 1.200e+03 1.200e+03 1.200e+03 1.200e+03 1.200e+03 1.200e+03 1.200e+03 1.200e+03 1.200e+03 1.200e+03 1.200e+03 1.200e+03 1.200e+03 1.200e+03 1.200e+03 1.200e+03 1.200e+03 1.200e+03 1.200e+03 1.200e+03 1.200e+03 1.200e+03 1.200e+03 1.200e+03 1.200e+03 1.200e+03 1.200e+03 1.200e+03 1.200e+03 1.200e+03 1.200e+03 1.200e+03 1.200e+03 1.200e+03 1.200e+03 1.200e+03 1.200e+03 1.200e+03 1.200e+03 1.200e+03 1.200e+03 1.200e+03 1.200e+03 1.200e+03 1.200e+03 1.200e+03 1.200e+03 1.200e+03 1.200e+03 1.200e+03 1.200e+03 1.200e+03 1.200e+03 1.200e+03 1.200e+03 1.200e+03 1.200e+03 1.200e+03 1.200e+03 1.200e+03 1.200e+03 1.200e+03 1.200e+03 1.200e+03 1.200e+03 1.200e+03 1.200e+03 1.200e+03 1.200e+03 1.200e+03 1.200e+03 1.200e+03 1.200e+03 1.200e+03 1.200e+03 1.200e+03 1.200e+03 1.200e+03 1.200e+03 1.200e+03 1.200e+03 1.200e+03 1.200e+03 1.200e+03 1.200e+03 1.200e+03 1.200e+03 1.200e+03 1.200e+03
           </DataArray>
           <DataArray type="Float32" Name="nitrate/rootSegmentMinimalNutrientContent" NumberOfComponents="1" format="ascii">
 1.635e-01 1.811e-01 1.406e-01 1.646e-01 1.230e-01 1.337e-01 1.443e-01 7.615e-02 1.635e-01 1.811e-01 1.406e-01 1.646e-01 1.230e-01 1.337e-01 1.443e-01 7.615e-02 1.635e-01 1.811e-01 1.406e-01 1.646e-01 1.230e-01 1.337e-01 1.443e-01 7.615e-02 1.635e-01 1.811e-01 1.406e-01 1.646e-01 1.230e-01 1.337e-01 1.443e-01 7.615e-02 9.025e-02 9.025e-02 9.025e-02 9.025e-02 6.064e+00 7.604e+00 6.945e+00 4.653e+00 4.616e+00 6.835e+00 6.464e+00 6.546e+00 6.432e+00 1.821e+00 3.569e-02 3.518e-02 8.786e-03 3.650e-02 3.397e-02 2.036e-02 3.576e-02 2.766e-02 3.584e-02 3.414e-02 6.824e-03 3.516e-02 2.911e-02 3.748e-02 2.195e-02 3.306e-02 2.945e-02 3.615e-02 3.348e-02 3.343e-02 2.160e-02 3.657e-02 3.676e-02 3.634e-02 2.522e-02 3.732e-02 2.689e-02 3.411e-02 3.321e-02 5.531e-03 3.450e-02 3.210e-02 3.578e-02 2.226e-02 3.671e-02 1.862e-02 3.456e-02 1.819e-02 3.492e-02 2.450e-02 3.639e-02 2.069e-02 3.479e-02 1.147e-02 3.369e-02 2.083e-02 3.263e-02 2.110e-02 3.621e-02 1.334e-02 3.559e-02 3.592e-02 1.305e-02 3.306e-02 1.268e-02 3.283e-02 1.313e-02 3.510e-02 9.953e-03 3.570e-02 1.055e-02 3.664e-02 3.424e-02 3.268e-02 6.615e-03 3.666e-02 3.543e-02 2.883e-02 3.368e-02 3.557e-02 2.132e-02 3.567e-02 3.250e-02 2.920e-02 2.757e-02 2.722e-02 2.620e-02 2.173e-02 2.418e-02 2.185e-02 1.858e-02 3.557e-02 3.541e-02 9.651e-03 1.844e-02 1.756e-02 1.423e-02 1.382e-02 1.173e-02 1.219e-02 9.755e-03 9.893e-03 8.103e-03 7.161e-03 3.387e-02 3.219e-02 5.770e-03 3.893e-03 2.420e-03 1.200e-03 3.643e-02 3.573e-02 1.428e-02 3.323e-02 3.402e-02 1.360e-02 3.466e-02 3.665e-02 3.518e-02 3.503e-02 1.499e-02 3.316e-02 3.252e-02 3.586e-01 3.469e-01 3.360e-01 3.259e-01 3.165e-01 4.104e-01 2.972e-01 2.901e-01 3.789e-01 2.780e-01 2.745e-01 3.617e-01 2.674e-01 2.649e-01 2.626e-01 2.606e-01 2.588e-01 2.573e-01 2.561e-01 2.551e-01 2.544e-01 2.539e-01 8.457e-02
           </DataArray>
           <DataArray type="Float32" Name="nitrate/rootSegmentNutrientUptake" NumberOfComponents="1" format="ascii">
 0.000e+00 5.631e-01 3.303e-01 2.901e-01 1.570e-01 1.181e-01 7.073e-02 1.499e-02 0.000e+00 5.632e-01 3.304e-01 2.900e-01 1.570e-01 1.181e-01 7.074e-02 1.499e-02 0.000e+00 5.632e-01 3.303e-01 2.900e-01 1.570e-01 1.181e-01 7.072e-02 1.499e-02 0.000e+00 5.632e-01 3.304e-01 2.900e-01 1.570e-01 1.181e-01 7.073e-02 1.499e-02 0.000e+00 0.000e+00 0.000e+00 0.000e+00 0.000e+00 6.300e+00 4.992e+00 3.894e+00 3.139e+00 2.507e+00 1.463e+00 5.794e-02 0.000e+00 0.000e+00 0.000e+00 1.483e-01 7.800e-03 0.000e+00 1.737e-01 3.172e-02 0.000e+00 6.773e-02 0.000e+00 1.139e-01 4.553e-03 0.000e+00 7.128e-02 0.000e+00 4.400e-02 0.000e+00 7.214e-02 0.000e+00 8.199e-02 0.000e+00 4.330e-02 0.000e+00 9.003e-02 0.000e+00 5.057e-02 0.000e+00 5.390e-02 0.000e+00 1.253e-01 3.681e-03 0.000e+00 7.150e-02 0.000e+00 3.966e-02 0.000e+00 2.906e-02 0.000e+00 2.837e-02 0.000e+00 4.371e-02 0.000e+00 3.229e-02 0.000e+00 1.279e-02 0.000e+00 3.252e-02 0.000e+00 3.293e-02 0.000e+00 1.488e-02 0.000e+00 1.597e-01 1.452e-02 0.000e+00 1.414e-02 0.000e+00 1.464e-02 0.000e+00 8.879e-03 0.000e+00 9.411e-03 0.000e+00 0.000e+00 0.000e+00 4.427e-03 0.000e+00 0.000e+00 0.000e+00 0.000e+00 1.819e-01 3.320e-02 0.000e+00 0.000e+00 0.000e+00 0.000e+00 0.000e+00 0.000e+00 0.000e+00 0.000e+00 0.000e+00 0.000e+00 0.000e+00 1.416e-01 8.579e-03 0.000e+00 0.000e+00 0.000e+00 0.000e+00 0.000e+00 0.000e+00 0.000e+00 0.000e+00 0.000e+00 0.000e+00 0.000e+00 9.306e-02 0.000e+00 0.000e+00 0.000e+00 0.000e+00 0.000e+00 1.510e-01 1.590e-02 0.000e+00 1.438e-01 1.513e-02 0.000e+00 1.059e-01 0.000e+00 1.092e-01 1.337e-02 0.000e+00 5.078e-02 0.000e+00 2.612e+00 2.482e+00 2.354e+00 2.227e+00 2.777e+00 1.937e+00 1.816e+00 2.235e+00 1.536e+00 1.418e+00 1.709e+00 1.145e+00 1.029e+00 9.133e-01 7.981e-01 6.833e-01 5.689e-01 4.547e-01 3.408e-01 2.271e-01 1.135e-01 1.261e-02
           </DataArray>
           <DataArray type="Float32" Name="nitrate/rootSegmentOptimalNutrientContent" NumberOfComponents="1" format="ascii">