<?xml version="1.0"?>
<VTKFile type="UnstructuredGrid" version="0.1" byte_order="LittleEndian">
   <UnstructuredGrid>
      <Piece NumberOfPoints="33140" NumberOfCells="2333">
         <Points>
            <DataArray type="Float32" Name="Position" NumberOfComponents="3" format="ascii">
-0.132	-5.024	0.023
-0.127	-5.025	0.031
-0.128	-5.027	0.040
-0.133	-5.028	0.047
-0.142	-5.029	0.050
-0.151	-5.029	0.046
-0.156	-5.028	0.039
-0.156	-5.026	0.030
-0.150	-5.025	0.022
-0.141	-5.024	0.020
-0.096	-5.885	-0.108
-0.091	-5.886	-0.100
-0.091	-5.888	-0.091
-0.097	-5.889	-0.084
-0.106	-5.889	-0.082
-0.115	-5.888	-0.085
-0.120	-5.887	-0.093
-0.119	-5.885	-0.102
-0.113	-5.884	-0.109
-0.104	-5.884	-0.111
-0.206	-6.704	-0.317
-0.201	-6.706	-0.309
-0.201	-6.709	-0.300
-0.206	-6.711	-0.293
-0.215	-6.711	-0.290
-0.224	-6.710	-0.293
-0.229	-6.708	-0.300
-0.229	-6.705	-0.309
-0.224	-6.703	-0.317
-0.215	-6.703	-0.319
-0.176	-7.521	-0.557
-0.170	-7.523	-0.550
-0.170	-7.526	-0.541
-0.175	-7.528	-0.534
-0.184	-7.529	-0.531
-0.193	-7.528	-0.534
-0.198	-7.526	-0.541
-0.199	-7.524	-0.550
-0.193	-7.522	-0.557
-0.185	-7.521	-0.560
-0.185	-7.990	-0.682
-0.179	-7.992	-0.675
-0.179	-7.994	-0.666
-0.185	-7.996	-0.659
-0.194	-7.997	-0.656
-0.202	-7.996	-0.659
-0.208	-7.994	-0.666
-0.208	-7.991	-0.675
-0.202	-7.989	-0.682
-0.194	-7.989	-0.685
-0.287	-5.075	0.085
-0.282	-5.068	0.080
-0.275	-5.066	0.075
-0.268	-5.069	0.071
-0.263	-5.077	0.069
-0.262	-5.086	0.071
-0.267	-5.093	0.075
-0.274	-5.096	0.080
-0.281	-5.092	0.085
-0.286	-5.085	0.086
-0.758	-5.223	-0.646
-0.753	-5.217	-0.650
-0.745	-5.216	-0.654
-0.737	-5.221	-0.657
-0.733	-5.229	-0.657
-0.734	-5.238	-0.655
-0.740	-5.244	-0.651
-0.748	-5.245	-0.646
-0.756	-5.240	-0.643
-0.760	-5.232	-0.643
-1.067	-5.406	-1.445
-1.060	-5.401	-1.449
-1.051	-5.401	-1.452
-1.044	-5.407	-1.453
-1.041	-5.416	-1.453
-1.043	-5.424	-1.451
-1.050	-5.430	-1.447
-1.059	-5.429	-1.444
-1.066	-5.424	-1.443
-1.069	-5.415	-1.443
-1.206	-5.452	-1.879
-1.199	-5.446	-1.882
-1.190	-5.446	-1.885
-1.183	-5.452	-1.887
-1.180	-5.461	-1.887
-1.182	-5.469	-1.885
-1.189	-5.475	-1.882
-1.198	-5.475	-1.879
-1.205	-5.469	-1.878
-1.208	-5.460	-1.878
-1.253	-5.898	0.517
-1.248	-5.891	0.514
-1.241	-5.888	0.509
-1.234	-5.892	0.504
-1.229	-5.899	0.502
-1.228	-5.909	0.503
-1.233	-5.916	0.507
-1.240	-5.918	0.512
-1.248	-5.915	0.516
-1.253	-5.907	0.518
-1.714	-5.996	-0.210
-1.710	-5.989	-0.215
-1.702	-5.988	-0.220
-1.694	-5.991	-0.224
-1.690	-5.999	-0.224
-1.690	-6.008	-0.222
-1.694	-6.015	-0.217
-1.701	-6.016	-0.212
-1.709	-6.013	-0.208
-1.714	-6.005	-0.207
-2.160	-6.322	-0.898
-2.158	-6.316	-0.904
-2.152	-6.313	-0.911
-2.144	-6.316	-0.916
-2.138	-6.323	-0.916
-2.136	-6.331	-0.913
-2.138	-6.338	-0.907
-2.144	-6.340	-0.900
-2.151	-6.337	-0.895
-2.157	-6.330	-0.895
-2.539	-6.647	-1.218
-2.545	-6.640	-1.217
-2.548	-6.632	-1.221
-2.547	-6.626	-1.228
-2.542	-6.625	-1.235
-2.535	-6.628	-1.241
-2.529	-6.635	-1.241
-2.526	-6.643	-1.238
-2.527	-6.648	-1.231
-2.532	-6.650	-1.223
-4.424	-18.789	0.626
-4.425	-18.781	0.631
-4.426	-18.772	0.630
-4.428	-18.765	0.624
-4.428	-18.763	0.615
-4.427	-18.766	0.607
-4.426	-18.774	0.602
-4.424	-18.783	0.602
-4.423	-18.790	0.608
-4.423	-18.792	0.617
-4.738	-18.832	0.604
-4.734	-18.832	0.612
-4.736	-18.832	0.621
-4.742	-18.832	0.628
-4.751	-18.832	0.629
-4.760	-18.832	0.625
-4.764	-18.832	0.617
-4.762	-18.832	0.608
-4.756	-18.832	0.601
-4.747	-18.832	0.600
-4.440	-18.915	0.608
-4.431	-18.914	0.609
-4.423	-18.918	0.612
-4.419	-18.925	0.616
-4.422	-18.934	0.620
-4.429	-18.939	0.622
-4.438	-18.940	0.621
-4.446	-18.937	0.618
-4.449	-18.929	0.614
-4.447	-18.921	0.610
-4.398	-19.059	0.306
-4.389	-19.057	0.307
-4.381	-19.061	0.310
-4.378	-19.069	0.314
-4.380	-19.077	0.318
-4.387	-19.083	0.320
-4.396	-19.084	0.319
-4.404	-19.080	0.316
-4.408	-19.073	0.312
-4.405	-19.064	0.308
-4.433	-19.088	0.614
-4.429	-19.080	0.616
-4.430	-19.071	0.618
-4.436	-19.064	0.617
-4.445	-19.062	0.616
-4.454	-19.066	0.613
-4.458	-19.074	0.611
-4.456	-19.083	0.610
-4.450	-19.090	0.610
-4.441	-19.092	0.612
-4.488	-19.129	0.862
-4.484	-19.121	0.865
-4.485	-19.111	0.866
-4.492	-19.105	0.865
-4.500	-19.103	0.864
-4.509	-19.107	0.861
-4.513	-19.115	0.859
-4.511	-19.124	0.858
-4.505	-19.131	0.858
-4.496	-19.132	0.860
-4.452	-19.215	0.610
-4.444	-19.213	0.613
-4.437	-19.216	0.618
-4.434	-19.224	0.622
-4.436	-19.232	0.625
-4.442	-19.239	0.624
-4.451	-19.241	0.621
-4.458	-19.237	0.616
-4.461	-19.230	0.612
-4.459	-19.221	0.609
-4.342	-19.304	0.377
-4.333	-19.302	0.381
-4.326	-19.306	0.385
-4.323	-19.313	0.390
-4.325	-19.322	0.392
-4.332	-19.329	0.392
-4.340	-19.331	0.388
-4.347	-19.327	0.384
-4.350	-19.320	0.379
-4.348	-19.311	0.377
-4.440	-19.376	0.610
-4.441	-19.368	0.614
-4.446	-19.363	0.620
-4.452	-19.363	0.627
-4.458	-19.368	0.631
-4.461	-19.377	0.632
-4.460	-19.386	0.629
-4.455	-19.391	0.622
-4.449	-19.390	0.616
-4.443	-19.385	0.611
-4.279	-19.421	0.762
-4.280	-19.412	0.765
-4.284	-19.407	0.772
-4.291	-19.407	0.778
-4.296	-19.413	0.783
-4.300	-19.422	0.784
-4.299	-19.430	0.780
-4.294	-19.435	0.774
-4.288	-19.435	0.767
-4.282	-19.429	0.763
-4.457	-19.535	0.638
-4.460	-19.526	0.639
-4.461	-19.518	0.636
-4.458	-19.513	0.628
-4.454	-19.513	0.620
-4.450	-19.518	0.614
-4.447	-19.527	0.612
-4.447	-19.536	0.616
-4.449	-19.541	0.624
-4.453	-19.540	0.632
-4.681	-19.592	0.529
-4.683	-19.583	0.530
-4.684	-19.575	0.527
-4.682	-19.569	0.519
-4.677	-19.570	0.511
-4.673	-19.575	0.505
-4.670	-19.584	0.504
-4.670	-19.592	0.507
-4.672	-19.598	0.515
-4.676	-19.597	0.523
-4.449	-19.674	0.621
-4.451	-19.666	0.626
-4.455	-19.662	0.633
-4.460	-19.663	0.640
-4.465	-19.670	0.645
-4.467	-19.679	0.645
-4.466	-19.687	0.640
-4.462	-19.691	0.633
-4.456	-19.689	0.626
-4.452	-19.683	0.621
-4.295	-19.712	0.732
-4.296	-19.704	0.737
-4.300	-19.700	0.744
-4.306	-19.702	0.751
-4.311	-19.709	0.756
-4.313	-19.718	0.756
-4.312	-19.726	0.751
-4.307	-19.730	0.744
-4.302	-19.728	0.737
-4.297	-19.721	0.732
-4.455	-19.822	0.628
-4.456	-19.815	0.634
-4.460	-19.812	0.642
-4.465	-19.814	0.649
-4.469	-19.821	0.653
-4.471	-19.830	0.652
-4.470	-19.837	0.647
-4.467	-19.841	0.639
-4.462	-19.838	0.632
-4.457	-19.831	0.628
-4.297	-19.869	0.722
-4.297	-19.861	0.727
-4.301	-19.858	0.735
-4.306	-19.861	0.742
-4.311	-19.868	0.746
-4.313	-19.877	0.746
-4.312	-19.884	0.740
-4.308	-19.887	0.732
-4.303	-19.885	0.725
-4.299	-19.878	0.721
-4.464	-19.988	0.653
-4.463	-19.981	0.659
-4.464	-19.971	0.659
-4.467	-19.964	0.655
-4.470	-19.961	0.647
-4.473	-19.964	0.638
-4.474	-19.971	0.633
-4.473	-19.980	0.632
-4.470	-19.988	0.637
-4.467	-19.991	0.645
-4.594	-20.006	0.703
-4.593	-19.999	0.709
-4.594	-19.990	0.709
-4.596	-19.982	0.705
-4.600	-19.979	0.697
-4.603	-19.982	0.688
-4.604	-19.989	0.683
-4.603	-19.999	0.682
-4.600	-20.006	0.687
-4.596	-20.009	0.695
-4.468	-20.138	0.654
-4.468	-20.131	0.660
-4.470	-20.123	0.662
-4.475	-20.115	0.659
-4.479	-20.112	0.652
-4.483	-20.113	0.644
-4.483	-20.120	0.637
-4.480	-20.129	0.635
-4.476	-20.136	0.638
-4.471	-20.140	0.645
-4.584	-20.186	0.707
-4.584	-20.180	0.714
-4.586	-20.171	0.716
-4.591	-20.164	0.713
-4.596	-20.160	0.706
-4.599	-20.162	0.697
-4.599	-20.168	0.691
-4.597	-20.177	0.688
-4.592	-20.185	0.691
-4.587	-20.188	0.698
-1.318	-6.026	0.546
-1.315	-6.017	0.546
-1.318	-6.008	0.548
-1.325	-6.003	0.550
-1.334	-6.003	0.552
-1.342	-6.009	0.552
-1.345	-6.018	0.552
-1.342	-6.026	0.550
-1.335	-6.032	0.548
-1.325	-6.031	0.547
-1.160	-6.119	1.365
-1.157	-6.110	1.366
-1.160	-6.102	1.367
-1.167	-6.097	1.369
-1.176	-6.097	1.371
-1.183	-6.102	1.372
-1.186	-6.111	1.372
-1.183	-6.120	1.370
-1.176	-6.125	1.368
-1.167	-6.125	1.366
-0.952	-6.195	2.231
-0.949	-6.187	2.231
-0.951	-6.178	2.232
-0.958	-6.172	2.233
-0.967	-6.171	2.234
-0.975	-6.176	2.234
-0.979	-6.185	2.234
-0.976	-6.194	2.233
-0.969	-6.200	2.232
-0.960	-6.200	2.231
-0.978	-6.240	2.824
-0.974	-6.231	2.825
-0.976	-6.222	2.826
-0.982	-6.216	2.826
-0.992	-6.214	2.826
-1.000	-6.219	2.825
-1.004	-6.227	2.824
-1.002	-6.236	2.824
-0.996	-6.243	2.823
-0.987	-6.244	2.824
-4.494	-20.268	0.657
-4.489	-20.262	0.652
-4.481	-20.261	0.648
-4.473	-20.266	0.645
-4.469	-20.274	0.644
-4.470	-20.283	0.647
-4.475	-20.289	0.651
-4.483	-20.290	0.656
-4.491	-20.285	0.659
-4.495	-20.277	0.659
-4.552	-20.293	0.549
-4.547	-20.287	0.545
-4.539	-20.286	0.540
-4.531	-20.290	0.537
-4.527	-20.299	0.537
-4.528	-20.308	0.539
-4.533	-20.314	0.544
-4.541	-20.315	0.548
-4.549	-20.310	0.551
-4.553	-20.302	0.551
-4.478	-20.420	0.644
-4.478	-20.413	0.650
-4.481	-20.411	0.659
-4.485	-20.415	0.666
-4.489	-20.422	0.670
-4.491	-20.431	0.668
-4.490	-20.438	0.662
-4.488	-20.440	0.653
-4.484	-20.436	0.645
-4.480	-20.428	0.642
-4.391	-20.447	0.676
-4.391	-20.440	0.683
-4.394	-20.438	0.691
-4.398	-20.442	0.699
-4.401	-20.450	0.703
-4.403	-20.459	0.701
-4.403	-20.465	0.694
-4.400	-20.467	0.686
-4.396	-20.463	0.678
-4.393	-20.456	0.674
-4.475	-20.586	0.660
-4.472	-20.578	0.665
-4.474	-20.570	0.667
-4.480	-20.563	0.667
-4.489	-20.561	0.665
-4.496	-20.565	0.660
-4.500	-20.572	0.656
-4.498	-20.581	0.653
-4.491	-20.587	0.653
-4.483	-20.589	0.656
-4.504	-20.615	0.733
-4.501	-20.607	0.737
-4.503	-20.599	0.740
-4.510	-20.592	0.740
-4.518	-20.590	0.737
-4.526	-20.594	0.733
-4.529	-20.601	0.729
-4.527	-20.610	0.726
-4.521	-20.616	0.726
-4.512	-20.618	0.729
-4.497	-20.714	0.663
-4.489	-20.711	0.662
-4.480	-20.713	0.662
-4.474	-20.719	0.662
-4.473	-20.729	0.664
-4.477	-20.736	0.665
-4.486	-20.740	0.667
-4.495	-20.738	0.667
-4.501	-20.731	0.666
-4.502	-20.722	0.665
-4.502	-20.726	0.596
-4.494	-20.722	0.594
-4.485	-20.724	0.594
-4.479	-20.731	0.595
-4.478	-20.740	0.596
-4.482	-20.748	0.598
-4.491	-20.751	0.599
-4.500	-20.749	0.600
-4.506	-20.743	0.599
-4.507	-20.733	0.597
-4.496	-20.863	0.658
-4.487	-20.861	0.659
-4.479	-20.865	0.662
-4.475	-20.872	0.666
-4.476	-20.881	0.669
-4.483	-20.887	0.670
-4.492	-20.889	0.669
-4.500	-20.886	0.666
-4.504	-20.878	0.663
-4.502	-20.869	0.660
-4.491	-20.874	0.629
-4.481	-20.872	0.630
-4.473	-20.876	0.633
-4.469	-20.884	0.637
-4.471	-20.892	0.640
[...]
         <CellData>
           <DataArray type="Float32" Name="aerenchymaFormation" NumberOfComponents="1" format="ascii">
 3.332e-02 2.500e-03 0.000e+00 0.000e+00 3.238e-02 0.000e+00 0.000e+00 2.394e-02 0.000e+00 0.000e+00 0.000e+00 0.000e+00 0.000e+00 0.000e+00 0.000e+00 0.000e+00 0.000e+00 0.000e+00 0.000e+00 0.000e+00 2.300e-02 0.000e+00 0.000e+00 0.000e+00 0.000e+00 0.000e+00 0.000e+00 0.000e+00 0.000e+00 2.207e-02 0.000e+00 0.000e+00 2.113e-02 0.000e+00 0.000e+00 2.019e-02 0.000e+00 0.000e+00 1.925e-02 0.000e+00 0.000e+00 0.000e+00 1.832e-02 0.000e+00 0.000e+00 1.738e-02 0.000e+00 0.000e+00 1.644e-02 0.000e+00 0.000e+00 1.550e-02 0.000e+00 0.000e+00 3.144e-02 2.500e-03 0.000e+00 0.000e+00 1.457e-02 0.000e+00 0.000e+00 1.363e-02 0.000e+00 0.000e+00 1.269e-02 0.000e+00 0.000e+00 1.175e-02 0.000e+00 0.000e+00 1.082e-02 0.000e+00 0.000e+00 9.879e-03 0.000e+00 0.000e+00 8.941e-03 0.000e+00 8.004e-03 0.000e+00 0.000e+00 7.066e-03 0.000e+00 6.129e-03 0.000e+00 0.000e+00 3.050e-02 0.000e+00 0.000e+00 5.191e-03 0.000e+00 0.000e+00 4.254e-03 0.000e+00 0.000e+00 3.316e-03 0.000e+00 0.000e+00 2.379e-03 0.000e+00 0.000e+00 1.441e-03 0.000e+00 0.000e+00 5.035e-04 0.000e+00 0.000e+00 0.000e+00 0.000e+00 0.000e+00 0.000e+00 0.000e+00 0.000e+00 0.000e+00 0.000e+00 0.000e+00 2.957e-02 0.000e+00 0.000e+00 0.000e+00 0.000e+00 0.000e+00 0.000e+00 0.000e+00 0.000e+00 0.000e+00 0.000e+00 0.000e+00 0.000e+00 0.000e+00 0.000e+00 0.000e+00 0.000e+00 0.000e+00 0.000e+00 0.000e+00 0.000e+00 0.000e+00 0.000e+00 0.000e+00 0.000e+00 0.000e+00 0.000e+00 0.000e+00 0.000e+00 2.863e-02 0.000e+00 0.000e+00 0.000e+00 0.000e+00 0.000e+00 0.000e+00 0.000e+00 0.000e+00 0.000e+00 0.000e+00 0.000e+00 0.000e+00 0.000e+00 0.000e+00 0.000e+00 0.000e+00 0.000e+00 0.000e+00 0.000e+00 0.000e+00 0.000e+00 0.000e+00 2.769e-02 0.000e+00 0.000e+00 0.000e+00 0.000e+00 0.000e+00 0.000e+00 0.000e+00 0.000e+00 0.000e+00 0.000e+00 0.000e+00 0.000e+00 0.000e+00 0.000e+00 0.000e+00 0.000e+00 0.000e+00 0.000e+00 0.000e+00 0.000e+00 0.000e+00 0.000e+00 2.675e-02 0.000e+00 0.000e+00 0.000e+00 0.000e+00 0.000e+00 0.000e+00 0.000e+00 0.000e+00 0.000e+00 0.000e+00 0.000e+00 0.000e+00 0.000e+00 0.000e+00 0.000e+00 0.000e+00 0.000e+00 0.000e+00 0.000e+00 0.000e+00 0.000e+00 0.000e+00 2.582e-02 0.000e+00 0.000e+00 0.000e+00 0.000e+00 0.000e+00 0.000e+00 0.000e+00 0.000e+00 0.000e+00 0.000e+00 0.000e+00 0.000e+00 0.000e+00 0.000e+00 0.000e+00 2.488e-02 0.000e+00 0.000e+00 0.000e+00 0.000e+00 0.000e+00 0.000e+00 0.000e+00 0.000e+00 0.000e+00 0.000e+00 0.000e+00 0.000e+00 7.833e-02 6.800e-02 6.300e-02 6.000e-02 5.700e-02 5.500e-02 5.300e-02 5.100e-02 4.750e-02 4.250e-02 3.750e-02 3.250e-02 2.750e-02 2.250e-02 1.750e-02 1.250e-02 7.500e-03 2.500e-03 0.000e+00 0.000e+00 0.000e+00 0.000e+00 0.000e+00 0.000e+00 0.000e+00 0.000e+00 0.000e+00 0.000e+00 0.000e+00 0.000e+00 0.000e+00 0.000e+00 0.000e+00 3.332e-02 0.000e+00 0.000e+00 0.000e+00 3.238e-02 5.000e-03 0.000e+00 0.000e+00 2.394e-02 0.000e+00 0.000e+00 0.000e+00 0.000e+00 0.000e+00 0.000e+00 0.000e+00 0.000e+00 0.000e+00 0.000e+00 0.000e+00 0.000e+00 0.000e+00 2.300e-02 0.000e+00 0.000e+00 0.000e+00 0.000e+00 0.000e+00 0.000e+00 0.000e+00 0.000e+00 2.207e-02 0.000e+00 0.000e+00 0.000e+00 2.113e-02 0.000e+00 0.000e+00 2.019e-02 0.000e+00 0.000e+00 1.925e-02 0.000e+00 0.000e+00 1.832e-02 0.000e+00 0.000e+00 0.000e+00 1.738e-02 0.000e+00 0.000e+00 1.644e-02 0.000e+00 0.000e+00 1.550e-02 0.000e+00 0.000e+00 3.144e-02 2.500e-03 0.000e+00 0.000e+00 1.457e-02 0.000e+00 0.000e+00 1.363e-02 0.000e+00 0.000e+00 1.269e-02 0.000e+00 0.000e+00 1.175e-02 0.000e+00 0.000e+00 1.082e-02 0.000e+00 9.879e-03 0.000e+00 0.000e+00 8.941e-03 0.000e+00 0.000e+00 8.004e-03 0.000e+00 0.000e+00 7.066e-03 0.000e+00 6.129e-03 0.000e+00 0.000e+00 3.050e-02 0.000e+00 0.000e+00 5.191e-03 0.000e+00 0.000e+00 4.254e-03 0.000e+00 0.000e+00 3.316e-03 0.000e+00 0.000e+00 2.379e-03 0.000e+00 0.000e+00 1.441e-03 0.000e+00 0.000e+00 5.035e-04 0.000e+00 0.000e+00 0.000e+00 0.000e+00 0.000e+00 0.000e+00 0.000e+00 0.000e+00 0.000e+00 0.000e+00 0.000e+00 0.000e+00 2.957e-02 0.000e+00 0.000e+00 0.000e+00 0.000e+00 0.000e+00 0.000e+00 0.000e+00 0.000e+00 0.000e+00 0.000e+00 0.000e+00 0.000e+00 0.000e+00 0.000e+00 0.000e+00 0.000e+00 0.000e+00 0.000e+00 0.000e+00 0.000e+00 0.000e+00 0.000e+00 0.000e+00 0.000e+00 0.000e+00 0.000e+00 2.863e-02 0.000e+00 0.000e+00 0.000e+00 0.000e+00 0.000e+00 0.000e+00 0.000e+00 0.000e+00 0.000e+00 0.000e+00 0.000e+00 0.000e+00 0.000e+00 0.000e+00 0.000e+00 0.000e+00 0.000e+00 0.000e+00 0.000e+00 0.000e+00 0.000e+00 0.000e+00 2.769e-02 0.000e+00 0.000e+00 0.000e+00 0.000e+00 0.000e+00 0.000e+00 0.000e+00 0.000e+00 0.000e+00 0.000e+00 0.000e+00 0.000e+00 0.000e+00 0.000e+00 0.000e+00 0.000e+00 0.000e+00 0.000e+00 0.000e+00 0.000e+00 0.000e+00 0.000e+00 0.000e+00 2.675e-02 0.000e+00 0.000e+00 0.000e+00 0.000e+00 0.000e+00 0.000e+00 0.000e+00 0.000e+00 0.000e+00 0.000e+00 0.000e+00 0.000e+00 0.000e+00 0.000e+00 0.000e+00 0.000e+00 0.000e+00 0.000e+00 2.582e-02 0.000e+00 0.000e+00 0.000e+00 0.000e+00 0.000e+00 0.000e+00 0.000e+00 0.000e+00 0.000e+00 0.000e+00 0.000e+00 0.000e+00 0.000e+00 0.000e+00 2.488e-02 0.000e+00 0.000e+00 0.000e+00 0.000e+00 0.000e+00 0.000e+00 0.000e+00 0.000e+00 0.000e+00 0.000e+00 0.000e+00 0.000e+00 7.833e-02 6.800e-02 6.300e-02 6.000e-02 5.700e-02 5.500e-02 5.300e-02 5.100e-02 4.750e-02 4.250e-02 3.750e-02 3.250e-02 2.750e-02 2.250e-02 1.750e-02 1.250e-02 7.500e-03 2.500e-03 0.000e+00 0.000e+00 0.000e+00 0.000e+00 0.000e+00 0.000e+00 0.000e+00 0.000e+00 0.000e+00 0.000e+00 0.000e+00 0.000e+00 0.000e+00 0.000e+00 0.000e+00 3.332e-02 0.000e+00 0.000e+00 0.000e+00 3.238e-02 2.500e-03 0.000e+00 0.000e+00 2.394e-02 0.000e+00 0.000e+00 0.000e+00 0.000e+00 0.000e+00 0.000e+00 0.000e+00 0.000e+00 0.000e+00 0.000e+00 0.000e+00 0.000e+00 0.000e+00 2.300e-02 0.000e+00 0.000e+00 0.000e+00 0.000e+00 0.000e+00 0.000e+00 0.000e+00 0.000e+00 2.207e-02 0.000e+00 0.000e+00 2.113e-02 0.000e+00 0.000e+00 2.019e-02 0.000e+00 0.000e+00 1.925e-02 0.000e+00 0.000e+00 1.832e-02 0.000e+00 0.000e+00 1.738e-02 0.000e+00 0.000e+00 1.644e-02 0.000e+00 0.000e+00 1.550e-02 0.000e+00 0.000e+00 3.144e-02 0.000e+00 0.000e+00 0.000e+00 1.457e-02 0.000e+00 0.000e+00 1.363e-02 0.000e+00 0.000e+00 1.269e-02 0.000e+00 0.000e+00 1.175e-02 0.000e+00 1.082e-02 0.000e+00 0.000e+00 9.879e-03 0.000e+00 0.000e+00 8.941e-03 0.000e+00 0.000e+00 8.004e-03 0.000e+00 0.000e+00 7.066e-03 0.000e+00 6.129e-03 0.000e+00 0.000e+00 3.050e-02 0.000e+00 0.000e+00 5.191e-03 0.000e+00 0.000e+00 4.254e-03 0.000e+00 0.000e+00 3.316e-03 0.000e+00 0.000e+00 2.379e-03 0.000e+00 0.000e+00 1.441e-03 0.000e+00 5.035e-04 0.000e+00 0.000e+00 0.000e+00 0.000e+00 0.000e+00 0.000e+00 0.000e+00 0.000e+00 0.000e+00 0.000e+00 0.000e+00 0.000e+00 2.957e-02 0.000e+00 0.000e+00 0.000e+00 0.000e+00 0.000e+00 0.000e+00 0.000e+00 0.000e+00 0.000e+00 0.000e+00 0.000e+00 0.000e+00 0.000e+00 0.000e+00 0.000e+00 0.000e+00 0.000e+00 0.000e+00 0.000e+00 0.000e+00 0.000e+00 0.000e+00 0.000e+00 2.863e-02 0.000e+00 0.000e+00 0.000e+00 0.000e+00 0.000e+00 0.000e+00 0.000e+00 0.000e+00 0.000e+00 0.000e+00 0.000e+00 0.000e+00 0.000e+00 0.000e+00 0.000e+00 0.000e+00 0.000e+00 0.000e+00 0.000e+00 0.000e+00 0.000e+00 0.000e+00 2.769e-02 0.000e+00 0.000e+00 0.000e+00 0.000e+00 0.000e+00 0.000e+00 0.000e+00 0.000e+00 0.000e+00 0.000e+00 0.000e+00 0.000e+00 0.000e+00 0.000e+00 0.000e+00 0.000e+00 0.000e+00 0.000e+00 0.000e+00 0.000e+00 2.675e-02 0.000e+00 0.000e+00 0.000e+00 0.000e+00 0.000e+00 0.000e+00 0.000e+00 0.000e+00 0.000e+00 0.000e+00 0.000e+00 0.000e+00 0.000e+00 0.000e+00 0.000e+00 0.000e+00 0.000e+00 2.582e-02 0.000e+00 0.000e+00 0.000e+00 0.000e+00 0.000e+00 0.000e+00 0.000e+00 0.000e+00 0.000e+00 0.000e+00 0.000e+00 0.000e+00 2.488e-02 0.000e+00 0.000e+00 0.000e+00 0.000e+00 0.000e+00 0.000e+00 0.000e+00 0.000e+00 0.000e+00 0.000e+00 0.000e+00 0.000e+00 7.833e-02 6.800e-02 6.300e-02 6.000e-02 5.700e-02 5.500e-02 5.300e-02 5.100e-02 4.750e-02 4.250e-02 3.750e-02 3.250e-02 2.750e-02 2.250e-02 1.750e-02 1.250e-02 7.500e-03 2.500e-03 0.000e+00 0.000e+00 0.000e+00 0.000e+00 0.000e+00 0.000e+00 0.000e+00 0.000e+00 0.000e+00 0.000e+00 0.000e+00 0.000e+00 0.000e+00 0.000e+00 0.000e+00 3.332e-02 0.000e+00 0.000e+00 3.238e-02 2.500e-03 0.000e+00 0.000e+00 2.394e-02 0.000e+00 0.000e+00 0.000e+00 0.000e+00 0.000e+00 0.000e+00 0.000e+00 0.000e+00 0.000e+00 0.000e+00 0.000e+00 0.000e+00 2.300e-02 0.000e+00 0.000e+00 0.000e+00 0.000e+00 0.000e+00 0.000e+00 0.000e+00 0.000e+00 2.207e-02 0.000e+00 0.000e+00 2.113e-02 0.000e+00 0.000e+00 2.019e-02 0.000e+00 0.000e+00 1.925e-02 0.000e+00 0.000e+00 1.832e-02 0.000e+00 0.000e+00 1.738e-02 0.000e+00 0.000e+00 1.644e-02 0.000e+00 1.550e-02 0.000e+00 0.000e+00 3.144e-02 0.000e+00 0.000e+00 1.457e-02 0.000e+00 0.000e+00 1.363e-02 0.000e+00 0.000e+00 1.269e-02 0.000e+00 0.000e+00 1.175e-02 0.000e+00 0.000e+00 1.082e-02 0.000e+00 0.000e+00 9.879e-03 0.000e+00 0.000e+00 8.941e-03 0.000e+00 0.000e+00 8.004e-03 0.000e+00 7.066e-03 0.000e+00 0.000e+00 6.129e-03 0.000e+00 0.000e+00 3.050e-02 0.000e+00 0.000e+00 0.000e+00 5.191e-03 0.000e+00 0.000e+00 4.254e-03 0.000e+00 0.000e+00 3.316e-03 0.000e+00 0.000e+00 2.379e-03 0.000e+00 0.000e+00 1.441e-03 0.000e+00 5.035e-04 0.000e+00 0.000e+00 0.000e+00 0.000e+00 0.000e+00 0.000e+00 0.000e+00 0.000e+00 0.000e+00 0.000e+00 0.000e+00 2.957e-02 2.500e-03 0.000e+00 0.000e+00 0.000e+00 0.000e+00 0.000e+00 0.000e+00 0.000e+00 0.000e+00 0.000e+00 0.000e+00 0.000e+00 0.000e+00 0.000e+00 0.000e+00 0.000e+00 0.000e+00 0.000e+00 0.000e+00 0.000e+00 0.000e+00 0.000e+00 0.000e+00 0.000e+00 0.000e+00 0.000e+00 2.863e-02 0.000e+00 0.000e+00 0.000e+00 0.000e+00 0.000e+00 0.000e+00 0.000e+00 0.000e+00 0.000e+00 0.000e+00 0.000e+00 0.000e+00 0.000e+00 0.000e+00 0.000e+00 0.000e+00 0.000e+00 0.000e+00 0.000e+00 0.000e+00 0.000e+00 0.000e+00 0.000e+00 2.769e-02 0.000e+00 0.000e+00 0.000e+00 0.000e+00 0.000e+00 0.000e+00 0.000e+00 0.000e+00 0.000e+00 0.000e+00 0.000e+00 0.000e+00 0.000e+00 0.000e+00 0.000e+00 0.000e+00 0.000e+00 0.000e+00 0.000e+00 0.000e+00 0.000e+00 0.000e+00 2.675e-02 0.000e+00 0.000e+00 0.000e+00 0.000e+00 0.000e+00 0.000e+00 0.000e+00 0.000e+00 0.000e+00 0.000e+00 0.000e+00 0.000e+00 0.000e+00 0.000e+00 0.000e+00 0.000e+00 0.000e+00 0.000e+00 0.000e+00 2.582e-02 0.000e+00 0.000e+00 0.000e+00 0.000e+00 0.000e+00 0.000e+00 0.000e+00 0.000e+00 0.000e+00 0.000e+00 0.000e+00 0.000e+00 2.488e-02 0.000e+00 0.000e+00 0.000e+00 0.000e+00 0.000e+00 0.000e+00 0.000e+00 0.000e+00 0.000e+00 0.000e+00 0.000e+00 0.000e+00 7.833e-02 6.800e-02 6.300e-02 6.000e-02 5.700e-02 5.500e-02 5.300e-02 5.100e-02 4.750e-02 4.250e-02 3.750e-02 3.250e-02 2.750e-02 2.250e-02 1.750e-02 1.250e-02 7.500e-03 2.500e-03 0.000e+00 0.000e+00 0.000e+00 0.000e+00 0.000e+00 0.000e+00 0.000e+00 0.000e+00 0.000e+00 0.000e+00 0.000e+00 0.000e+00 0.000e+00 0.000e+00 0.000e+00 0.000e+00 0.000e+00 0.000e+00 0.000e+00 0.000e+00 0.000e+00 0.000e+00 0.000e+00 0.000e+00 0.000e+00 0.000e+00 0.000e+00 0.000e+00 0.000e+00 0.000e+00 0.000e+00 0.000e+00 0.000e+00 0.000e+00 0.000e+00 0.000e+00 0.000e+00 0.000e+00 0.000e+00 0.000e+00 0.000e+00 0.000e+00 0.000e+00 0.000e+00 0.000e+00 0.000e+00 0.000e+00 0.000e+00 0.000e+00 0.000e+00 0.000e+00 0.000e+00 0.000e+00 0.000e+00 0.000e+00 0.000e+00 0.000e+00 0.000e+00 0.000e+00 0.000e+00 0.000e+00 0.000e+00 0.000e+00 0.000e+00 0.000e+00 0.000e+00 0.000e+00 0.000e+00 0.000e+00 5.750e-02 4.250e-02 3.000e-02 2.250e-02 1.500e-02 1.000e-02 5.000e-03 0.000e+00 0.000e+00 0.000e+00 0.000e+00 0.000e+00 0.000e+00 0.000e+00 0.000e+00 0.000e+00 0.000e+00 0.000e+00 0.000e+00 0.000e+00 0.000e+00 0.000e+00 0.000e+00 0.000e+00 0.000e+00 0.000e+00 0.000e+00 0.000e+00 0.000e+00 0.000e+00 0.000e+00 0.000e+00 0.000e+00 0.000e+00 0.000e+00 0.000e+00 0.000e+00 0.000e+00 0.000e+00 0.000e+00 0.000e+00 0.000e+00 0.000e+00 0.000e+00 0.000e+00 0.000e+00 0.000e+00 0.000e+00 0.000e+00 0.000e+00 0.000e+00 0.000e+00 0.000e+00 0.000e+00 0.000e+00 0.000e+00 0.000e+00 0.000e+00 0.000e+00 0.000e+00 0.000e+00 0.000e+00 0.000e+00 0.000e+00 0.000e+00 0.000e+00 0.000e+00 0.000e+00 0.000e+00 0.000e+00 0.000e+00 0.000e+00 0.000e+00 5.750e-02 4.250e-02 3.000e-02 2.250e-02 1.500e-02 1.000e-02 5.000e-03 0.000e+00 0.000e+00 0.000e+00 0.000e+00 0.000e+00 0.000e+00 0.000e+00 0.000e+00 0.000e+00 0.000e+00 0.000e+00 0.000e+00 0.000e+00 0.000e+00 0.000e+00 0.000e+00 0.000e+00 0.000e+00 0.000e+00 0.000e+00 0.000e+00 0.000e+00 0.000e+00 0.000e+00 0.000e+00 0.000e+00 0.000e+00 0.000e+00 0.000e+00 0.000e+00 0.000e+00 0.000e+00 0.000e+00 0.000e+00 0.000e+00 0.000e+00 0.000e+00 0.000e+00 0.000e+00 0.000e+00 0.000e+00 0.000e+00 0.000e+00 0.000e+00 0.000e+00 0.000e+00 0.000e+00 0.000e+00 0.000e+00 0.000e+00 0.000e+00 0.000e+00 0.000e+00 0.000e+00 0.000e+00 0.000e+00 0.000e+00 0.000e+00 0.000e+00 0.000e+00 0.000e+00 0.000e+00 0.000e+00 0.000e+00 0.000e+00 0.000e+00 0.000e+00 0.000e+00 0.000e+00 0.000e+00 0.000e+00 5.750e-02 4.250e-02 3.000e-02 2.250e-02 1.500e-02 1.000e-02 5.000e-03 0.000e+00 0.000e+00 0.000e+00 0.000e+00 0.000e+00 0.000e+00 0.000e+00 0.000e+00 0.000e+00 0.000e+00 0.000e+00 0.000e+00 0.000e+00 0.000e+00 0.000e+00 0.000e+00 0.000e+00 0.000e+00 0.000e+00 0.000e+00 0.000e+00 0.000e+00 0.000e+00 0.000e+00 0.000e+00 0.000e+00 0.000e+00 0.000e+00 0.000e+00 0.000e+00 0.000e+00 0.000e+00 0.000e+00 0.000e+00 0.000e+00 0.000e+00 0.000e+00 0.000e+00 0.000e+00 0.000e+00 0.000e+00 0.000e+00 0.000e+00 0.000e+00 0.000e+00 0.000e+00 0.000e+00 0.000e+00 0.000e+00 0.000e+00 0.000e+00 0.000e+00 0.000e+00 0.000e+00 0.000e+00 0.000e+00 0.000e+00 0.000e+00 0.000e+00 0.000e+00 0.000e+00 0.000e+00 0.000e+00 0.000e+00 0.000e+00 0.000e+00 0.000e+00 5.750e-02 4.250e-02 3.000e-02 2.250e-02 1.500e-02 1.000e-02 5.000e-03 0.000e+00 0.000e+00 0.000e+00 0.000e+00 0.000e+00 0.000e+00 0.000e+00 0.000e+00 0.000e+00 0.000e+00 0.000e+00 0.000e+00 0.000e+00 0.000e+00 0.000e+00 0.000e+00 0.000e+00 0.000e+00 0.000e+00 0.000e+00 0.000e+00 0.000e+00 0.000e+00 0.000e+00 0.000e+00 0.000e+00 0.000e+00 0.000e+00 0.000e+00 0.000e+00 0.000e+00 0.000e+00 0.000e+00 0.000e+00 0.000e+00 0.000e+00 0.000e+00 0.000e+00 0.000e+00 0.000e+00 0.000e+00 0.000e+00 0.000e+00 0.000e+00 0.000e+00 0.000e+00 0.000e+00 0.000e+00 0.000e+00 0.000e+00 0.000e+00 0.000e+00 0.000e+00 0.000e+00 0.000e+00 7.715e-02 6.500e-02 5.300e-02 2.750e-02 0.000e+00 0.000e+00 0.000e+00 0.000e+00 0.000e+00 0.000e+00 0.000e+00 7.672e-02 6.600e-02 5.600e-02 4.000e-02 1.500e-02 0.000e+00 0.000e+00 0.000e+00 0.000e+00 7.291e-02 6.000e-02 4.500e-02 1.500e-02 0.000e+00 0.000e+00 1.181e-02 0.000e+00 0.000e+00 0.000e+00 1.074e-02 0.000e+00 0.000e+00 9.684e-03 0.000e+00 0.000e+00 8.623e-03 0.000e+00 0.000e+00 0.000e+00 7.563e-03 0.000e+00 0.000e+00 0.000e+00 6.502e-03 0.000e+00 0.000e+00 0.000e+00 5.441e-03 0.000e+00 0.000e+00 4.381e-03 0.000e+00 0.000e+00 3.320e-03 0.000e+00 0.000e+00 2.259e-03 0.000e+00 0.000e+00 0.000e+00 0.000e+00 0.000e+00 0.000e+00 7.248e-02 6.200e-02 5.200e-02 3.000e-02 5.000e-03 0.000e+00 0.000e+00 1.199e-03 0.000e+00 0.000e+00 1.379e-04 0.000e+00 0.000e+00 0.000e+00 0.000e+00 0.000e+00 0.000e+00 0.000e+00 0.000e+00 0.000e+00 0.000e+00 0.000e+00 0.000e+00 0.000e+00 0.000e+00 0.000e+00 0.000e+00 0.000e+00 0.000e+00 0.000e+00 0.000e+00 0.000e+00 0.000e+00 0.000e+00 0.000e+00 0.000e+00 0.000e+00 0.000e+00 0.000e+00 7.206e-02 6.000e-02 4.500e-02 1.500e-02 0.000e+00 0.000e+00 0.000e+00 0.000e+00 0.000e+00 0.000e+00 0.000e+00 0.000e+00 0.000e+00 0.000e+00 0.000e+00 0.000e+00 0.000e+00 0.000e+00 0.000e+00 0.000e+00 0.000e+00 0.000e+00 0.000e+00 0.000e+00 0.000e+00 0.000e+00 0.000e+00 0.000e+00 0.000e+00 0.000e+00 0.000e+00 0.000e+00 0.000e+00 0.000e+00 7.163e-02 5.800e-02 3.750e-02 5.000e-03 0.000e+00 0.000e+00 0.000e+00 0.000e+00 0.000e+00 0.000e+00 0.000e+00 0.000e+00 0.000e+00 0.000e+00 0.000e+00 0.000e+00 0.000e+00 0.000e+00 0.000e+00 0.000e+00 0.000e+00 0.000e+00 0.000e+00 0.000e+00 0.000e+00 0.000e+00 0.000e+00 0.000e+00 7.121e-02 6.000e-02 4.500e-02 1.500e-02 0.000e+00 0.000e+00 0.000e+00 0.000e+00 0.000e+00 0.000e+00 0.000e+00 0.000e+00 0.000e+00 0.000e+00 0.000e+00 0.000e+00 0.000e+00 0.000e+00 0.000e+00 0.000e+00 0.000e+00 0.000e+00 0.000e+00 0.000e+00 0.000e+00 0.000e+00 0.000e+00 0.000e+00 7.078e-02 6.000e-02 5.000e-02 2.500e-02 0.000e+00 0.000e+00 0.000e+00 0.000e+00 0.000e+00 0.000e+00 0.000e+00 0.000e+00 0.000e+00 0.000e+00 0.000e+00 0.000e+00 0.000e+00 0.000e+00 0.000e+00 0.000e+00 0.000e+00 7.036e-02 5.800e-02 3.750e-02 5.000e-03 0.000e+00 0.000e+00 0.000e+00 0.000e+00 0.000e+00 0.000e+00 0.000e+00 0.000e+00 0.000e+00 0.000e+00 0.000e+00 0.000e+00 0.000e+00 0.000e+00 0.000e+00 0.000e+00 6.994e-02 6.000e-02 5.000e-02 2.500e-02 0.000e+00 0.000e+00 0.000e+00 0.000e+00 0.000e+00 0.000e+00 0.000e+00 0.000e+00 0.000e+00 0.000e+00 0.000e+00 0.000e+00 0.000e+00 0.000e+00 0.000e+00 6.951e-02 5.800e-02 4.250e-02 1.500e-02 0.000e+00 0.000e+00 0.000e+00 0.000e+00 0.000e+00 0.000e+00 0.000e+00 0.000e+00 6.909e-02 5.800e-02 4.500e-02 2.000e-02 0.000e+00 0.000e+00 0.000e+00 0.000e+00 0.000e+00 7.630e-02 6.400e-02 5.200e-02 2.500e-02 0.000e+00 0.000e+00 0.000e+00 0.000e+00 0.000e+00 0.000e+00 6.866e-02 5.900e-02 4.750e-02 2.250e-02 0.000e+00 0.000e+00 0.000e+00 0.000e+00 0.000e+00 6.824e-02 5.700e-02 4.000e-02 1.250e-02 0.000e+00 0.000e+00 0.000e+00 0.000e+00 0.000e+00 6.782e-02 5.600e-02 3.500e-02 5.000e-03 0.000e+00 0.000e+00 0.000e+00 0.000e+00 6.739e-02 5.600e-02 3.500e-02 5.000e-03 0.000e+00 0.000e+00 0.000e+00 0.000e+00 0.000e+00 6.697e-02 5.700e-02 4.250e-02 1.750e-02 0.000e+00 0.000e+00 0.000e+00 0.000e+00 0.000e+00 0.000e+00 6.654e-02 5.600e-02 4.000e-02 1.500e-02 0.000e+00 0.000e+00 0.000e+00 0.000e+00 6.612e-02 5.400e-02 3.000e-02 0.000e+00 0.000e+00 0.000e+00 0.000e+00 0.000e+00 0.000e+00 6.569e-02 5.600e-02 4.000e-02 1.500e-02 0.000e+00 0.000e+00 0.000e+00 0.000e+00 0.000e+00 0.000e+00 6.527e-02 5.600e-02 4.000e-02 1.500e-02 0.000e+00 0.000e+00 0.000e+00 0.000e+00 0.000e+00 6.485e-02 5.400e-02 3.500e-02 1.000e-02 0.000e+00 0.000e+00 0.000e+00 0.000e+00 0.000e+00 0.000e+00 7.588e-02 6.500e-02 5.400e-02 3.500e-02 1.000e-02 0.000e+00 0.000e+00 0.000e+00 0.000e+00 6.442e-02 5.400e-02 3.250e-02 5.000e-03 0.000e+00 0.000e+00 0.000e+00 0.000e+00 6.400e-02 5.400e-02 3.500e-02 1.000e-02 0.000e+00 0.000e+00 0.000e+00 0.000e+00 0.000e+00 6.357e-02 5.300e-02 3.000e-02 5.000e-03 0.000e+00 0.000e+00 0.000e+00 0.000e+00 0.000e+00 0.000e+00 6.315e-02 5.300e-02 3.250e-02 7.500e-03 0.000e+00 0.000e+00 0.000e+00 0.000e+00 6.272e-02 5.000e-02 2.000e-02 0.000e+00 0.000e+00 0.000e+00 6.230e-02 5.000e-02 2.000e-02 0.000e+00 0.000e+00 0.000e+00 0.000e+00 0.000e+00 6.188e-02 5.200e-02 3.000e-02 5.000e-03 0.000e+00 0.000e+00 0.000e+00 0.000e+00 6.145e-02 5.000e-02 2.250e-02 0.000e+00 0.000e+00 0.000e+00 0.000e+00 6.103e-02 5.000e-02 2.250e-02 0.000e+00 0.000e+00 0.000e+00 6.060e-02 4.500e-02 1.250e-02 0.000e+00 0.000e+00 0.000e+00 0.000e+00 0.000e+00 0.000e+00 7.545e-02 6.600e-02 5.600e-02 4.000e-02 1.500e-02 0.000e+00 0.000e+00 0.000e+00 0.000e+00 0.000e+00 6.018e-02 5.000e-02 2.500e-02 0.000e+00 0.000e+00 0.000e+00 0.000e+00 5.975e-02 4.500e-02 2.000e-02 0.000e+00 0.000e+00 0.000e+00 0.000e+00 5.933e-02 4.500e-02 1.750e-02 0.000e+00 0.000e+00 0.000e+00 0.000e+00 5.891e-02 4.500e-02 1.500e-02 0.000e+00 0.000e+00 0.000e+00 5.848e-02 4.500e-02 1.750e-02 0.000e+00 0.000e+00 0.000e+00 0.000e+00 5.806e-02 4.500e-02 1.750e-02 0.000e+00 0.000e+00 0.000e+00 5.763e-02 4.000e-02 1.000e-02 0.000e+00 0.000e+00 0.000e+00 5.721e-02 4.500e-02 2.000e-02 0.000e+00 0.000e+00 0.000e+00 0.000e+00 5.678e-02 4.000e-02 1.250e-02 0.000e+00 0.000e+00 0.000e+00 5.636e-02 3.500e-02 5.000e-03 0.000e+00 0.000e+00 0.000e+00 0.000e+00 0.000e+00 7.503e-02 6.400e-02 5.300e-02 3.000e-02 2.500e-03 0.000e+00 0.000e+00 5.594e-02 3.500e-02 5.000e-03 0.000e+00 0.000e+00 5.551e-02 3.500e-02 7.500e-03 0.000e+00 0.000e+00 5.509e-02 3.000e-02 0.000e+00 0.000e+00 0.000e+00 5.466e-02 3.250e-02 2.500e-03 0.000e+00 0.000e+00 5.424e