<?xml version="1.0"?>
<VTKFile type="UnstructuredGrid" version="0.1" byte_order="LittleEndian">
   <UnstructuredGrid>
      <Piece NumberOfPoints="13870" NumberOfCells="973">
         <Points>
            <DataArray type="Float32" Name="Position" NumberOfComponents="3" format="ascii">
-0.132	-5.024	0.023
-0.127	-5.025	0.031
-0.128	-5.027	0.040
-0.133	-5.028	0.047
-0.142	-5.029	0.050
-0.151	-5.029	0.046
-0.156	-5.028	0.039
-0.156	-5.026	0.030
-0.150	-5.025	0.022
-0.141	-5.024	0.020
-0.096	-5.885	-0.108
-0.091	-5.886	-0.100
-0.091	-5.888	-0.091
-0.097	-5.889	-0.084
-0.106	-5.889	-0.082
-0.115	-5.888	-0.085
-0.120	-5.887	-0.093
-0.119	-5.885	-0.102
-0.113	-5.884	-0.109
-0.104	-5.884	-0.111
-0.207	-6.631	-0.287
-0.207	-6.627	-0.279
-0.207	-6.628	-0.270
-0.207	-6.635	-0.263
-0.207	-6.644	-0.262
-0.207	-6.652	-0.266
-0.207	-6.657	-0.274
-0.207	-6.655	-0.284
-0.207	-6.649	-0.290
-0.207	-6.639	-0.292
-0.287	-5.075	0.085
-0.282	-5.068	0.080
-0.275	-5.066	0.075
-0.268	-5.069	0.071
-0.263	-5.077	0.069
-0.262	-5.086	0.071
-0.267	-5.093	0.075
-0.274	-5.096	0.080
-0.281	-5.092	0.085
-0.286	-5.085	0.086
-0.759	-5.225	-0.644
-0.754	-5.218	-0.648
-0.747	-5.216	-0.653
-0.739	-5.219	-0.657
-0.734	-5.227	-0.658
-0.734	-5.236	-0.657
-0.739	-5.243	-0.653
-0.746	-5.245	-0.648
-0.754	-5.242	-0.644
-0.759	-5.234	-0.642
-0.915	-5.267	-0.910
-0.910	-5.260	-0.914
-0.902	-5.259	-0.919
-0.895	-5.262	-0.923
-0.890	-5.270	-0.924
-0.890	-5.279	-0.923
-0.895	-5.286	-0.919
-0.903	-5.288	-0.914
-0.910	-5.284	-0.910
-0.915	-5.276	-0.909
-1.253	-5.898	0.517
-1.248	-5.891	0.514
-1.241	-5.888	0.509
-1.234	-5.892	0.504
-1.229	-5.899	0.502
-1.228	-5.909	0.503
-1.233	-5.916	0.507
-1.240	-5.918	0.512
-1.248	-5.915	0.516
-1.253	-5.907	0.518
-1.714	-5.997	-0.209
-1.710	-5.990	-0.213
-1.703	-5.987	-0.218
-1.695	-5.990	-0.223
-1.690	-5.998	-0.224
-1.690	-6.007	-0.223
-1.694	-6.014	-0.219
-1.701	-6.017	-0.213
-1.709	-6.014	-0.209
-1.713	-6.006	-0.207
-1.877	-6.063	-0.449
-1.873	-6.056	-0.453
-1.866	-6.054	-0.459
-1.858	-6.057	-0.463
-1.853	-6.065	-0.464
-1.852	-6.074	-0.462
-1.856	-6.081	-0.458
-1.864	-6.083	-0.452
-1.871	-6.080	-0.448
-1.876	-6.072	-0.447
-1.318	-6.026	0.546
-1.315	-6.017	0.546
-1.318	-6.008	0.548
-1.325	-6.003	0.550
-1.334	-6.003	0.552
-1.342	-6.009	0.552
-1.345	-6.018	0.552
-1.342	-6.026	0.550
-1.335	-6.032	0.548
-1.325	-6.031	0.547
-1.159	-6.119	1.365
-1.157	-6.110	1.365
-1.160	-6.101	1.367
-1.167	-6.096	1.369
-1.176	-6.097	1.372
-1.183	-6.103	1.373
-1.186	-6.112	1.373
-1.183	-6.120	1.371
-1.175	-6.125	1.368
-1.166	-6.125	1.366
-1.064	-6.142	1.646
-1.062	-6.133	1.646
-1.065	-6.124	1.648
-1.073	-6.120	1.650
-1.081	-6.121	1.653
-1.088	-6.127	1.655
-1.090	-6.136	1.655
-1.087	-6.144	1.653
-1.079	-6.149	1.650
-1.070	-6.148	1.647
-1.404	-6.138	0.578
-1.403	-6.130	0.581
-1.407	-6.123	0.586
-1.414	-6.120	0.591
-1.423	-6.123	0.594
-1.428	-6.130	0.594
-1.430	-6.139	0.591
-1.426	-6.146	0.586
-1.419	-6.148	0.581
-1.410	-6.145	0.578
-1.031	-6.442	1.304
-1.030	-6.434	1.308
-1.033	-6.427	1.313
-1.041	-6.426	1.319
-1.049	-6.429	1.322
-1.054	-6.437	1.322
-1.055	-6.445	1.318
-1.051	-6.452	1.313
-1.044	-6.453	1.307
-1.036	-6.450	1.304
-0.848	-6.585	1.523
-0.847	-6.577	1.528
-0.851	-6.571	1.534
-0.858	-6.570	1.541
-0.865	-6.575	1.544
-0.871	-6.582	1.543
-0.872	-6.590	1.539
-0.868	-6.596	1.532
-0.861	-6.597	1.526
-0.854	-6.592	1.523
-1.511	-6.251	0.630
-1.508	-6.243	0.627
-1.502	-6.239	0.621
-1.494	-6.241	0.616
-1.489	-6.248	0.612
-1.487	-6.257	0.613
-1.490	-6.265	0.616
-1.497	-6.269	0.622
-1.504	-6.267	0.627
-1.509	-6.260	0.630
-2.028	-6.354	-0.030
-2.025	-6.347	-0.035
-2.018	-6.344	-0.041
-2.011	-6.347	-0.045
-2.005	-6.354	-0.047
-2.004	-6.363	-0.045
-2.007	-6.370	-0.041
-2.014	-6.373	-0.035
-2.022	-6.370	-0.030
-2.027	-6.363	-0.028
-2.154	-6.431	-0.214
-2.149	-6.425	-0.220
-2.142	-6.424	-0.225
-2.134	-6.428	-0.229
-2.130	-6.436	-0.229
-2.129	-6.444	-0.225
-2.134	-6.450	-0.220
-2.141	-6.451	-0.214
-2.148	-6.447	-0.211
-2.153	-6.439	-0.211
-1.584	-6.381	0.672
-1.586	-6.372	0.670
-1.584	-6.365	0.664
-1.579	-6.363	0.656
-1.573	-6.366	0.650
-1.568	-6.374	0.648
-1.566	-6.382	0.650
-1.568	-6.389	0.656
-1.573	-6.392	0.663
-1.579	-6.388	0.669
-2.229	-6.625	0.149
-2.231	-6.616	0.147
-2.229	-6.610	0.141
-2.224	-6.608	0.133
-2.217	-6.611	0.127
-2.212	-6.619	0.125
-2.211	-6.627	0.128
-2.213	-6.634	0.134
-2.218	-6.636	0.141
-2.224	-6.633	0.147
-2.353	-6.685	0.041
-2.355	-6.676	0.039
-2.352	-6.670	0.032
-2.347	-6.668	0.025
-2.340	-6.671	0.020
-2.335	-6.679	0.018
-2.333	-6.688	0.021
-2.336	-6.694	0.027
-2.341	-6.696	0.034
-2.348	-6.692	0.040
-1.647	-6.493	0.687
-1.641	-6.492	0.693
-1.638	-6.495	0.701
-1.640	-6.500	0.709
-1.647	-6.505	0.712
-1.655	-6.509	0.711
-1.662	-6.510	0.704
-1.665	-6.507	0.696
-1.662	-6.502	0.689
-1.656	-6.497	0.685
-1.260	-7.192	0.338
-1.253	-7.192	0.344
-1.250	-7.195	0.352
-1.252	-7.201	0.359
-1.258	-7.206	0.363
-1.267	-7.210	0.362
-1.274	-7.210	0.356
-1.277	-7.207	0.348
-1.275	-7.201	0.340
-1.269	-7.196	0.337
-1.152	-7.479	0.172
-1.152	-7.471	0.176
-1.152	-7.462	0.175
-1.152	-7.455	0.168
-1.152	-7.454	0.159
-1.152	-7.458	0.151
-1.152	-7.466	0.147
-1.152	-7.476	0.148
-1.152	-7.482	0.155
-1.152	-7.484	0.164
-1.717	-6.638	0.743
-1.714	-6.631	0.748
-1.715	-6.622	0.749
-1.720	-6.614	0.746
-1.726	-6.611	0.740
-1.731	-6.614	0.733
-1.734	-6.621	0.728
-1.733	-6.630	0.727
-1.729	-6.638	0.730
-1.723	-6.641	0.737
-2.351	-6.766	1.314
-2.348	-6.759	1.319
-2.349	-6.750	1.320
-2.353	-6.742	1.317
-2.360	-6.739	1.311
-2.366	-6.742	1.305
-2.369	-6.749	1.300
-2.369	-6.758	1.299
-2.364	-6.766	1.302
-2.358	-6.769	1.308
-2.422	-6.776	1.402
-2.418	-6.768	1.406
-2.419	-6.759	1.406
-2.423	-6.752	1.403
-2.430	-6.749	1.398
-2.437	-6.752	1.392
-2.441	-6.759	1.388
-2.441	-6.768	1.388
-2.436	-6.776	1.391
-2.429	-6.779	1.396
-1.785	-6.757	0.767
-1.783	-6.749	0.771
-1.786	-6.742	0.775
-1.794	-6.738	0.780
-1.803	-6.740	0.782
-1.810	-6.747	0.781
-1.812	-6.755	0.777
-1.808	-6.762	0.772
-1.801	-6.765	0.768
-1.792	-6.763	0.766
-1.529	-7.136	1.499
-1.527	-7.128	1.504
-1.531	-7.122	1.509
-1.538	-7.119	1.514
-1.547	-7.122	1.517
-1.553	-7.129	1.516
-1.555	-7.137	1.512
-1.551	-7.143	1.506
-1.544	-7.146	1.501
-1.535	-7.143	1.498
-1.438	-7.233	1.628
-1.436	-7.225	1.633
-1.440	-7.219	1.639
-1.447	-7.218	1.645
-1.455	-7.222	1.648
-1.461	-7.229	1.647
-1.462	-7.237	1.642
-1.459	-7.242	1.636
-1.452	-7.243	1.630
-1.444	-7.240	1.627
-1.859	-6.888	0.803
-1.855	-6.880	0.805
-1.858	-6.871	0.808
-1.865	-6.865	0.809
-1.874	-6.865	0.809
-1.882	-6.870	0.808
-1.885	-6.878	0.806
-1.883	-6.887	0.804
-1.876	-6.892	0.802
-1.866	-6.893	0.802
-1.854	-7.105	1.633
-1.850	-7.097	1.634
-1.852	-7.088	1.636
-1.859	-7.082	1.636
-1.868	-7.081	1.636
-1.876	-7.086	1.636
-1.880	-7.094	1.634
-1.878	-7.103	1.633
-1.871	-7.109	1.632
-1.862	-7.110	1.632
-1.860	-7.103	1.814
-1.856	-7.103	1.823
-1.857	-7.103	1.832
-1.864	-7.103	1.838
-1.873	-7.103	1.840
-1.881	-7.103	1.836
-1.885	-7.103	1.827
-1.884	-7.103	1.818
-1.877	-7.103	1.812
-1.868	-7.103	1.810
-1.932	-7.022	0.842
-1.931	-7.015	0.848
-1.933	-7.006	0.848
-1.936	-6.998	0.844
-1.940	-6.995	0.836
-1.943	-6.998	0.828
-1.944	-7.005	0.822
-1.942	-7.014	0.821
-1.939	-7.022	0.826
-1.935	-7.025	0.834
-2.713	-7.160	1.161
-2.712	-7.153	1.166
-2.714	-7.144	1.167
-2.717	-7.136	1.163
-2.720	-7.133	1.155
-2.723	-7.136	1.146
-2.725	-7.143	1.141
-2.723	-7.152	1.140
-2.720	-7.160	1.145
-2.716	-7.163	1.153
-2.765	-7.168	1.182
-2.764	-7.161	1.188
-2.765	-7.152	1.188
-2.768	-7.144	1.184
-2.772	-7.141	1.176
-2.775	-7.144	1.168
-2.776	-7.151	1.162
-2.775	-7.161	1.161
-2.772	-7.168	1.166
-2.768	-7.171	1.174
-0.398	-5.155	0.132
-0.396	-5.147	0.137
-0.397	-5.138	0.138
-0.400	-5.131	0.133
-0.404	-5.128	0.126
-0.408	-5.130	0.118
-0.409	-5.138	0.112
-0.408	-5.147	0.112
-0.405	-5.154	0.116
-0.401	-5.157	0.124
-1.173	-5.260	0.503
-1.172	-5.253	0.508
-1.173	-5.244	0.510
-1.177	-5.237	0.506
-1.182	-5.233	0.499
-1.185	-5.236	0.490
-1.186	-5.243	0.484
-1.184	-5.252	0.483
-1.180	-5.259	0.487
-1.176	-5.262	0.494
-1.869	-5.540	0.843
-1.868	-5.534	0.850
-1.871	-5.525	0.852
-1.875	-5.517	0.849
-1.880	-5.514	0.842
-1.883	-5.516	0.833
-1.884	-5.522	0.827
-1.882	-5.531	0.824
-1.877	-5.538	0.828
-1.872	-5.542	0.835
-1.991	-7.146	0.855
-1.990	-7.137	0.856
-1.994	-7.130	0.860
-2.002	-7.127	0.866
-2.009	-7.131	0.870
-2.014	-7.138	0.871
-2.015	-7.148	0.869
-2.010	-7.155	0.865
-2.003	-7.157	0.860
-1.995	-7.153	0.856
-1.541	-7.298	1.568
-1.541	-7.289	1.570
-1.545	-7.283	1.574
-1.553	-7.281	1.580
-1.560	-7.285	1.584
-1.564	-7.293	1.585
-1.564	-7.302	1.583
-1.560	-7.309	1.579
-1.553	-7.310	1.573
-1.545	-7.306	1.569
-1.417	-7.333	1.722
-1.417	-7.324	1.725
-1.422	-7.317	1.730
-1.429	-7.316	1.736
-1.436	-7.321	1.740
-1.440	-7.329	1.741
-1.440	-7.338	1.739
-1.435	-7.344	1.734
-1.428	-7.345	1.728
-1.421	-7.341	1.724
-2.052	-7.283	0.884
-2.050	-7.274	0.886
-2.053	-7.266	0.890
-2.061	-7.262	0.893
-2.070	-7.263	0.895
-2.077	-7.269	0.894
-2.079	-7.278	0.892
-2.076	-7.286	0.888
-2.069	-7.290	0.885
-2.060	-7.289	0.883
-1.857	-7.563	1.703
-1.855	-7.554	1.705
-1.858	-7.546	1.708
-1.866	-7.542	1.711
-1.875	-7.543	1.713
-1.882	-7.549	1.713
-1.884	-7.558	1.711
-1.881	-7.566	1.708
-1.873	-7.570	1.705
-1.864	-7.569	1.703
-1.840	-7.578	1.760
-1.838	-7.569	1.761
-1.841	-7.561	1.765
-1.849	-7.557	1.768
-1.858	-7.559	1.770
-1.864	-7.565	1.771
-1.866	-7.574	1.769
-1.863	-7.582	1.766
-1.856	-7.586	1.762
-1.847	-7.585	1.760
-2.115	-7.419	0.912
-2.111	-7.411	0.915
-2.114	-7.403	0.918
-2.121	-7.397	0.920
-2.130	-7.397	0.920
-2.138	-7.401	0.918
-2.141	-7.409	0.915
-2.139	-7.418	0.912
-2.132	-7.423	0.910
-2.123	-7.424	0.910
-2.145	-7.686	1.675
-2.141	-7.677	1.678
-2.144	-7.669	1.681
-2.151	-7.663	1.683
-2.160	-7.663	1.682
-2.168	-7.668	1.680
-2.171	-7.676	1.678
-2.169	-7.684	1.675
-2.162	-7.690	1.673
-2.152	-7.690	1.673
-2.198	-7.543	0.950
-2.196	-7.536	0.945
-2.191	-7.531	0.939
-2.184	-7.533	0.933
-2.178	-7.539	0.930
-2.175	-7.548	0.931
-2.176	-7.555	0.936
-2.181	-7.560	0.942
-2.188	-7.558	0.948
-2.195	-7.552	0.951
-2.751	-7.815	0.336
[...]
         <CellData>
           <DataArray type="Float32" Name="aerenchymaFormation" NumberOfComponents="1" format="ascii">
 0.000e+00 0.000e+00 0.000e+00 0.000e+00 0.000e+00 0.000e+00 0.000e+00 0.000e+00 0.000e+00 0.000e+00 0.000e+00 0.000e+00 0.000e+00 0.000e+00 0.000e+00 0.000e+00 0.000e+00 0.000e+00 0.000e+00 0.000e+00 0.000e+00 0.000e+00 0.000e+00 0.000e+00 0.000e+00 0.000e+00 0.000e+00 0.000e+00 0.000e+00 0.000e+00 0.000e+00 0.000e+00 0.000e+00 0.000e+00 0.000e+00 0.000e+00 0.000e+00 0.000e+00 0.000e+00 0.000e+00 0.000e+00 0.000e+00 0.000e+00 0.000e+00 0.000e+00 0.000e+00 0.000e+00 0.000e+00 0.000e+00 0.000e+00 0.000e+00 0.000e+00 0.000e+00 0.000e+00 0.000e+00 0.000e+00 0.000e+00 0.000e+00 0.000e+00 0.000e+00 0.000e+00 0.000e+00 0.000e+00 0.000e+00 0.000e+00 0.000e+00 0.000e+00 0.000e+00 0.000e+00 0.000e+00 0.000e+00 0.000e+00 0.000e+00 0.000e+00 0.000e+00 0.000e+00 0.000e+00 0.000e+00 0.000e+00 0.000e+00 0.000e+00 0.000e+00 0.000e+00 0.000e+00 0.000e+00 5.833e-02 4.500e-02 3.250e-02 2.500e-02 1.750e-02 1.250e-02 7.500e-03 2.500e-03 0.000e+00 0.000e+00 0.000e+00 0.000e+00 0.000e+00 0.000e+00 0.000e+00 0.000e+00 0.000e+00 0.000e+00 0.000e+00 0.000e+00 0.000e+00 0.000e+00 0.000e+00 0.000e+00 0.000e+00 0.000e+00 0.000e+00 0.000e+00 0.000e+00 0.000e+00 0.000e+00 0.000e+00 0.000e+00 0.000e+00 0.000e+00 0.000e+00 0.000e+00 0.000e+00 0.000e+00 0.000e+00 0.000e+00 0.000e+00 0.000e+00 0.000e+00 0.000e+00 0.000e+00 0.000e+00 0.000e+00 0.000e+00 0.000e+00 0.000e+00 0.000e+00 0.000e+00 0.000e+00 0.000e+00 0.000e+00 0.000e+00 0.000e+00 0.000e+00 0.000e+00 0.000e+00 0.000e+00 0.000e+00 0.000e+00 0.000e+00 0.000e+00 0.000e+00 0.000e+00 0.000e+00 0.000e+00 0.000e+00 0.000e+00 0.000e+00 0.000e+00 0.000e+00 0.000e+00 0.000e+00 0.000e+00 0.000e+00 0.000e+00 0.000e+00 0.000e+00 0.000e+00 0.000e+00 0.000e+00 0.000e+00 0.000e+00 0.000e+00 0.000e+00 0.000e+00 0.000e+00 0.000e+00 0.000e+00 0.000e+00 0.000e+00 0.000e+00 0.000e+00 0.000e+00 0.000e+00 0.000e+00 0.000e+00 0.000e+00 0.000e+00 0.000e+00 0.000e+00 0.000e+00 0.000e+00 0.000e+00 0.000e+00 0.000e+00 5.833e-02 4.500e-02 3.250e-02 2.500e-02 1.750e-02 1.250e-02 7.500e-03 2.500e-03 0.000e+00 0.000e+00 0.000e+00 0.000e+00 0.000e+00 0.000e+00 0.000e+00 0.000e+00 0.000e+00 0.000e+00 0.000e+00 0.000e+00 0.000e+00 0.000e+00 0.000e+00 0.000e+00 0.000e+00 0.000e+00 0.000e+00 0.000e+00 0.000e+00 0.000e+00 0.000e+00 0.000e+00 0.000e+00 0.000e+00 0.000e+00 0.000e+00 0.000e+00 0.000e+00 0.000e+00 0.000e+00 0.000e+00 0.000e+00 0.000e+00 0.000e+00 0.000e+00 0.000e+00 0.000e+00 0.000e+00 0.000e+00 0.000e+00 0.000e+00 0.000e+00 0.000e+00 0.000e+00 0.000e+00 0.000e+00 0.000e+00 0.000e+00 0.000e+00 0.000e+00 0.000e+00 0.000e+00 0.000e+00 0.000e+00 0.000e+00 0.000e+00 0.000e+00 0.000e+00 0.000e+00 0.000e+00 0.000e+00 0.000e+00 0.000e+00 0.000e+00 0.000e+00 0.000e+00 0.000e+00 0.000e+00 0.000e+00 0.000e+00 0.000e+00 0.000e+00 0.000e+00 0.000e+00 0.000e+00 0.000e+00 0.000e+00 0.000e+00 0.000e+00 0.000e+00 0.000e+00 0.000e+00 0.000e+00 0.000e+00 0.000e+00 0.000e+00 0.000e+00 0.000e+00 0.000e+00 0.000e+00 0.000e+00 0.000e+00 0.000e+00 0.000e+00 0.000e+00 0.000e+00 0.000e+00 0.000e+00 0.000e+00 0.000e+00 5.833e-02 4.500e-02 3.250e-02 2.500e-02 1.750e-02 1.250e-02 7.500e-03 2.500e-03 0.000e+00 0.000e+00 0.000e+00 0.000e+00 0.000e+00 0.000e+00 0.000e+00 0.000e+00 0.000e+00 0.000e+00 0.000e+00 0.000e+00 0.000e+00 0.000e+00 0.000e+00 0.000e+00 0.000e+00 0.000e+00 0.000e+00 0.000e+00 0.000e+00 0.000e+00 0.000e+00 0.000e+00 0.000e+00 0.000e+00 0.000e+00 0.000e+00 0.000e+00 0.000e+00 0.000e+00 0.000e+00 0.000e+00 0.000e+00 0.000e+00 0.000e+00 0.000e+00 0.000e+00 0.000e+00 0.000e+00 0.000e+00 0.000e+00 0.000e+00 0.000e+00 0.000e+00 0.000e+00 0.000e+00 0.000e+00 0.000e+00 0.000e+00 0.000e+00 0.000e+00 0.000e+00 0.000e+00 0.000e+00 0.000e+00 0.000e+00 0.000e+00 0.000e+00 0.000e+00 0.000e+00 0.000e+00 0.000e+00 0.000e+00 0.000e+00 0.000e+00 0.000e+00 0.000e+00 0.000e+00 0.000e+00 0.000e+00 0.000e+00 0.000e+00 0.000e+00 0.000e+00 0.000e+00 0.000e+00 0.000e+00 0.000e+00 0.000e+00 0.000e+00 0.000e+00 0.000e+00 0.000e+00 0.000e+00 0.000e+00 0.000e+00 0.000e+00 0.000e+00 0.000e+00 0.000e+00 0.000e+00 0.000e+00 0.000e+00 0.000e+00 0.000e+00 0.000e+00 0.000e+00 0.000e+00 0.000e+00 5.833e-02 4.500e-02 3.250e-02 2.500e-02 1.750e-02 1.250e-02 7.500e-03 2.500e-03 0.000e+00 0.000e+00 0.000e+00 0.000e+00 0.000e+00 0.000e+00 0.000e+00 0.000e+00 0.000e+00 0.000e+00 0.000e+00 0.000e+00 0.000e+00 0.000e+00 0.000e+00 1.875e-02 0.000e+00 0.000e+00 0.000e+00 0.000e+00 0.000e+00 0.000e+00 0.000e+00 0.000e+00 0.000e+00 0.000e+00 0.000e+00 1.875e-02 0.000e+00 0.000e+00 0.000e+00 0.000e+00 0.000e+00 0.000e+00 0.000e+00 0.000e+00 0.000e+00 0.000e+00 0.000e+00 1.875e-02 0.000e+00 0.000e+00 0.000e+00 0.000e+00 0.000e+00 0.000e+00 0.000e+00 0.000e+00 0.000e+00 0.000e+00 0.000e+00 1.875e-02 0.000e+00 0.000e+00 0.000e+00 0.000e+00 0.000e+00 0.000e+00 0.000e+00 0.000e+00 0.000e+00 0.000e+00 0.000e+00 0.000e+00 0.000e+00 0.000e+00 0.000e+00 0.000e+00 0.000e+00 0.000e+00 0.000e+00 0.000e+00 0.000e+00 5.715e-02 3.750e-02 7.500e-03 0.000e+00 0.000e+00 0.000e+00 5.672e-02 4.000e-02 1.500e-02 0.000e+00 0.000e+00 0.000e+00 5.291e-02 2.500e-02 0.000e+00 0.000e+00 0.000e+00 0.000e+00 0.000e+00 0.000e+00 0.000e+00 0.000e+00 0.000e+00 0.000e+00 0.000e+00 0.000e+00 0.000e+00 0.000e+00 0.000e+00 0.000e+00 0.000e+00 0.000e+00 0.000e+00 0.000e+00 5.248e-02 3.000e-02 5.000e-03 0.000e+00 0.000e+00 0.000e+00 0.000e+00 0.000e+00 0.000e+00 0.000e+00 0.000e+00 0.000e+00 0.000e+00 0.000e+00 0.000e+00 0.000e+00 5.206e-02 2.500e-02 0.000e+00 0.000e+00 0.000e+00 0.000e+00 0.000e+00 0.000e+00 0.000e+00 0.000e+00 0.000e+00 0.000e+00 0.000e+00 0.000e+00 0.000e+00 5.163e-02 2.000e-02 0.000e+00 0.000e+00 0.000e+00 0.000e+00 0.000e+00 0.000e+00 0.000e+00 5.121e-02 2.500e-02 0.000e+00 0.000e+00 0.000e+00 5.078e-02 2.500e-02 0.000e+00 0.000e+00 0.000e+00 5.036e-02 2.000e-02 0.000e+00 0.000e+00 0.000e+00 4.984e-02 2.500e-02 0.000e+00 0.000e+00 0.000e+00 4.878e-02 2.000e-02 0.000e+00 0.000e+00 0.000e+00 4.772e-02 2.000e-02 0.000e+00 0.000e+00 0.000e+00 5.630e-02 3.500e-02 5.000e-03 0.000e+00 0.000e+00 4.666e-02 2.250e-02 0.000e+00 0.000e+00 0.000e+00 4.560e-02 1.750e-02 0.000e+00 0.000e+00 0.000e+00 4.454e-02 1.500e-02 0.000e+00 0.000e+00 4.348e-02 1.500e-02 0.000e+00 0.000e+00 4.242e-02 1.750e-02 0.000e+00 0.000e+00 0.000e+00 4.136e-02 1.500e-02 0.000e+00 0.000e+00 0.000e+00 4.029e-02 1.000e-02 0.000e+00 0.000e+00 3.923e-02 1.500e-02 0.000e+00 0.000e+00 0.000e+00 3.817e-02 1.500e-02 0.000e+00 0.000e+00 0.000e+00 3.711e-02 1.000e-02 0.000e+00 0.000e+00 0.000e+00 0.000e+00 5.588e-02 3.750e-02 1.000e-02 0.000e+00 0.000e+00 0.000e+00 3.605e-02 1.000e-02 0.000e+00 0.000e+00 0.000e+00 3.499e-02 1.000e-02 0.000e+00 0.000e+00 0.000e+00 3.393e-02 7.500e-03 0.000e+00 0.000e+00 0.000e+00 3.287e-02 7.500e-03 0.000e+00 0.000e+00 0.000e+00 3.181e-02 0.000e+00 0.000e+00 0.000e+00 3.075e-02 0.000e+00 0.000e+00 0.000e+00 2.969e-02 5.000e-03 0.000e+00 0.000e+00 0.000e+00 2.863e-02 0.000e+00 0.000e+00 0.000e+00 2.757e-02 0.000e+00 0.000e+00 0.000e+00 2.651e-02 0.000e+00 0.000e+00 0.000e+00 0.000e+00 5.545e-02 4.000e-02 1.500e-02 0.000e+00 0.000e+00 0.000e+00 2.545e-02 0.000e+00 0.000e+00 0.000e+00 2.438e-02 0.000e+00 0.000e+00 0.000e+00 2.332e-02 0.000e+00 0.000e+00 0.000e+00 2.226e-02 0.000e+00 0.000e+00 0.000e+00 2.120e-02 0.000e+00 0.000e+00 0.000e+00 2.014e-02 0.000e+00 0.000e+00 0.000e+00 1.908e-02 0.000e+00 0.000e+00 0.000e+00 1.802e-02 0.000e+00 0.000e+00 0.000e+00 1.696e-02 0.000e+00 0.000e+00 0.000e+00 1.590e-02 0.000e+00 0.000e+00 5.503e-02 3.500e-02 7.500e-03 0.000e+00 0.000e+00 1.484e-02 0.000e+00 0.000e+00 1.378e-02 0.000e+00 0.000e+00 0.000e+00 1.272e-02 0.000e+00 0.000e+00 1.166e-02 0.000e+00 0.000e+00 1.060e-02 0.000e+00 0.000e+00 9.535e-03 0.000e+00 0.000e+00 0.000e+00 8.475e-03 0.000e+00 0.000e+00 7.414e-03 0.000e+00 0.000e+00 0.000e+00 6.353e-03 0.000e+00 0.000e+00 5.293e-03 0.000e+00 0.000e+00 0.000e+00 5.460e-02 3.000e-02 0.000e+00 0.000e+00 0.000e+00 4.232e-03 0.000e+00 0.000e+00 0.000e+00 3.171e-03 0.000e+00 0.000e+00 2.111e-03 0.000e+00 0.000e+00 1.050e-03 0.000e+00 0.000e+00 0.000e+00 0.000e+00 0.000e+00 0.000e+00 0.000e+00 0.000e+00 0.000e+00 0.000e+00 0.000e+00 0.000e+00 0.000e+00 0.000e+00 0.000e+00 0.000e+00 0.000e+00 0.000e+00 0.000e+00 0.000e+00 5.418e-02 3.500e-02 1.000e-02 0.000e+00 0.000e+00 0.000e+00 0.000e+00 0.000e+00 0.000e+00 0.000e+00 0.000e+00 0.000e+00 0.000e+00 0.000e+00 0.000e+00 0.000e+00 0.000e+00 0.000e+00 0.000e+00 0.000e+00 0.000e+00 0.000e+00 0.000e+00 0.000e+00 0.000e+00 0.000e+00 0.000e+00 0.000e+00 0.000e+00 0.000e+00 0.000e+00 0.000e+00 0.000e+00 0.000e+00 0.000e+00 0.000e+00 0.000e+00 5.375e-02 3.500e-02 1.000e-02 0.000e+00 0.000e+00 0.000e+00 0.000e+00 0.000e+00 0.000e+00 0.000e+00 0.000e+00 0.000e+00 0.000e+00 0.000e+00 0.000e+00 0.000e+00 0.000e+00 0.000e+00 0.000e+00 0.000e+00 0.000e+00 0.000e+00 0.000e+00 0.000e+00 0.000e+00 0.000e+00 0.000e+00 5.333e-02 3.000e-02 0.000e+00 0.000e+00 0.000e+00 0.000e+00 0.000e+00 0.000e+00 0.000e+00 0.000e+00 0.000e+00 0.000e+00 0.000e+00 0.000e+00 0.000e+00 0.000e+00 0.000e+00 0.000e+00 0.000e+00 0.000e+00 0.000e+00 0.000e+00 0.000e+00 0.000e+00 0.000e+00 0.000e+00 0.000e+00 0.000e+00 4.253e-02 2.500e-02 7.500e-03 0.000e+00 0.000e+00 0.000e+00 0.000e+00 0.000e+00 0.000e+00 0.000e+00 3.027e-02 1.500e-02 0.000e+00 0.000e+00 0.000e+00 0.000e+00 0.000e+00 0.000e+00 0.000e+00 0.000e+00 0.000e+00 0.000e+00 0.000e+00 0.000e+00 0.000e+00 0.000e+00 1.000e-01 9.700e-02 9.400e-02 9.100e-02 8.800e-02 8.500e-02 8.100e-02 7.800e-02 7.500e-02 7.100e-02 6.800e-02 6.500e-02 6.100e-02 5.800e-02 5.500e-02 5.200e-02 4.750e-02 4.000e-02 3.250e-02 2.500e-02 1.750e-02 1.000e-02 2.500e-03 0.000e+00 0.000e+00 0.000e+00 0.000e+00 0.000e+00 0.000e+00 0.000e+00 0.000e+00 0.000e+00
           </DataArray>
           <DataArray type="Float32" Name="combinedRootClassID" NumberOfComponents="1" format="ascii">
 -1.300e+01 -1.300e+01 -1.300e+01 -1.300e+01 -1.300e+01 -1.300e+01 -1.300e+01 -1.300e+01 -1.300e+01 -1.300e+01 -1.300e+01 -1.300e+01 -1.300e+01 -1.300e+01 -1.300e+01 -1.300e+01 -1.300e+01 -1.300e+01 -1.300e+01 -1.300e+01 -1.300e+01 -1.300e+01 -1.300e+01 -1.300e+01 -1.300e+01 -1.300e+01 -1.300e+01 -1.300e+01 -1.300e+01 -1.300e+01 -1.300e+01 -1.300e+01 -1.300e+01 -1.300e+01 -1.300e+01 -1.300e+01 -1.300e+01 -1.300e+01 -1.300e+01 -1.300e+01 -1.300e+01 -1.300e+01 -1.300e+01 -1.300e+01 -1.300e+01 -1.300e+01 -1.300e+01 -1.300e+01 -1.300e+01 -1.300e+01 -1.300e+01 -1.300e+01 -1.300e+01 -1.300e+01 -1.300e+01 -1.300e+01 -1.300e+01 -1.300e+01 -1.300e+01 -1.300e+01 -1.300e+01 -1.300e+01 -1.300e+01 -1.300e+01 -1.300e+01 -1.300e+01 -1.300e+01 -1.300e+01 -1.300e+01 -1.300e+01 -1.300e+01 -1.300e+01 -1.300e+01 -1.300e+01 -1.300e+01 -1.300e+01 -1.300e+01 -1.300e+01 -1.300e+01 -1.300e+01 -1.300e+01 -1.300e+01 -1.300e+01 -1.300e+01 -1.300e+01 -5.000e+00 -5.000e+00 -5.000e+00 -5.000e+00 -5.000e+00 -5.000e+00 -5.000e+00 -5.000e+00 -5.000e+00 -5.000e+00 -5.000e+00 -5.000e+00 -5.000e+00 -5.000e+00 -5.000e+00 -5.000e+00 -5.000e+00 -5.000e+00 -5.000e+00 -5.000e+00 -5.000e+00 -5.000e+00 -5.000e+00 -1.300e+01 -1.300e+01 -1.300e+01 -1.300e+01 -1.300e+01 -1.300e+01 -1.300e+01 -1.300e+01 -1.300e+01 -1.300e+01 -1.300e+01 -1.300e+01 -1.300e+01 -1.300e+01 -1.300e+01 -1.300e+01 -1.300e+01 -1.300e+01 -1.300e+01 -1.300e+01 -1.300e+01 -1.300e+01 -1.300e+01 -1.300e+01 -1.300e+01 -1.300e+01 -1.300e+01 -1.300e+01 -1.300e+01 -1.300e+01 -1.300e+01 -1.300e+01 -1.300e+01 -1.300e+01 -1.300e+01 -1.300e+01 -1.300e+01 -1.300e+01 -1.300e+01 -1.300e+01 -1.300e+01 -1.300e+01 -1.300e+01 -1.300e+01 -1.300e+01 -1.300e+01 -1.300e+01 -1.300e+01 -1.300e+01 -1.300e+01 -1.300e+01 -1.300e+01 -1.300e+01 -1.300e+01 -1.300e+01 -1.300e+01 -1.300e+01 -1.300e+01 -1.300e+01 -1.300e+01 -1.300e+01 -1.300e+01 -1.300e+01 -1.300e+01 -1.300e+01 -1.300e+01 -1.300e+01 -1.300e+01 -1.300e+01 -1.300e+01 -1.300e+01 -1.300e+01 -1.300e+01 -1.300e+01 -1.300e+01 -1.300e+01 -1.300e+01 -1.300e+01 -1.300e+01 -1.300e+01 -1.300e+01 -1.300e+01 -1.300e+01 -1.300e+01 -1.300e+01 -1.300e+01 -1.300e+01 -5.000e+00 -5.000e+00 -5.000e+00 -5.000e+00 -5.000e+00 -5.000e+00 -5.000e+00 -5.000e+00 -5.000e+00 -5.000e+00 -5.000e+00 -5.000e+00 -5.000e+00 -5.000e+00 -5.000e+00 -5.000e+00 -5.000e+00 -5.000e+00 -5.000e+00 -5.000e+00 -5.000e+00 -5.000e+00 -5.000e+00 -1.300e+01 -1.300e+01 -1.300e+01 -1.300e+01 -1.300e+01 -1.300e+01 -1.300e+01 -1.300e+01 -1.300e+01 -1.300e+01 -1.300e+01 -1.300e+01 -1.300e+01 -1.300e+01 -1.300e+01 -1.300e+01 -1.300e+01 -1.300e+01 -1.300e+01 -1.300e+01 -1.300e+01 -1.300e+01 -1.300e+01 -1.300e+01 -1.300e+01 -1.300e+01 -1.300e+01 -1.300e+01 -1.300e+01 -1.300e+01 -1.300e+01 -1.300e+01 -1.300e+01 -1.300e+01 -1.300e+01 -1.300e+01 -1.300e+01 -1.300e+01 -1.300e+01 -1.300e+01 -1.300e+01 -1.300e+01 -1.300e+01 -1.300e+01 -1.300e+01 -1.300e+01 -1.300e+01 -1.300e+01 -1.300e+01 -1.300e+01 -1.300e+01 -1.300e+01 -1.300e+01 -1.300e+01 -1.300e+01 -1.300e+01 -1.300e+01 -1.300e+01 -1.300e+01 -1.300e+01 -1.300e+01 -1.300e+01 -1.300e+01 -1.300e+01 -1.300e+01 -1.300e+01 -1.300e+01 -1.300e+01 -1.300e+01 -1.300e+01 -1.300e+01 -1.300e+01 -1.300e+01 -1.300e+01 -1.300e+01 -1.300e+01 -1.300e+01 -1.300e+01 -1.300e+01 -1.300e+01 -1.300e+01 -1.300e+01 -1.300e+01 -1.300e+01 -1.300e+01 -1.300e+01 -1.300e+01 -5.000e+00 -5.000e+00 -5.000e+00 -5.000e+00 -5.000e+00 -5.000e+00 -5.000e+00 -5.000e+00 -5.000e+00 -5.000e+00 -5.000e+00 -5.000e+00 -5.000e+00 -5.000e+00 -5.000e+00 -5.000e+00 -5.000e+00 -5.000e+00 -5.000e+00 -5.000e+00 -5.000e+00 -5.000e+00 -5.000e+00 -1.300e+01 -1.300e+01 -1.300e+01 -1.300e+01 -1.300e+01 -1.300e+01 -1.300e+01 -1.300e+01 -1.300e+01 -1.300e+01 -1.300e+01 -1.300e+01 -1.300e+01 -1.300e+01 -1.300e+01 -1.300e+01 -1.300e+01 -1.300e+01 -1.300e+01 -1.300e+01 -1.300e+01 -1.300e+01 -1.300e+01 -1.300e+01 -1.300e+01 -1.300e+01 -1.300e+01 -1.300e+01 -1.300e+01 -1.300e+01 -1.300e+01 -1.300e+01 -1.300e+01 -1.300e+01 -1.300e+01 -1.300e+01 -1.300e+01 -1.300e+01 -1.300e+01 -1.300e+01 -1.300e+01 -1.300e+01 -1.300e+01 -1.300e+01 -1.300e+01 -1.300e+01 -1.300e+01 -1.300e+01 -1.300e+01 -1.300e+01 -1.300e+01 -1.300e+01 -1.300e+01 -1.300e+01 -1.300e+01 -1.300e+01 -1.300e+01 -1.300e+01 -1.300e+01 -1.300e+01 -1.300e+01 -1.300e+01 -1.300e+01 -1.300e+01 -1.300e+01 -1.300e+01 -1.300e+01 -1.300e+01 -1.300e+01 -1.300e+01 -1.300e+01 -1.300e+01 -1.300e+01 -1.300e+01 -1.300e+01 -1.300e+01 -1.300e+01 -1.300e+01 -1.300e+01 -1.300e+01 -1.300e+01 -1.300e+01 -1.300e+01 -1.300e+01 -1.300e+01 -5.000e+00 -5.000e+00 -5.000e+00 -5.000e+00 -5.000e+00 -5.000e+00 -5.000e+00 -5.000e+00 -5.000e+00 -5.000e+00 -5.000e+00 -5.000e+00 -5.000e+00 -5.000e+00 -5.000e+00 -5.000e+00 -5.000e+00 -5.000e+00 -5.000e+00 -5.000e+00 -5.000e+00 -5.000e+00 -5.000e+00 -1.100e+01 -1.100e+01 -1.100e+01 -1.100e+01 -1.100e+01 -1.100e+01 -1.100e+01 -1.100e+01 -1.100e+01 -1.100e+01 -1.100e+01 -1.100e+01 -1.100e+01 -1.100e+01 -1.100e+01 -1.100e+01 -1.100e+01 -1.100e+01 -1.100e+01 -1.100e+01 -1.100e+01 -1.100e+01 -1.100e+01 -1.100e+01 -1.100e+01 -1.100e+01 -1.100e+01 -1.100e+01 -1.100e+01 -1.100e+01 -1.100e+01 -1.100e+01 -1.100e+01 -1.100e+01 -1.100e+01 -1.100e+01 -1.100e+01 -1.100e+01 -1.100e+01 -1.100e+01 -1.100e+01 -1.100e+01 -1.100e+01 -1.100e+01 -1.100e+01 -1.100e+01 -1.100e+01 -1.100e+01 -2.000e+00 -2.000e+00 -2.000e+00 -2.000e+00 -2.000e+00 -2.000e+00 -2.000e+00 -2.000e+00 -2.000e+00 -2.000e+00 -7.000e+00 -7.000e+00 -7.000e+00 -7.000e+00 -7.000e+00 -1.700e+01 -7.000e+00 -7.000e+00 -7.000e+00 -7.000e+00 -7.000e+00 -7.000e+00 -7.000e+00 -7.000e+00 -7.000e+00 -7.000e+00 -7.000e+00 -7.000e+00 -7.000e+00 -7.000e+00 -7.000e+00 -7.000e+00 -7.000e+00 -7.000e+00 -7.000e+00 -7.000e+00 -7.000e+00 -7.000e+00 -7.000e+00 -7.000e+00 -7.000e+00 -7.000e+00 -7.000e+00 -7.000e+00 -7.000e+00 -7.000e+00 -7.000e+00 -7.000e+00 -7.000e+00 -7.000e+00 -7.000e+00 -7.000e+00 -7.000e+00 -7.000e+00 -7.000e+00 -7.000e+00 -7.000e+00 -7.000e+00 -7.000e+00 -7.000e+00 -7.000e+00 -7.000e+00 -7.000e+00 -7.000e+00 -7.000e+00 -7.000e+00 -7.000e+00 -7.000e+00 -7.000e+00 -7.000e+00 -7.000e+00 -7.000e+00 -7.000e+00 -7.000e+00 -7.000e+00 -7.000e+00 -7.000e+00 -7.000e+00 -7.000e+00 -7.000e+00 -7.000e+00 -7.000e+00 -7.000e+00 -7.000e+00 -7.000e+00 -7.000e+00 -7.000e+00 -7.000e+00 -7.000e+00 -7.000e+00 -7.000e+00 -7.000e+00 -7.000e+00 -7.000e+00 -7.000e+00 -7.000e+00 -7.000e+00 -7.000e+00 -1.700e+01 -7.000e+00 -7.000e+00 -7.000e+00 -7.000e+00 -7.000e+00 -7.000e+00 -7.000e+00 -7.000e+00 -7.000e+00 -7.000e+00 -7.000e+00 -7.000e+00 -7.000e+00 -7.000e+00 -7.000e+00 -7.000e+00 -7.000e+00 -7.000e+00 -7.000e+00 -7.000e+00 -7.000e+00 -7.000e+00 -7.000e+00 -7.000e+00 -7.000e+00 -7.000e+00 -7.000e+00 -7.000e+00 -7.000e+00 -7.000e+00 -7.000e+00 -7.000e+00 -7.000e+00 -7.000e+00 -7.000e+00 -7.000e+00 -7.000e+00 -7.000e+00 -7.000e+00 -7.000e+00 -7.000e+00 -7.000e+00 -7.000e+00 -7.000e+00 -7.000e+00 -7.000e+00 -7.000e+00 -7.000e+00 -7.000e+00 -7.000e+00 -7.000e+00 -7.000e+00 -7.000e+00 -7.000e+00 -7.000e+00 -7.000e+00 -7.000e+00 -7.000e+00 -7.000e+00 -7.000e+00 -7.000e+00 -7.000e+00 -7.000e+00 -7.000e+00 -7.000e+00 -7.000e+00 -7.000e+00 -1.700e+01 -7.000e+00 -7.000e+00 -7.000e+00 -7.000e+00 -7.000e+00 -7.000e+00 -7.000e+00 -7.000e+00 -7.000e+00 -7.000e+00 -7.000e+00 -7.000e+00 -7.000e+00 -7.000e+00 -7.000e+00 -7.000e+00 -7.000e+00 -7.000e+00 -7.000e+00 -7.000e+00 -7.000e+00 -7.000e+00 -7.000e+00 -7.000e+00 -7.000e+00 -7.000e+00 -7.000e+00 -7.000e+00 -7.000e+00 -7.000e+00 -7.000e+00 -7.000e+00 -7.000e+00 -7.000e+00 -7.000e+00 -7.000e+00 -7.000e+00 -7.000e+00 -7.000e+00 -7.000e+00 -7.000e+00 -7.000e+00 -7.000e+00 -7.000e+00 -7.000e+00 -7.000e+00 -7.000e+00 -7.000e+00 -7.000e+00 -7.000e+00 -7.000e+00 -1.700e+01 -7.000e+00 -7.000e+00 -7.000e+00 -7.000e+00 -7.000e+00 -7.000e+00 -7.000e+00 -7.000e+00 -7.000e+00 -7.000e+00 -7.000e+00 -7.000e+00 -7.000e+00 -7.000e+00 -7.000e+00 -7.000e+00 -7.000e+00 -7.000e+00 -7.000e+00 -7.000e+00 -7.000e+00 -7.000e+00 -7.000e+00 -7.000e+00 -7.000e+00 -7.000e+00 -7.000e+00 -7.000e+00 -7.000e+00 -7.000e+00 -7.000e+00 -7.000e+00 -7.000e+00 -7.000e+00 -7.000e+00 -7.000e+00 -7.000e+00 -7.000e+00 -7.000e+00 -7.000e+00 -7.000e+00 -7.000e+00 -7.000e+00 -7.000e+00 -7.000e+00 -7.000e+00 -7.000e+00 -7.000e+00 -7.000e+00 -7.000e+00 -7.000e+00 -7.000e+00 -7.000e+00 -7.000e+00 -7.000e+00 -7.000e+00 -7.000e+00 -7.000e+00 -7.000e+00 -7.000e+00 -7.000e+00 -7.000e+00 -7.000e+00 -7.000e+00 -7.000e+00 -7.000e+00 -7.000e+00 -7.000e+00 -7.000e+00 -7.000e+00 -7.000e+00 -7.000e+00 -7.000e+00 -7.000e+00 -7.000e+00 -7.000e+00 -7.000e+00 -7.000e+00 -7.000e+00 -7.000e+00 -7.000e+00 -7.000e+00 -7.000e+00 -7.000e+00 -7.000e+00 -7.000e+00 -7.000e+00 -7.000e+00 -7.000e+00 -7.000e+00 -7.000e+00 -7.000e+00 -7.000e+00 -7.000e+00 -7.000e+00 -7.000e+00 -7.000e+00 -7.000e+00 -7.000e+00 -7.000e+00 -7.000e+00 -7.000e+00 -7.000e+00 -7.000e+00 -7.000e+00 -7.000e+00 -7.000e+00 -7.000e+00 -7.000e+00 -7.000e+00 -7.000e+00 -7.000e+00 -7.000e+00 -7.000e+00 -7.000e+00 -7.000e+00 -7.000e+00 -7.000e+00 -7.000e+00 -1.700e+01 -7.000e+00 -7.000e+00 -7.000e+00 -7.000e+00 -7.000e+00 -7.000e+00 -7.000e+00 -7.000e+00 -7.000e+00 -7.000e+00 -7.000e+00 -7.000e+00 -7.000e+00 -7.000e+00 -7.000e+00 -7.000e+00 -7.000e+00 -7.000e+00 -7.000e+00 -7.000e+00 -7.000e+00 -7.000e+00 -7.000e+00 -7.000e+00 -7.000e+00 -7.000e+00 -7.000e+00 -7.000e+00 -7.000e+00 -7.000e+00 -7.000e+00 -7.000e+00 -7.000e+00 -7.000e+00 -7.000e+00 -7.000e+00 -1.700e+01 -7.000e+00 -7.000e+00 -7.000e+00 -7.000e+00 -7.000e+00 -7.000e+00 -7.000e+00 -7.000e+00 -7.000e+00 -7.000e+00 -7.000e+00 -7.000e+00 -7.000e+00 -7.000e+00 -7.000e+00 -7.000e+00 -7.000e+00 -7.000e+00 -7.000e+00 -7.000e+00 -7.000e+00 -7.000e+00 -7.000e+00 -7.000e+00 -7.000e+00 -7.000e+00 -7.000e+00 -7.000e+00 -7.000e+00 -7.000e+00 -7.000e+00 -7.000e+00 -7.000e+00 -7.000e+00 -7.000e+00 -7.000e+00 -7.000e+00 -7.000e+00 -7.000e+00 -7.000e+00 -7.000e+00 -7.000e+00 -7.000e+00 -7.000e+00 -7.000e+00 -7.000e+00 -7.000e+00 -7.000e+00 -7.000e+00 -7.000e+00 -7.000e+