<?xml version="1.0"?>
<VTKFile type="UnstructuredGrid" version="0.1" byte_order="LittleEndian">
   <UnstructuredGrid>
      <Piece NumberOfPoints="32420" NumberOfCells="2284">
         <Points>
            <DataArray type="Float32" Name="Position" NumberOfComponents="3" format="ascii">
-0.155	-5.023	0.003
-0.148	-5.018	0.001
-0.138	-5.019	-0.001
-0.131	-5.025	-0.002
-0.129	-5.034	-0.002
-0.132	-5.042	-0.000
-0.140	-5.047	0.002
-0.149	-5.047	0.004
-0.156	-5.041	0.005
-0.158	-5.032	0.005
-0.351	-5.101	-0.853
-0.342	-5.097	-0.855
-0.333	-5.098	-0.856
-0.327	-5.104	-0.856
-0.325	-5.113	-0.856
-0.329	-5.122	-0.855
-0.337	-5.126	-0.854
-0.346	-5.125	-0.853
-0.353	-5.119	-0.852
-0.354	-5.110	-0.852
-0.366	-5.121	-1.714
-0.358	-5.117	-1.716
-0.349	-5.118	-1.717
-0.342	-5.124	-1.718
-0.340	-5.133	-1.717
-0.344	-5.141	-1.715
-0.352	-5.146	-1.713
-0.361	-5.145	-1.712
-0.367	-5.138	-1.711
-0.369	-5.129	-1.712
-0.647	-5.283	-2.501
-0.640	-5.278	-2.506
-0.632	-5.278	-2.510
-0.625	-5.284	-2.512
-0.621	-5.292	-2.511
-0.623	-5.300	-2.507
-0.630	-5.305	-2.502
-0.638	-5.305	-2.498
-0.645	-5.300	-2.497
-0.649	-5.291	-2.498
-0.892	-5.460	-2.881
-0.887	-5.455	-2.887
-0.879	-5.455	-2.892
-0.871	-5.460	-2.895
-0.867	-5.468	-2.894
-0.868	-5.476	-2.889
-0.873	-5.482	-2.884
-0.881	-5.482	-2.879
-0.888	-5.477	-2.876
-0.892	-5.469	-2.877
-0.271	-5.105	0.000
-0.267	-5.098	0.004
-0.268	-5.089	0.005
-0.274	-5.082	0.004
-0.283	-5.079	0.000
-0.290	-5.082	-0.004
-0.294	-5.090	-0.008
-0.293	-5.099	-0.009
-0.287	-5.106	-0.008
-0.279	-5.109	-0.004
-0.648	-5.280	0.741
-0.645	-5.273	0.746
-0.647	-5.264	0.748
-0.652	-5.257	0.747
-0.660	-5.254	0.742
-0.666	-5.256	0.735
-0.668	-5.263	0.730
-0.667	-5.272	0.728
-0.661	-5.279	0.729
-0.654	-5.282	0.734
-1.294	-5.626	1.187
-1.292	-5.620	1.193
-1.295	-5.611	1.197
-1.301	-5.604	1.196
-1.308	-5.601	1.190
-1.313	-5.603	1.183
-1.315	-5.609	1.176
-1.312	-5.617	1.173
-1.306	-5.624	1.174
-1.299	-5.628	1.179
-1.700	-6.008	1.661
-1.698	-6.002	1.667
-1.701	-5.994	1.671
-1.707	-5.988	1.671
-1.715	-5.985	1.667
-1.721	-5.987	1.660
-1.723	-5.993	1.653
-1.720	-6.001	1.649
-1.714	-6.007	1.649
-1.706	-6.010	1.654
-1.231	-6.037	-0.053
-1.232	-6.029	-0.048
-1.233	-6.020	-0.049
-1.233	-6.013	-0.055
-1.234	-6.011	-0.064
-1.234	-6.014	-0.072
-1.233	-6.022	-0.077
-1.232	-6.032	-0.076
-1.231	-6.039	-0.070
-1.231	-6.041	-0.061
-2.088	-6.115	-0.033
-2.088	-6.107	-0.027
-2.089	-6.098	-0.028
-2.091	-6.091	-0.034
-2.092	-6.089	-0.043
-2.093	-6.092	-0.051
-2.093	-6.100	-0.056
-2.092	-6.109	-0.056
-2.091	-6.116	-0.050
-2.089	-6.119	-0.041
-2.942	-6.188	0.167
-2.942	-6.181	0.172
-2.943	-6.171	0.173
-2.946	-6.164	0.168
-2.949	-6.161	0.160
-2.952	-6.164	0.151
-2.953	-6.171	0.146
-2.951	-6.180	0.145
-2.948	-6.188	0.150
-2.945	-6.191	0.158
-3.328	-6.277	0.357
-3.327	-6.270	0.363
-3.328	-6.260	0.364
-3.332	-6.253	0.361
-3.336	-6.250	0.353
-3.340	-6.252	0.345
-3.341	-6.259	0.339
-3.340	-6.268	0.338
-3.336	-6.276	0.342
-3.332	-6.279	0.349
-3.659	-19.149	-0.265
-3.651	-19.147	-0.260
-3.645	-19.150	-0.254
-3.643	-19.157	-0.249
-3.645	-19.166	-0.247
-3.650	-19.173	-0.249
-3.658	-19.176	-0.255
-3.664	-19.173	-0.261
-3.666	-19.165	-0.266
-3.664	-19.156	-0.267
-3.418	-19.254	-0.554
-3.419	-19.253	-0.545
-3.417	-19.258	-0.537
-3.413	-19.265	-0.533
-3.409	-19.273	-0.535
-3.406	-19.279	-0.542
-3.406	-19.280	-0.551
-3.408	-19.275	-0.559
-3.412	-19.268	-0.563
-3.416	-19.260	-0.561
-3.650	-19.309	-0.273
-3.649	-19.302	-0.268
-3.653	-19.298	-0.260
-3.659	-19.299	-0.253
-3.665	-19.305	-0.249
-3.669	-19.313	-0.251
-3.670	-19.320	-0.256
-3.667	-19.324	-0.264
-3.661	-19.323	-0.271
-3.654	-19.317	-0.274
-3.367	-19.493	-0.058
-3.367	-19.485	-0.053
-3.370	-19.481	-0.045
-3.376	-19.482	-0.038
-3.382	-19.488	-0.034
-3.387	-19.496	-0.036
-3.387	-19.504	-0.041
-3.384	-19.508	-0.049
-3.378	-19.507	-0.056
-3.372	-19.501	-0.059
-3.677	-19.457	-0.258
-3.674	-19.449	-0.262
-3.667	-19.446	-0.268
-3.660	-19.448	-0.273
-3.654	-19.456	-0.276
-3.653	-19.465	-0.275
-3.656	-19.472	-0.271
-3.662	-19.476	-0.265
-3.670	-19.473	-0.260
-3.675	-19.466	-0.257
-3.873	-19.533	-0.531
-3.873	-19.524	-0.527
-3.873	-19.515	-0.528
-3.873	-19.509	-0.535
-3.873	-19.507	-0.544
-3.873	-19.511	-0.552
-3.873	-19.520	-0.556
-3.873	-19.529	-0.555
-3.873	-19.535	-0.548
-3.873	-19.537	-0.539
-3.662	-19.623	-0.262
-3.661	-19.616	-0.257
-3.661	-19.606	-0.256
-3.664	-19.599	-0.261
-3.668	-19.596	-0.269
-3.671	-19.599	-0.277
-3.673	-19.606	-0.282
-3.672	-19.615	-0.283
-3.669	-19.623	-0.278
-3.666	-19.626	-0.270
-3.871	-19.643	-0.170
-3.869	-19.636	-0.165
-3.870	-19.627	-0.165
-3.872	-19.619	-0.169
-3.876	-19.616	-0.177
-3.880	-19.619	-0.185
-3.881	-19.627	-0.191
-3.880	-19.636	-0.191
-3.878	-19.643	-0.186
-3.874	-19.646	-0.178
-3.669	-19.750	-0.283
-3.665	-19.747	-0.275
-3.662	-19.749	-0.266
-3.661	-19.755	-0.260
-3.664	-19.764	-0.258
-3.668	-19.772	-0.262
-3.672	-19.775	-0.269
-3.674	-19.773	-0.278
-3.675	-19.766	-0.284
-3.673	-19.758	-0.286
-3.444	-19.824	-0.371
-3.440	-19.820	-0.363
-3.438	-19.822	-0.354
-3.437	-19.829	-0.348
-3.439	-19.838	-0.346
-3.443	-19.845	-0.350
-3.447	-19.849	-0.357
-3.450	-19.847	-0.366
-3.451	-19.840	-0.373
-3.448	-19.831	-0.374
-3.677	-19.899	-0.280
-3.668	-19.896	-0.278
-3.660	-19.899	-0.275
-3.655	-19.907	-0.273
-3.655	-19.916	-0.271
-3.661	-19.923	-0.271
-3.670	-19.925	-0.273
-3.678	-19.922	-0.276
-3.683	-19.915	-0.278
-3.682	-19.906	-0.280
-3.619	-19.944	-0.504
-3.610	-19.941	-0.502
-3.602	-19.944	-0.499
-3.597	-19.952	-0.497
-3.597	-19.961	-0.495
-3.603	-19.968	-0.495
-3.612	-19.971	-0.497
-3.620	-19.968	-0.500
-3.625	-19.960	-0.502
-3.624	-19.951	-0.504
-3.674	-20.048	-0.287
-3.665	-20.046	-0.285
-3.657	-20.049	-0.283
-3.652	-20.057	-0.280
-3.653	-20.066	-0.278
-3.659	-20.073	-0.278
-3.668	-20.075	-0.279
-3.676	-20.072	-0.282
-3.681	-20.065	-0.285
-3.680	-20.056	-0.287
-3.627	-20.092	-0.476
-3.619	-20.089	-0.475
-3.610	-20.092	-0.472
-3.606	-20.100	-0.469
-3.606	-20.109	-0.467
-3.612	-20.116	-0.467
-3.621	-20.118	-0.469
-3.629	-20.115	-0.471
-3.634	-20.108	-0.474
-3.633	-20.099	-0.476
-3.670	-20.198	-0.296
-3.662	-20.196	-0.292
-3.654	-20.199	-0.287
-3.651	-20.207	-0.283
-3.652	-20.216	-0.281
-3.658	-20.223	-0.283
-3.666	-20.225	-0.287
-3.674	-20.222	-0.292
-3.677	-20.214	-0.296
-3.676	-20.205	-0.297
-3.565	-20.250	-0.485
-3.557	-20.247	-0.481
-3.550	-20.250	-0.476
-3.546	-20.258	-0.472
-3.548	-20.267	-0.470
-3.554	-20.274	-0.472
-3.562	-20.276	-0.475
-3.569	-20.273	-0.480
-3.573	-20.266	-0.484
-3.571	-20.257	-0.486
-3.654	-20.355	-0.309
-3.654	-20.348	-0.302
-3.656	-20.346	-0.294
-3.661	-20.350	-0.286
-3.665	-20.357	-0.283
-3.668	-20.365	-0.285
-3.668	-20.372	-0.291
-3.666	-20.374	-0.300
-3.662	-20.371	-0.307
-3.657	-20.363	-0.311
-3.522	-20.414	-0.240
-3.514	-20.410	-0.240
-3.505	-20.412	-0.240
-3.498	-20.418	-0.240
-3.497	-20.427	-0.240
-3.501	-20.436	-0.240
-3.509	-20.440	-0.240
-3.518	-20.438	-0.240
-3.525	-20.432	-0.240
-3.526	-20.423	-0.240
-3.664	-20.498	-0.312
-3.655	-20.496	-0.309
-3.647	-20.500	-0.305
-3.644	-20.507	-0.301
-3.646	-20.516	-0.298
-3.653	-20.522	-0.298
-3.661	-20.524	-0.301
-3.669	-20.520	-0.305
-3.672	-20.513	-0.309
-3.670	-20.504	-0.312
-3.599	-20.563	-0.449
-3.595	-20.563	-0.441
-3.596	-20.563	-0.432
-3.603	-20.563	-0.425
-3.612	-20.563	-0.424
-3.620	-20.563	-0.428
-3.624	-20.563	-0.436
-3.623	-20.563	-0.445
-3.616	-20.563	-0.452
-3.607	-20.563	-0.453
-1.315	-6.161	-0.054
-1.316	-6.153	-0.050
-1.316	-6.144	-0.051
-1.316	-6.137	-0.058
-1.316	-6.136	-0.067
-1.316	-6.140	-0.075
-1.315	-6.148	-0.080
-1.315	-6.157	-0.078
-1.315	-6.164	-0.072
-1.315	-6.165	-0.062
-2.147	-6.196	-0.079
-2.148	-6.188	-0.074
-2.149	-6.179	-0.075
-2.150	-6.172	-0.081
-2.150	-6.170	-0.090
-2.149	-6.174	-0.099
-2.148	-6.181	-0.104
-2.147	-6.191	-0.103
-2.146	-6.197	-0.096
-2.146	-6.199	-0.087
-3.008	-6.391	-0.126
-3.011	-6.384	-0.120
-3.014	-6.375	-0.121
-3.016	-6.368	-0.126
-3.015	-6.365	-0.135
-3.013	-6.368	-0.144
-3.010	-6.375	-0.149
-3.008	-6.384	-0.149
-3.006	-6.391	-0.143
-3.006	-6.394	-0.134
-3.808	-6.719	-0.298
-3.812	-6.714	-0.292
-3.817	-6.706	-0.291
-3.820	-6.698	-0.295
-3.820	-6.694	-0.303
-3.817	-6.695	-0.312
-3.813	-6.700	-0.318
-3.808	-6.708	-0.319
-3.805	-6.716	-0.315
-3.805	-6.720	-0.307
-3.860	-6.757	-0.315
-3.865	-6.754	-0.308
-3.870	-6.747	-0.306
-3.875	-6.739	-0.309
-3.876	-6.734	-0.316
-3.874	-6.733	-0.325
-3.870	-6.737	-0.332
-3.864	-6.744	-0.335
-3.860	-6.751	-0.332
-3.858	-6.757	-0.324
-3.651	-20.652	-0.325
-3.651	-20.646	-0.318
-3.653	-20.645	-0.309
-3.656	-20.650	-0.302
-3.658	-20.659	-0.299
-3.659	-20.667	-0.301
-3.659	-20.673	-0.308
-3.657	-20.674	-0.317
-3.654	-20.669	-0.325
-3.652	-20.661	-0.328
-3.525	-20.679	-0.297
-3.525	-20.673	-0.290
-3.527	-20.673	-0.281
-3.530	-20.677	-0.274
-3.532	-20.686	-0.271
-3.534	-20.695	-0.273
-3.533	-20.700	-0.280
-3.531	-20.701	-0.289
-3.529	-20.696	-0.297
-3.526	-20.688	-0.300
-3.637	-20.813	-0.327
-3.637	-20.804	-0.324
-3.641	-20.797	-0.319
-3.648	-20.795	-0.314
-3.656	-20.799	-0.311
-3.661	-20.806	-0.310
-3.662	-20.815	-0.313
-3.658	-20.822	-0.318
-3.651	-20.824	-0.323
-3.643	-20.820	-0.326
-3.579	-20.848	-0.232
-3.578	-20.839	-0.229
-3.582	-20.832	-0.224
-3.590	-20.830	-0.219
-3.597	-20.833	-0.215
-3.603	-20.841	-0.215
-3.604	-20.850	-0.218
-3.600	-20.857	-0.223
-3.592	-20.859	-0.228
-3.584	-20.855	-0.231
-3.636	-20.971	-0.318
-3.634	-20.964	-0.312
-3.635	-20.955	-0.311
-3.640	-20.948	-0.314
-3.645	-20.945	-0.321
-3.650	-20.947	-0.328
-3.652	-20.954	-0.334
-3.650	-20.963	-0.335
-3.646	-20.971	-0.332
-3.641	-20.974	-0.325
-3.695	-20.986	-0.277
-3.693	-20.979	-0.271
-3.694	-20.970	-0.270
-3.699	-20.962	-0.273
-3.704	-20.959	-0.280
-3.709	-20.962	-0.288
-3.711	-20.969	-0.293
-3.710	-20.978	-0.295
-3.705	-20.985	-0.291
-3.700	-20.989	-0.284
-3.627	-21.121	-0.326
-3.624	-21.113	-0.321
-3.626	-21.105	-0.318
-3.632	-21.097	-0.320
-3.639	-21.095	-0.324
-3.646	-21.097	-0.331
-3.649	-21.105	-0.336
-3.647	-21.113	-0.338
-3.641	-21.121	-0.336
-3.634	-21.123	-0.332
-3.660	-21.138	-0.283
-3.657	-21.130	-0.278
[...]
         <CellData>
           <DataArray type="Float32" Name="combinedRootClassID" NumberOfComponents="1" format="ascii">
 -1.300e+01 -1.300e+01 -1.300e+01 -1.300e+01 -1.300e+01 -1.300e+01 -1.300e+01 -1.300e+01 -1.300e+01 -1.300e+01 -1.300e+01 -1.300e+01 -1.300e+01 -1.300e+01 -1.300e+01 -1.300e+01 -1.300e+01 -1.300e+01 -1.300e+01 -1.300e+01 -1.300e+01 -1.300e+01 -1.300e+01 -1.300e+01 -1.300e+01 -1.300e+01 -1.300e+01 -1.300e+01 -1.300e+01 -1.300e+01 -1.300e+01 -1.300e+01 -1.300e+01 -1.300e+01 -1.300e+01 -1.300e+01 -1.300e+01 -1.300e+01 -1.300e+01 -1.300e+01 -1.300e+01 -1.300e+01 -1.300e+01 -1.300e+01 -1.300e+01 -1.300e+01 -1.300e+01 -1.300e+01 -1.300e+01 -1.300e+01 -1.300e+01 -1.300e+01 -1.300e+01 -1.300e+01 -1.300e+01 -1.300e+01 -1.300e+01 -1.300e+01 -1.300e+01 -1.300e+01 -1.300e+01 -1.300e+01 -1.300e+01 -1.300e+01 -1.300e+01 -1.300e+01 -1.300e+01 -1.300e+01 -1.300e+01 -1.300e+01 -1.300e+01 -1.300e+01 -1.300e+01 -1.300e+01 -1.300e+01 -1.300e+01 -1.300e+01 -1.300e+01 -1.300e+01 -1.300e+01 -1.300e+01 -1.300e+01 -1.300e+01 -1.300e+01 -1.300e+01 -1.300e+01 -1.300e+01 -1.300e+01 -1.300e+01 -1.300e+01 -1.300e+01 -1.300e+01 -1.300e+01 -1.300e+01 -1.300e+01 -1.300e+01 -1.300e+01 -1.300e+01 -1.300e+01 -1.300e+01 -1.300e+01 -1.300e+01 -1.300e+01 -1.300e+01 -1.300e+01 -1.300e+01 -1.300e+01 -1.300e+01 -1.300e+01 -1.300e+01 -1.300e+01 -1.300e+01 -1.300e+01 -1.300e+01 -1.300e+01 -1.300e+01 -1.300e+01 -1.300e+01 -1.300e+01 -1.300e+01 -1.300e+01 -1.300e+01 -1.300e+01 -1.300e+01 -1.300e+01 -1.300e+01 -1.300e+01 -1.300e+01 -1.300e+01 -1.300e+01 -1.300e+01 -1.300e+01 -1.300e+01 -1.300e+01 -1.300e+01 -1.300e+01 -1.300e+01 -1.300e+01 -1.300e+01 -1.300e+01 -1.300e+01 -1.300e+01 -1.300e+01 -1.300e+01 -1.300e+01 -1.300e+01 -1.300e+01 -1.300e+01 -1.300e+01 -1.300e+01 -1.300e+01 -1.300e+01 -1.300e+01 -1.300e+01 -1.300e+01 -1.300e+01 -1.300e+01 -1.300e+01 -1.300e+01 -1.300e+01 -1.300e+01 -1.300e+01 -1.300e+01 -1.300e+01 -1.300e+01 -1.300e+01 -1.300e+01 -1.300e+01 -1.300e+01 -1.300e+01 -1.300e+01 -1.300e+01 -1.300e+01 -1.300e+01 -1.300e+01 -1.300e+01 -1.300e+01 -1.300e+01 -1.300e+01 -1.300e+01 -1.300e+01 -1.300e+01 -1.300e+01 -1.300e+01 -1.300e+01 -1.300e+01 -1.300e+01 -1.300e+01 -1.300e+01 -1.300e+01 -1.300e+01 -1.300e+01 -1.300e+01 -1.300e+01 -1.300e+01 -1.300e+01 -1.300e+01 -1.300e+01 -1.300e+01 -1.300e+01 -1.300e+01 -1.300e+01 -1.300e+01 -1.300e+01 -1.300e+01 -1.300e+01 -1.300e+01 -1.300e+01 -1.300e+01 -1.300e+01 -1.300e+01 -1.300e+01 -1.300e+01 -1.300e+01 -1.300e+01 -1.300e+01 -1.300e+01 -1.300e+01 -1.300e+01 -1.300e+01 -1.300e+01 -1.300e+01 -1.300e+01 -1.300e+01 -1.300e+01 -1.300e+01 -1.300e+01 -1.300e+01 -1.300e+01 -1.300e+01 -1.300e+01 -1.300e+01 -1.300e+01 -1.300e+01 -5.000e+00 -5.000e+00 -5.000e+00 -5.000e+00 -5.000e+00 -5.000e+00 -5.000e+00 -5.000e+00 -5.000e+00 -5.000e+00 -5.000e+00 -5.000e+00 -5.000e+00 -5.000e+00 -5.000e+00 -5.000e+00 -5.000e+00 -5.000e+00 -5.000e+00 -5.000e+00 -5.000e+00 -5.000e+00 -5.000e+00 -5.000e+00 -5.000e+00 -5.000e+00 -5.000e+00 -5.000e+00 -5.000e+00 -5.000e+00 -5.000e+00 -5.000e+00 -5.000e+00 -1.300e+01 -1.300e+01 -1.300e+01 -1.300e+01 -1.300e+01 -1.300e+01 -1.300e+01 -1.300e+01 -1.300e+01 -1.300e+01 -1.300e+01 -1.300e+01 -1.300e+01 -1.300e+01 -1.300e+01 -1.300e+01 -1.300e+01 -1.300e+01 -1.300e+01 -1.300e+01 -1.300e+01 -1.300e+01 -1.300e+01 -1.300e+01 -1.300e+01 -1.300e+01 -1.300e+01 -1.300e+01 -1.300e+01 -1.300e+01 -1.300e+01 -1.300e+01 -1.300e+01 -1.300e+01 -1.300e+01 -1.300e+01 -1.300e+01 -1.300e+01 -1.300e+01 -1.300e+01 -1.300e+01 -1.300e+01 -1.300e+01 -1.300e+01 -1.300e+01 -1.300e+01 -1.300e+01 -1.300e+01 -1.300e+01 -1.300e+01 -1.300e+01 -1.300e+01 -1.300e+01 -1.300e+01 -1.300e+01 -1.300e+01 -1.300e+01 -1.300e+01 -1.300e+01 -1.300e+01 -1.300e+01 -1.300e+01 -1.300e+01 -1.300e+01 -1.300e+01 -1.300e+01 -1.300e+01 -1.300e+01 -1.300e+01 -1.300e+01 -1.300e+01 -1.300e+01 -1.300e+01 -1.300e+01 -1.300e+01 -1.300e+01 -1.300e+01 -1.300e+01 -1.300e+01 -1.300e+01 -1.300e+01 -1.300e+01 -1.300e+01 -1.300e+01 -1.300e+01 -1.300e+01 -1.300e+01 -1.300e+01 -1.300e+01 -1.300e+01 -1.300e+01 -1.300e+01 -1.300e+01 -1.300e+01 -1.300e+01 -1.300e+01 -1.300e+01 -1.300e+01 -1.300e+01 -1.300e+01 -1.300e+01 -1.300e+01 -1.300e+01 -1.300e+01 -1.300e+01 -1.300e+01 -1.300e+01 -1.300e+01 -1.300e+01 -1.300e+01 -1.300e+01 -1.300e+01 -1.300e+01 -1.300e+01 -1.300e+01 -1.300e+01 -1.300e+01 -1.300e+01 -1.300e+01 -1.300e+01 -1.300e+01 -1.300e+01 -1.300e+01 -1.300e+01 -1.300e+01 -1.300e+01 -1.300e+01 -1.300e+01 -1.300e+01 -1.300e+01 -1.300e+01 -1.300e+01 -1.300e+01 -1.300e+01 -1.300e+01 -1.300e+01 -1.300e+01 -1.300e+01 -1.300e+01 -1.300e+01 -1.300e+01 -1.300e+01 -1.300e+01 -1.300e+01 -1.300e+01 -1.300e+01 -1.300e+01 -1.300e+01 -1.300e+01 -1.300e+01 -1.300e+01 -1.300e+01 -1.300e+01 -1.300e+01 -1.300e+01 -1.300e+01 -1.300e+01 -1.300e+01 -1.300e+01 -1.300e+01 -1.300e+01 -1.300e+01 -1.300e+01 -1.300e+01 -1.300e+01 -1.300e+01 -1.300e+01 -1.300e+01 -1.300e+01 -1.300e+01 -1.300e+01 -1.300e+01 -1.300e+01 -1.300e+01 -1.300e+01 -1.300e+01 -1.300e+01 -1.300e+01 -1.300e+01 -1.300e+01 -1.300e+01 -1.300e+01 -1.300e+01 -1.300e+01 -1.300e+01 -1.300e+01 -1.300e+01 -1.300e+01 -1.300e+01 -1.300e+01 -1.300e+01 -1.300e+01 -1.300e+01 -1.300e+01 -1.300e+01 -1.300e+01 -1.300e+01 -1.300e+01 -1.300e+01 -1.300e+01 -1.300e+01 -1.300e+01 -1.300e+01 -1.300e+01 -1.300e+01 -1.300e+01 -1.300e+01 -1.300e+01 -1.300e+01 -1.300e+01 -1.300e+01 -1.300e+01 -1.300e+01 -1.300e+01 -1.300e+01 -1.300e+01 -1.300e+01 -1.300e+01 -1.300e+01 -1.300e+01 -1.300e+01 -1.300e+01 -1.300e+01 -1.300e+01 -1.300e+01 -1.300e+01 -1.300e+01 -1.300e+01 -1.300e+01 -1.300e+01 -1.300e+01 -1.300e+01 -1.300e+01 -1.300e+01 -1.300e+01 -5.000e+00 -5.000e+00 -5.000e+00 -5.000e+00 -5.000e+00 -5.000e+00 -5.000e+00 -5.000e+00 -5.000e+00 -5.000e+00 -5.000e+00 -5.000e+00 -5.000e+00 -5.000e+00 -5.000e+00 -5.000e+00 -5.000e+00 -5.000e+00 -5.000e+00 -5.000e+00 -5.000e+00 -5.000e+00 -5.000e+00 -5.000e+00 -5.000e+00 -5.000e+00 -5.000e+00 -5.000e+00 -5.000e+00 -5.000e+00 -5.000e+00 -5.000e+00 -5.000e+00 -1.300e+01 -1.300e+01 -1.300e+01 -1.300e+01 -1.300e+01 -1.300e+01 -1.300e+01 -1.300e+01 -1.300e+01 -1.300e+01 -1.300e+01 -1.300e+01 -1.300e+01 -1.300e+01 -1.300e+01 -1.300e+01 -1.300e+01 -1.300e+01 -1.300e+01 -1.300e+01 -1.300e+01 -1.300e+01 -1.300e+01 -1.300e+01 -1.300e+01 -1.300e+01 -1.300e+01 -1.300e+01 -1.300e+01 -1.300e+01 -1.300e+01 -1.300e+01 -1.300e+01 -1.300e+01 -1.300e+01 -1.300e+01 -1.300e+01 -1.300e+01 -1.300e+01 -1.300e+01 -1.300e+01 -1.300e+01 -1.300e+01 -1.300e+01 -1.300e+01 -1.300e+01 -1.300e+01 -1.300e+01 -1.300e+01 -1.300e+01 -1.300e+01 -1.300e+01 -1.300e+01 -1.300e+01 -1.300e+01 -1.300e+01 -1.300e+01 -1.300e+01 -1.300e+01 -1.300e+01 -1.300e+01 -1.300e+01 -1.300e+01 -1.300e+01 -1.300e+01 -1.300e+01 -1.300e+01 -1.300e+01 -1.300e+01 -1.300e+01 -1.300e+01 -1.300e+01 -1.300e+01 -1.300e+01 -1.300e+01 -1.300e+01 -1.300e+01 -1.300e+01 -1.300e+01 -1.300e+01 -1.300e+01 -1.300e+01 -1.300e+01 -1.300e+01 -1.300e+01 -1.300e+01 -1.300e+01 -1.300e+01 -1.300e+01 -1.300e+01 -1.300e+01 -1.300e+01 -1.300e+01 -1.300e+01 -1.300e+01 -1.300e+01 -1.300e+01 -1.300e+01 -1.300e+01 -1.300e+01 -1.300e+01 -1.300e+01 -1.300e+01 -1.300e+01 -1.300e+01 -1.300e+01 -1.300e+01 -1.300e+01 -1.300e+01 -1.300e+01 -1.300e+01 -1.300e+01 -1.300e+01 -1.300e+01 -1.300e+01 -1.300e+01 -1.300e+01 -1.300e+01 -1.300e+01 -1.300e+01 -1.300e+01 -1.300e+01 -1.300e+01 -1.300e+01 -1.300e+01 -1.300e+01 -1.300e+01 -1.300e+01 -1.300e+01 -1.300e+01 -1.300e+01 -1.300e+01 -1.300e+01 -1.300e+01 -1.300e+01 -1.300e+01 -1.300e+01 -1.300e+01 -1.300e+01 -1.300e+01 -1.300e+01 -1.300e+01 -1.300e+01 -1.300e+01 -1.300e+01 -1.300e+01 -1.300e+01 -1.300e+01 -1.300e+01 -1.300e+01 -1.300e+01 -1.300e+01 -1.300e+01 -1.300e+01 -1.300e+01 -1.300e+01 -1.300e+01 -1.300e+01 -1.300e+01 -1.300e+01 -1.300e+01 -1.300e+01 -1.300e+01 -1.300e+01 -1.300e+01 -1.300e+01 -1.300e+01 -1.300e+01 -1.300e+01 -1.300e+01 -1.300e+01 -1.300e+01 -1.300e+01 -1.300e+01 -1.300e+01 -1.300e+01 -1.300e+01 -1.300e+01 -1.300e+01 -1.300e+01 -1.300e+01 -1.300e+01 -1.300e+01 -1.300e+01 -1.300e+01 -1.300e+01 -1.300e+01 -1.300e+01 -1.300e+01 -1.300e+01 -1.300e+01 -1.300e+01 -1.300e+01 -1.300e+01 -1.300e+01 -1.300e+01 -1.300e+01 -1.300e+01 -1.300e+01 -1.300e+01 -1.300e+01 -1.300e+01 -1.300e+01 -1.300e+01 -1.300e+01 -1.300e+01 -1.300e+01 -1.300e+01 -1.300e+01 -1.300e+01 -1.300e+01 -1.300e+01 -1.300e+01 -1.300e+01 -1.300e+01 -1.300e+01 -1.300e+01 -1.300e+01 -1.300e+01 -1.300e+01 -1.300e+01 -1.300e+01 -1.300e+01 -1.300e+01 -1.300e+01 -1.300e+01 -1.300e+01 -1.300e+01 -1.300e+01 -1.300e+01 -1.300e+01 -1.300e+01 -1.300e+01 -1.300e+01 -1.300e+01 -1.300e+01 -1.300e+01 -1.300e+01 -1.300e+01 -1.300e+01 -1.300e+01 -5.000e+00 -5.000e+00 -5.000e+00 -5.000e+00 -5.000e+00 -5.000e+00 -5.000e+00 -5.000e+00 -5.000e+00 -5.000e+00 -5.000e+00 -5.000e+00 -5.000e+00 -5.000e+00 -5.000e+00 -5.000e+00 -5.000e+00 -5.000e+00 -5.000e+00 -5.000e+00 -5.000e+00 -5.000e+00 -5.000e+00 -5.000e+00 -5.000e+00 -5.000e+00 -5.000e+00 -5.000e+00 -5.000e+00 -5.000e+00 -5.000e+00 -5.000e+00 -5.000e+00 -1.300e+01 -1.300e+01 -1.300e+01 -1.300e+01 -1.300e+01 -1.300e+01 -1.300e+01 -1.300e+01 -1.300e+01 -1.300e+01 -1.300e+01 -1.300e+01 -1.300e+01 -1.300e+01 -1.300e+01 -1.300e+01 -1.300e+01 -1.300e+01 -1.300e+01 -1.300e+01 -1.300e+01 -1.300e+01 -1.300e+01 -1.300e+01 -1.300e+01 -1.300e+01 -1.300e+01 -1.300e+01 -1.300e+01 -1.300e+01 -1.300e+01 -1.300e+01 -1.300e+01 -1.300e+01 -1.300e+01 -1.300e+01 -1.300e+01 -1.300e+01 -1.300e+01 -1.300e+01 -1.300e+01 -1.300e+01 -1.300e+01 -1.300e+01 -1.300e+01 -1.300e+01 -1.300e+01 -1.300e+01 -1.300e+01 -1.300e+01 -1.300e+01 -1.300e+01 -1.300e+01 -1.300e+01 -1.300e+01 -1.300e+01 -1.300e+01 -1.300e+01 -1.300e+01 -1.300e+01 -1.300e+01 -1.300e+01 -1.300e+01 -1.300e+01 -1.300e+01 -1.300e+01 -1.300e+01 -1.300e+01 -1.300e+01 -1.300e+01 -1.300e+01 -1.300e+01 -1.300e+01 -1.300e+01 -1.300e+01 -1.300e+01 -1.300e+01 -1.300e+01 -1.300e+01 -1.300e+01 -1.300e+01 -1.300e+01 -1.300e+01 -1.300e+01 -1.300e+01 -1.300e+01 -1.300e+01 -1.300e+01 -1.300e+01 -1.300e+01 -1.300e+01 -1.300e+01 -1.300e+01 -1.300e+01 -1.300e+01 -1.300e+01 -1.300e+01 -1.300e+01 -1.300e+01 -1.300e+01 -1.300e+01 -1.300e+01 -1.300e+01 -1.300e+01 -1.300e+01 -1.300e+01 -1.300e+01 -1.300e+01 -1.300e+01 -1.300e+01 -1.300e+01 -1.300e+01 -1.300e+01 -1.300e+01 -1.300e+01 -1.300e+01 -1.300e+01 -1.300e+01 -1.300e+01 -1.300e+01 -1.300e+01 -1.300e+01 -1.300e+01 -1.300e+01 -1.300e+01 -1.300e+01 -1.300e+01 -1.300e+01 -1.300e+01 -1.300e+01 -1.300e+01 -1.300e+01 -1.300e+01 -1.300e+01 -1.300e+01 -1.300e+01 -1.300e+01 -1.300e+01 -1.300e+01 -1.300e+01 -1.300e+01 -1.300e+01 -1.300e+01 -1.300e+01 -1.300e+01 -1.300e+01 -1.300e+01 -1.300e+01 -1.300e+01 -1.300e+01 -1.300e+01 -1.300e+01 -1.300e+01 -1.300e+01 -1.300e+01 -1.300e+01 -1.300e+01 -1.300e+01 -1.300e+01 -1.300e+01 -1.300e+01 -1.300e+01 -1.300e+01 -1.300e+01 -1.300e+01 -1.300e+01 -1.300e+01 -1.300e+01 -1.300e+01 -1.300e+01 -1.300e+01 -1.300e+01 -1.300e+01 -1.300e+01 -1.300e+01 -1.300e+01 -1.300e+01 -1.300e+01 -1.300e+01 -1.300e+01 -1.300e+01 -1.300e+01 -1.300e+01 -1.300e+01 -1.300e+01 -1.300e+01 -1.300e+01 -1.300e+01 -1.300e+01 -1.300e+01 -1.300e+01 -1.300e+01 -1.300e+01 -1.300e+01 -1.300e+01 -1.300e+01 -1.300e+01 -1.300e+01 -1.300e+01 -1.300e+01 -1.300e+01 -1.300e+01 -1.300e+01 -1.300e+01 -1.300e+01 -1.300e+01 -1.300e+01 -1.300e+01 -1.300e+01 -1.300e+01 -1.300e+01 -1.300e+01 -1.300e+01 -1.300e+01 -1.300e+01 -1.300e+01 -1.300e+01 -1.300e+01 -1.300e+01 -1.300e+01 -1.300e+01 -1.300e+01 -1.300e+01 -1.300e+01 -1.300e+01 -1.300e+01 -1.300e+01 -1.300e+01 -1.300e+01 -1.300e+01 -1.300e+01 -1.300e+01 -5.000e+00 -5.000e+00 -5.000e+00 -5.000e+00 -5.000e+00 -5.000e+00 -5.000e+00 -5.000e+00 -5.000e+00 -5.000e+00 -5.000e+00 -5.000e+00 -5.000e+00 -5.000e+00 -5.000e+00 -5.000e+00 -5.000e+00 -5.000e+00 -5.000e+00 -5.000e+00 -5.000e+00 -5.000e+00 -5.000e+00 -5.000e+00 -5.000e+00 -5.000e+00 -5.000e+00 -5.000e+00 -5.000e+00 -5.000e+00 -5.000e+00 -5.000e+00 -5.000e+00 -1.900e+01 -1.900e+01 -1.900e+01 -1.900e+01 -1.900e+01 -1.900e+01 -1.900e+01 -1.900e+01 -1.900e+01 -1.900e+01 -1.900e+01 -1.900e+01 -1.900e+01 -1.900e+01 -1.900e+01 -1.900e+01 -1.900e+01 -1.900e+01 -1.900e+01 -1.900e+01 -1.900e+01 -1.900e+01 -1.900e+01 -1.900e+01 -1.900e+01 -1.900e+01 -1.900e+01 -1.900e+01 -1.900e+01 -1.900e+01 -1.900e+01 -1.900e+01 -1.900e+01 -1.900e+01 -1.900e+01 -1.900e+01 -1.900e+01 -1.900e+01 -1.900e+01 -1.900e+01 -1.900e+01 -1.900e+01 -1.900e+01 -1.900e+01 -1.900e+01 -1.900e+01 -1.900e+01 -1.900e+01 -1.900e+01 -1.900e+01 -1.900e+01 -1.900e+01 -1.900e+01 -1.900e+01 -1.100e+01 -1.100e+01 -1.100e+01 -1.100e+01 -1.100e+01 -1.100e+01 -1.100e+01 -1.100e+01 -1.100e+01 -1.100e+01 -1.100e+01 -1.100e+01 -1.100e+01 -1.100e+01 -1.100e+01 -1.100e+01 -1.100e+01 -1.100e+01 -1.100e+01 -1.100e+01 -1.100e+01 -1.100e+01 -1.900e+01 -1.900e+01 -1.900e+01 -1.900e+01 -1.900e+01 -1.900e+01 -1.900e+01 -1.900e+01 -1.900e+01 -1.900e+01 -1.900e+01 -1.900e+01 -1.900e+01 -1.900e+01 -1.900e+01 -1.900e+01 -1.900e+01 -1.900e+01 -1.900e+01 -1.900e+01 -1.900e+01 -1.900e+01 -1.900e+01 -1.900e+01 -1.900e+01 -1.900e+01 -1.900e+01 -1.900e+01 -1.900e+01 -1.900e+01 -1.900e+01 -1.900e+01 -1.900e+01 -1.900e+01 -1.900e+01 -1.900e+01 -1.900e+01 -1.900e+01 -1.900e+01 -1.900e+01 -1.900e+01 -1.900e+01 -1.900e+01 -1.900e+01 -1.900e+01 -1.900e+01 -1.900e+01 -1.900e+01 -1.900e+01 -1.900e+01 -1.900e+01 -1.900e+01 -1.900e+01 -1.900e+01 -1.900e+01 -1.900e+01 -1.100e+01 -1.100e+01 -1.100e+01 -1.100e+01 -1.100e+01 -1.100e+01 -1.100e+01 -1.100e+01 -1.100e+01 -1.100e+01 -1.100e+01 -1.100e+01 -1.100e+01 -1.100e+01 -1.100e+01 -1.100e+01 -1.100e+01 -1.100e+01 -1.100e+01 -1.100e+01 -1.100e+01 -1.100e+01 -1.900e+01 -1.900e+01 -1.900e+01 -1.900e+01 -1.900e+01 -1.900e+01 -1.900e+01 -1.900e+01 -1.900e+01 -1.900e+01 -1.900e+01 -1.900e+01 -1.900e+01 -1.900e+01 -1.900e+01 -1.900e+01 -1.900e+01 -1.900e+01 -1.900e+01 -1.900e+01 -1.900e+01 -1.900e+01 -1.900e+01 -1.900e+01 -1.900e+01 -1.900e+01 -1.900e+01 -1.900e+01 -1.900e+01 -1.900e+01 -1.900e+01 -1.900e+01 -1.900e+01 -1.900e+01 -1.900e+01 -1.900e+01 -1.900e+01 -1.900e+01 -1.900e+01 -1.900e+01 -1.900e+01 -1.900e+01 -1.900e+01 -1.900e+01 -1.900e+01 -1.900e+01 -1.900e+01 -1.900e+01 -1.900e+01 -1.900e+01 -1.900e+01 -1.900e+01 -1.900e+01 -1.900e+01 -1.900e+01 -1.900e+01 -1.100e+01 -1.100e+01 -1.100e+01 -1.100e+01 -1.100e+01 -1.100e+01 -1.100e+01 -1.100e+01 -1.100e+01 -1.100e+01 -1.100e+01 -1.100e+01 -1.100e+01 -1.100e+01 -1.100e+01 -1.100e+01 -1.100e+01 -1.100e+01 -1.100e+01 -1.100e+01 -1.100e+01 -1.100e+01 -1.900e+01 -1.900e+01 -1.900e+01 -1.900e+01 -1.900e+01 -1.900e+01 -1.900e+01 -1.900e+01 -1.900e+01 -1.900e+01 -1.900e+01 -1.900e+01 -1.900e+01 -1.900e+01 -1.900e+01 -1.900e+01 -1.900e+01 -1.900e+01 -1.900e+01 -1.900e+01 -1.900e+01 -1.900e+01 -1.900e+01 -1.900e+01 -1.900e+01 -1.900e+01 -1.900e+01 -1.900e+01 -1.900e+01 -1.900e+01 -1.900e+01 -1.900e+01 -1.900e+01 -1.900e+01 -1.900e+01 -1.900e+01 -1.900e+01 -1.900e+01 -1.900e+01 -1.900e+01 -1.900e+01 -1.900e+01 -1.900e+01 -1.900e+01 -1.900e+01 -1.900e+01 -1.900e+01 -1.900e+01 -1.900e+01 -1.900e+01 -1.900e+01 -1.900e+01 -1.900e+01 -1.900e+01 -1.900e+01 -1.900e+01 -1.100e+01 -1.100e+01 -1.100e+01 -1.100e+01 -1.100e+01 -1.100e+01 -1.100e+01 -1.100e+01 -1.100e+01 -1.100e+01 -1.100e+01 -1.100e+01 -1.100e+01 -1.100e+01 -1.100e+01 -1.100e+01 -1.100e+01 -1.100e+01 -1.100e+01 -1.100e+01 -1.100e+01 -1.100e+01 -2.000e+01 -2.000e+01 -2.000e+01 -2.000e+01 -2.000e+01 -2.000e+01 -2.000e+01 -2.000e+01 -2.000e+01 -2.000e+01 -2.000e+01 -2.000e+01 -2.000e+01 -2.000e+01 -2.000e+01 -2.000e+01 -2.000e+01 -2.000e+01 -2.000e+01 -2.000e+01 -2.000e+01 -2.000e+01 -2.000e+01 -2.000e+01 -2.000e+01 -2.000e+01 -2.000e+01 -2.000e+00 -2.000e+00 -2.000e+00 -2.000e+00 -2.000e+00 -2.000e+00 -2.000e+00 -2.000e+00 -2.000e+00 -2.000e+00 -1.500e+01 -1.500e+01 -1.500e+01 -1.500e+01 -7.000e+00 -7.000e+00 -7.000e+00 -7.000e+00 -7.000e+00 -7.000e+00 -7.000e+00 -7.000e+00 -1.500e+01 -1.500e+01 -1.500e+01 -1.500e+01 -7.000e+00 -7.000e+00 -7.000e+00 -7.000e+00 -7.000e+00 -7.000e+00 -7.000e+00 -7.000e+00 -1.500e+01 -1.500e+01 -7.000e+00 -7.000e+00 -7.000e+00 -7.000e+00 -7.000e+00 -7.000e+00 -7.000e+00 -7.000e+00 -7.000e+00 -7.000e+00 -7.000e+00 -7.000e+00 -7.000e+00 -7.000e+00 -7.000e+00 -7.000e+00 -7.000e+00 -7.000e+00 -7.000e+00 -7.000e+00 -7.000e+00 -7.000e+00 -7.000e+00 -7.000e+00 -7.000e+00 -7.000e+00 -7.000e+00 -7.000e+00 -7.000e+00 -7.000e+00 -7.000e+00 -7.000e+00 -7.000e+00 -7.000e+00 -7.000e+00 -7.000e+00 -7.000e+00 -7.000e+00 -7.000e+00 -1.500e+01 -1.500e+01 -1.500e+01 -7.000e+00 -7.000e+00 -7.000e+00 -7.000e+00 -7.000e+00 -7.000e+00 -7.000e+00 -7.000e+00 -7.000e+00 -7.000e+00 -7.000e+00 -7.000e+00 -7.000e+00 -7.000e+00 -7.000e+00 -7.000e+00 -7.000e+00 -7.000e+00 -7.000e+00 -7.000e+00 -7.000e+00 -7.000e+00 -7.000e+00 -7.000e+00 -7.000e+00 -7.000e+00 -7.000e+00 -7.000e+00 -7.000e+00 -7.000e+00 -7.000e+00 -7.000e+00 -7.000e+00 -7.000e+00 -7.000e+00 -7.000e+00 -1.500e+01 -1.500e+01 -1.500e+01 -7.000e+00 -7.000e+00 -7.000e+00 -7.000e+00 -7.000e+00 -7.000e+00 -7.000e+00 -7.000e+00 -7.000e+00 -7.000e+00 -7.000e+00 -7.000e+00 -7.000e+00 -7.000e+00 -7.000e+00 -7.000e+00 -7.000e+00 -7.000e+00 -7.000e+00 -7.000e+00 -7.000e+00 -7.000e+00 -7.000e+00 -7.000e+00 -7.000e+00 -7.000e+00 -7.000e+00 -7.000e+00 -7.000e+00 -7.000e+00 -7.000e+00 -7.000e+00 -7.000e+00 -1.500e+01 -1.500e+01 -1.500e+01 -7.000e+00 -7.000e+00 -7.000e+00 -7.000e+00 -7.000e+00 -7.000e+00 -7.000e+00 -7.000e+00 -7.000e+00 -7.000e+00 -7.000e+00 -7.000e+00 -7.000e+00 -7.000e+00 -7.000e+00 -7.000e+00 -7.000e+00 -7.000e+00 -7.000e+00 -7.000e+00 -7.000e+00 -7.000e+00 -7.000e+00 -7.000e+00 -7.000e+00 -7.000e+00 -7.000e+00 -1.500e+01 -1.500e+01 -1.500e+01 -1.500e+01 -7.000e+00 -7.000e+00 -7.000e+00 -7.000e+00 -7.000e+00 -7.000e+00 -7.000e+00 -7.000e+00 -7.000e+00 -7.000e+00 -7.000e+00 -7.000e+00 -7.000e+00 -7.000e+00 -7.000e+00 -7.000e+00 -7.000e+00 -7.000e+00 -7.000e+00 -7.000e+00 -7.000e+00 -7.000e+00 -7.000e+00 -7.000e+00 -7.000e+00 -7.000e+00 -7.000e+00 -1.500e+01 -1.500e+01 -1.500e+01 -1.500e+01 -7.000e+00 -7.000e+00 -7.000e+00 -7.000e+00 -7.000e+00 -7.000e+00 -7.000e+00 -7.000e+00 -7.000e+00 -7.000e+00 -7.000e+00 -7.000e+00 -7.000e+00 -7.000e+00 -7.000e+00 -7.000e+00 -7.000e+00 -7.000e+00 -7.000e+00 -7.000e+00 -1.500e+01 -1.500e+01 -7.000e+00 -7.000e+00 -7.000e+00 -7.000e+00 -7.000e+00 -7.000e+00 -7.000e+00 -7.000e+00 -7.000e+00 -7.000e+00 -7.000e+00 -7.000e+00 -7.000e+00 -7.000e+00 -7.000e+00 -7.000e+00 -1.500e+01 -1.500e+01 -1.500e+01 -1.500e+01 -7.000e+00 -7.000e+00 -7.000e+00 -7.000e+00 -7.000e+00 -7.000e+00 -7.000e+00 -7.000e+00 -7.000e+00 -7.000e+00 -7.000e+00 -7.000e+00 -7.000e+00 -7.000e+00 -7.000e+00 -7.000e+00 -7.000e+00 -1.500e+01 -1.500e+01 -1.500e+01 -7.000e+00 -7.000e+00 -7.000e+00 -7.000e+00 -7.000e+00 -7.000e+00 -7.000e+00 -7.000e+00 -7.000e+00 -1.500e+01 -1.500e+01 -1.500e+01 -7.000e+00 -7.000e+00 -7.000e+00 -7.000e+00 -7.000e+00 -7.000e+00 -7.000e+00 -1.500e+01 -1.500e+01 -7.000e+00 -7.000e+00 -7.000e+00 -7.000e+00 -7.000e+00 -7.000e+00 -7.000e+00 -1.500e+01 -1.500e+01 -1.500e+01 -7.000e+00 -7.000e+00 -7.000e+00 -7.000e+00 -7.000e+00 -7.000e+00 -7.000e+00 -1.500e+01 -1.500e+01 -7.000e+00 -7.000e+00 -7.000e+00 -7.000e+00 -7.000e+00 -7.000e+00 -1.500e+01 -7.000e+00 -7.000e+00 -7.000e+00 -7.000e+00 -7.000e+00 -7.000e+00 -1.500e+01 -1.500e+01 -1.500e+01 -7.000e+00 -7.000e+00 -7.000e+00 -7.000e+00 -7.000e+00 -7.000e+00 -7.000e+00 -1.500e+01 -7.000e+00 -7.000e+00 -7.000e+00 -7.000e+00 -7.000e+00 -7.000e+00 -1.500e+01 -7.000e+00 -7.000e+00 -7.000e+00 -7.000e+00 -7.000e+00 -7.000e+00 -7.000e+00 -7.000e+00 -7.000e+00 -7.000e+00 -7.000e+00 -1.500e+01 -1.500e+01 -7.000e+00 -7.000e+00 -7.000e+00 -7.000e+00 -7.000e+00 -7.000e+00 -1.500e+01 -7.000e+00 -7.000e+00 -7.000e+00 -7.000e+00 -7.000e+00 -7.000e+00 -1.500e+01 -7.000e+00 -7.000e+00 -7.000e+00 -7.000e+00 -7.000e+00 -7.000e+00 -1.500e+01 -1.500e+01 -7.000e+00 -7.000e+00 -7.000e+00 -7.000e+00 -7.000e+00 -7.000e+00 -1.500e+01 -7.000e+00 -7.000e+00 -7.000e+00 -7.000e+00 -7.000e+00 -7.000e+00