<?xml version="1.0"?>
<VTKFile type="UnstructuredGrid" version="0.1" byte_order="LittleEndian">
   <UnstructuredGrid>
      <Piece NumberOfPoints="2550" NumberOfCells="180">
         <Points>
            <DataArray type="Float32" Name="Position" NumberOfComponents="3" format="ascii">
0.014	-5.018	0.013
0.007	-5.006	0.029
-0.003	-4.988	0.034
-0.012	-4.971	0.026
-0.017	-4.961	0.008
-0.015	-4.962	-0.013
-0.008	-4.974	-0.029
0.002	-4.992	-0.034
0.012	-5.009	-0.026
0.016	-5.019	-0.008
-0.668	-5.398	-0.035
-0.675	-5.392	-0.016
-0.687	-5.378	-0.006
-0.700	-5.362	-0.009
-0.709	-5.350	-0.024
-0.711	-5.346	-0.044
-0.705	-5.353	-0.063
-0.693	-5.367	-0.073
-0.679	-5.383	-0.070
-0.670	-5.395	-0.056
-1.224	-6.069	-0.050
-1.236	-6.062	-0.034
-1.252	-6.050	-0.028
-1.268	-6.039	-0.036
-1.277	-6.032	-0.054
-1.276	-6.033	-0.075
-1.265	-6.040	-0.091
-1.248	-6.052	-0.096
-1.232	-6.063	-0.088
-1.223	-6.070	-0.071
-1.570	-6.657	-0.053
-1.580	-6.652	-0.035
-1.597	-6.642	-0.027
-1.615	-6.633	-0.032
-1.627	-6.627	-0.048
-1.629	-6.626	-0.069
-1.619	-6.631	-0.087
-1.602	-6.640	-0.095
-1.584	-6.649	-0.090
-1.572	-6.656	-0.074
-1.909	-7.381	-0.059
-1.918	-7.377	-0.040
-1.935	-7.370	-0.030
-1.954	-7.363	-0.033
-1.968	-7.357	-0.047
-1.972	-7.355	-0.068
-1.964	-7.359	-0.087
-1.947	-7.366	-0.097
-1.927	-7.374	-0.094
-1.913	-7.379	-0.080
-2.105	-7.946	-0.060
-2.112	-7.943	-0.040
-2.129	-7.938	-0.029
-2.149	-7.931	-0.030
-2.164	-7.926	-0.044
-2.169	-7.925	-0.064
-2.162	-7.927	-0.084
-2.145	-7.933	-0.095
-2.125	-7.939	-0.094
-2.110	-7.944	-0.080
-2.294	-8.569	-0.050
-2.300	-8.567	-0.030
-2.317	-8.562	-0.019
-2.337	-8.556	-0.019
-2.353	-8.552	-0.032
-2.359	-8.550	-0.052
-2.352	-8.552	-0.072
-2.336	-8.557	-0.084
-2.316	-8.563	-0.083
-2.300	-8.567	-0.070
-2.471	-9.249	-0.057
-2.477	-9.248	-0.037
-2.493	-9.244	-0.024
-2.514	-9.239	-0.024
-2.530	-9.235	-0.036
-2.537	-9.233	-0.056
-2.531	-9.235	-0.076
-2.514	-9.239	-0.089
-2.494	-9.243	-0.089
-2.477	-9.248	-0.077
-2.558	-9.610	-0.080
-2.552	-9.612	-0.060
-2.557	-9.610	-0.040
-2.574	-9.607	-0.027
-2.594	-9.602	-0.027
-2.611	-9.598	-0.039
-2.618	-9.597	-0.059
-2.612	-9.598	-0.079
-2.596	-9.601	-0.091
-2.575	-9.606	-0.092
0.026	-5.011	-0.005
0.033	-4.993	0.002
0.028	-4.974	0.009
0.012	-4.961	0.013
-0.009	-4.959	0.011
-0.027	-4.969	0.005
-0.034	-4.987	-0.002
-0.029	-5.006	-0.009
-0.013	-5.019	-0.013
0.008	-5.021	-0.011
-0.050	-5.291	0.725
-0.043	-5.275	0.735
-0.050	-5.257	0.745
-0.066	-5.245	0.750
-0.087	-5.244	0.748
-0.104	-5.253	0.740
-0.111	-5.269	0.729
-0.105	-5.287	0.719
-0.088	-5.299	0.715
-0.067	-5.300	0.717
-0.171	-5.863	1.377
-0.165	-5.850	1.392
-0.172	-5.835	1.406
-0.189	-5.825	1.413
-0.210	-5.823	1.410
-0.226	-5.830	1.399
-0.232	-5.843	1.384
-0.226	-5.858	1.371
-0.209	-5.868	1.364
-0.188	-5.870	1.366
-0.281	-6.390	1.799
-0.275	-6.379	1.816
-0.282	-6.367	1.831
-0.299	-6.358	1.839
-0.320	-6.355	1.836
-0.336	-6.361	1.824
-0.342	-6.371	1.807
-0.335	-6.384	1.792
-0.318	-6.393	1.784
-0.297	-6.396	1.787
-0.418	-7.055	2.225
-0.413	-7.045	2.242
-0.420	-7.034	2.259
-0.437	-7.026	2.268
-0.458	-7.023	2.265
-0.474	-7.027	2.253
-0.480	-7.037	2.235
-0.473	-7.048	2.219
-0.456	-7.056	2.210
-0.435	-7.059	2.212
-0.511	-7.576	2.504
-0.505	-7.567	2.522
-0.512	-7.557	2.539
-0.529	-7.550	2.549
-0.550	-7.547	2.547
-0.567	-7.551	2.535
-0.573	-7.560	2.517
-0.566	-7.570	2.500
-0.549	-7.578	2.490
-0.528	-7.580	2.492
-0.586	-8.151	2.801
-0.580	-8.142	2.819
-0.587	-8.133	2.837
-0.604	-8.126	2.847
-0.625	-8.124	2.846
-0.641	-8.128	2.834
-0.648	-8.137	2.815
-0.641	-8.146	2.798
-0.624	-8.153	2.788
-0.603	-8.155	2.789
-0.642	-8.784	3.101
-0.636	-8.776	3.119
-0.642	-8.768	3.137
-0.659	-8.762	3.148
-0.680	-8.760	3.147
-0.697	-8.764	3.135
-0.703	-8.772	3.117
-0.697	-8.780	3.099
-0.680	-8.786	3.088
-0.659	-8.788	3.089
-0.671	-9.127	3.241
-0.664	-9.120	3.259
-0.670	-9.111	3.278
-0.687	-9.106	3.289
-0.708	-9.104	3.288
-0.725	-9.108	3.276
-0.732	-9.115	3.258
-0.725	-9.123	3.239
-0.709	-9.129	3.228
-0.688	-9.130	3.229
0.008	-4.971	-0.027
0.014	-4.961	-0.010
0.014	-4.961	0.011
0.009	-4.973	0.028
-0.000	-4.991	0.034
-0.009	-5.009	0.027
-0.014	-5.019	0.010
-0.015	-5.019	-0.011
-0.009	-5.007	-0.028
-0.001	-4.989	-0.034
0.720	-5.317	-0.042
0.727	-5.308	-0.025
0.728	-5.308	-0.004
0.722	-5.319	0.013
0.711	-5.336	0.020
0.700	-5.353	0.013
0.693	-5.363	-0.004
0.692	-5.362	-0.025
0.698	-5.351	-0.042
0.709	-5.334	-0.048
1.407	-5.872	-0.102
1.416	-5.864	-0.085
1.418	-5.865	-0.064
1.411	-5.875	-0.047
1.398	-5.890	-0.040
1.383	-5.904	-0.046
1.373	-5.912	-0.063
1.372	-5.911	-0.084
1.379	-5.901	-0.101
1.392	-5.886	-0.108
1.857	-6.386	-0.184
1.867	-6.379	-0.167
1.869	-6.381	-0.146
1.861	-6.390	-0.129
1.846	-6.403	-0.122
1.830	-6.415	-0.128
1.819	-6.422	-0.145
1.817	-6.421	-0.166
1.826	-6.412	-0.183
1.841	-6.399	-0.190
2.344	-7.024	-0.242
2.355	-7.018	-0.225
2.356	-7.019	-0.204
2.347	-7.027	-0.187
2.331	-7.039	-0.180
2.314	-7.049	-0.186
2.302	-7.055	-0.203
2.301	-7.054	-0.224
2.311	-7.046	-0.241
2.327	-7.035	-0.248
2.637	-7.548	-0.291
2.649	-7.544	-0.274
2.650	-7.545	-0.253
2.639	-7.551	-0.236
2.621	-7.561	-0.230
2.603	-7.569	-0.236
2.592	-7.574	-0.253
2.591	-7.573	-0.274
2.602	-7.566	-0.291
2.619	-7.557	-0.297
2.903	-8.146	-0.316
2.914	-8.142	-0.299
2.915	-8.143	-0.278
2.903	-8.149	-0.261
2.885	-8.157	-0.255
2.866	-8.164	-0.262
2.855	-8.168	-0.279
2.855	-8.167	-0.300
2.866	-8.161	-0.317
2.884	-8.154	-0.323
3.147	-8.808	-0.346
3.159	-8.804	-0.329
3.158	-8.805	-0.308
3.147	-8.810	-0.291
3.128	-8.817	-0.285
3.109	-8.823	-0.292
3.097	-8.826	-0.309
3.098	-8.826	-0.330
3.110	-8.821	-0.347
3.128	-8.814	-0.353
3.244	-9.192	-0.306
3.244	-9.174	-0.297
3.244	-9.153	-0.300
3.244	-9.138	-0.315
3.244	-9.135	-0.335
3.244	-9.144	-0.354
3.244	-9.163	-0.364
3.244	-9.184	-0.360
3.244	-9.199	-0.346
3.244	-9.202	-0.325
-0.012	-4.962	-0.016
0.009	-4.962	-0.017
0.026	-4.973	-0.012
0.034	-4.990	-0.002
0.028	-5.007	0.008
0.012	-5.018	0.016
-0.009	-5.018	0.017
-0.027	-5.007	0.012
-0.034	-4.990	0.002
-0.029	-4.973	-0.008
-0.049	-5.368	-0.696
-0.028	-5.372	-0.694
-0.014	-5.385	-0.685
-0.012	-5.401	-0.671
-0.022	-5.414	-0.659
-0.041	-5.420	-0.652
-0.062	-5.415	-0.654
-0.076	-5.403	-0.663
-0.078	-5.387	-0.677
-0.068	-5.374	-0.689
-0.128	-6.058	-1.252
-0.107	-6.058	-1.254
-0.089	-6.066	-1.245
-0.082	-6.078	-1.230
-0.087	-6.089	-1.213
-0.103	-6.096	-1.201
-0.124	-6.095	-1.199
-0.142	-6.088	-1.208
-0.149	-6.076	-1.223
-0.144	-6.064	-1.240
-0.173	-6.641	-1.616
-0.152	-6.642	-1.616
-0.136	-6.650	-1.605
-0.131	-6.660	-1.587
-0.138	-6.669	-1.570
-0.156	-6.674	-1.560
-0.177	-6.673	-1.560
-0.193	-6.665	-1.572
-0.198	-6.655	-1.589
-0.191	-6.646	-1.606
-0.188	-7.354	-1.991
-0.167	-7.356	-1.989
-0.152	-7.362	-1.975
-0.149	-7.371	-1.957
-0.158	-7.379	-1.939
-0.177	-7.383	-1.931
-0.198	-7.381	-1.933
-0.213	-7.374	-1.946
-0.216	-7.365	-1.965
-0.207	-7.357	-1.982
-0.207	-7.911	-2.221
-0.187	-7.913	-2.216
-0.173	-7.919	-2.202
-0.171	-7.926	-2.182
-0.182	-7.933	-2.165
-0.201	-7.935	-2.157
-0.222	-7.933	-2.162
-0.236	-7.928	-2.176
-0.238	-7.920	-2.196
-0.227	-7.914	-2.213
-0.201	-8.531	-2.431
-0.181	-8.532	-2.426
-0.168	-8.537	-2.410
-0.166	-8.543	-2.390
-0.178	-8.549	-2.374
-0.197	-8.551	-2.366
-0.218	-8.550	-2.371
-0.231	-8.545	-2.387
-0.232	-8.539	-2.407
-0.221	-8.533	-2.424
-0.192	-9.205	-2.639
-0.172	-9.206	-2.634
-0.159	-9.210	-2.618
-0.158	-9.216	-2.597
-0.170	-9.221	-2.581
-0.189	-9.223	-2.574
-0.210	-9.222	-2.580
-0.223	-9.218	-2.596
-0.223	-9.212	-2.616
-0.211	-9.207	-2.633
-0.158	-9.567	-2.723
-0.146	-9.571	-2.707
-0.145	-9.576	-2.687
-0.158	-9.581	-2.670
-0.177	-9.583	-2.663
-0.197	-9.582	-2.670
-0.210	-9.578	-2.686
-0.210	-9.573	-2.706
-0.198	-9.569	-2.723
-0.179	-9.566	-2.729
-0.003	-4.727	0.021
-0.008	-4.710	0.033
-0.014	-4.690	0.032
-0.017	-4.673	0.019
-0.018	-4.667	-0.001
-0.015	-4.674	-0.021
-0.010	-4.690	-0.032
-0.004	-4.711	-0.032
-0.001	-4.727	-0.019
-0.000	-4.733	0.001
-0.428	-4.839	-0.003
-0.433	-4.823	0.009
-0.438	-4.803	0.009
-0.442	-4.786	-0.004
-0.442	-4.780	-0.024
-0.440	-4.787	-0.044
-0.435	-4.803	-0.056
-0.429	-4.823	-0.056
-0.426	-4.840	-0.043
-0.425	-4.846	-0.023
0.016	-4.723	-0.003
0.025	-4.704	0.000
0.020	-4.683	0.003
0.005	-4.669	0.005
-0.016	-4.667	0.005
-0.034	-4.678	0.003
-0.043	-4.697	-0.000
-0.038	-4.717	-0.003
-0.023	-4.731	-0.005
-0.002	-4.733	-0.005
0.009	-4.786	0.433
0.017	-4.767	0.435
0.013	-4.746	0.438
-0.003	-4.732	0.440
-0.024	-4.730	0.440
-0.042	-4.741	0.438
-0.050	-4.760	0.435
-0.046	-4.780	0.432
-0.030	-4.794	0.431
-0.010	-4.796	0.431
-0.002	-4.680	-0.027
-0.002	-4.668	-0.009
-0.005	-4.668	0.011
-0.009	-4.681	0.028
-0.013	-4.700	0.034
-0.016	-4.720	0.027
-0.016	-4.732	0.009
-0.013	-4.732	-0.011
-0.009	-4.720	-0.028
-0.005	-4.700	-0.034
0.428	-4.754	0.027
0.428	-4.742	0.044
0.426	-4.742	0.065
0.422	-4.755	0.081
0.417	-4.774	0.087
0.415	-4.794	0.080
0.415	-4.806	0.063
0.418	-4.806	0.042
0.422	-4.793	0.025
0.426	-4.774	0.020
-0.030	-4.674	-0.006
-0.010	-4.667	-0.007
0.010	-4.673	-0.006
0.023	-4.689	-0.002
0.024	-4.710	0.002
0.012	-4.727	0.006
-0.008	-4.733	0.007
-0.028	-4.727	0.006
-0.041	-4.711	0.002
-0.042	-4.691	-0.002
-0.028	-4.767	-0.436
-0.008	-4.760	-0.437
0.012	-4.766	-0.436
0.025	-4.782	-0.432
0.025	-4.803	-0.428
0.013	-4.819	-0.424
-0.006	-4.826	-0.423
-0.027	-4.820	-0.424
-0.039	-4.804	-0.428
-0.040	-4.784	-0.432
-0.150	-5.003	0.153
-0.032	-5.001	0.213
0.099	-4.998	0.191
0.192	-4.997	0.096
0.212	-4.996	-0.036
0.150	-4.997	-0.153
0.032	-4.999	-0.213
-0.099	-5.002	-0.191
-0.192	-5.003	-0.096
-0.212	-5.004	0.036
-0.163	-4.252	0.152
-0.046	-4.250	0.211
0.084	-4.248	0.190
0.176	-4.248	0.096
0.196	-4.248	-0.033
0.136	-4.249	-0.150
0.018	-4.250	-0.209
-0.111	-4.252	-0.188
-0.203	-4.253	-0.095
-0.223	-4.253	0.035
-0.168	-3.560	0.145
-0.052	-3.560	0.205
0.077	-3.560	0.184
0.169	-3.560	0.092
0.190	-3.560	-0.036
0.131	-3.560	-0.153
0.015	-3.561	-0.212
-0.114	-3.561	-0.192
-0.206	-3.561	-0.099
-0.227	-3.560	0.029
-0.163	-2.400	0.146
-0.047	-2.400	0.204
0.080	-2.401	0.184
0.172	-2.401	0.093
0.192	-2.401	-0.035
0.134	-2.401	-0.150
0.019	-2.400	-0.209
[...]
         <CellData>
           <DataArray type="Float32" Name="combinedRootClassID" NumberOfComponents="1" format="ascii">
 -5.000e+00 -5.000e+00 -5.000e+00 -5.000e+00 -5.000e+00 -5.000e+00 -5.000e+00 -5.000e+00 -5.000e+00 -5.000e+00 -5.000e+00 -5.000e+00 -5.000e+00 -5.000e+00 -5.000e+00 -5.000e+00 -5.000e+00 -5.000e+00 -5.000e+00 -5.000e+00 -5.000e+00 -5.000e+00 -5.000e+00 -5.000e+00 -5.000e+00 -5.000e+00 -5.000e+00 -5.000e+00 -5.000e+00 -5.000e+00 -5.000e+00 -5.000e+00 -1.100e+01 -1.100e+01 -1.100e+01 -1.100e+01 -2.000e+00 -2.000e+00 -2.000e+00 -2.000e+00 -2.000e+00 -2.000e+00 -2.000e+00 -2.000e+00 -2.000e+00 -2.000e+00 -7.000e+00 -7.000e+00 -7.000e+00 -7.000e+00 -7.000e+00 -7.000e+00 -7.000e+00 -7.000e+00 -7.000e+00 -7.000e+00 -7.000e+00 -7.000e+00 -7.000e+00 -7.000e+00 -7.000e+00 -7.000e+00 -7.000e+00 -7.000e+00 -7.000e+00 -7.000e+00 -7.000e+00 -7.000e+00 -7.000e+00 -7.000e+00 -7.000e+00 -7.000e+00 -7.000e+00 -7.000e+00 -7.000e+00 -7.000e+00 -7.000e+00 -7.000e+00 -7.000e+00 -7.000e+00 -7.000e+00 -7.000e+00 -7.000e+00 -7.000e+00 -7.000e+00 -7.000e+00 -7.000e+00 -7.000e+00 -7.000e+00 -7.000e+00 -7.000e+00 -7.000e+00 -7.000e+00 -7.000e+00 -7.000e+00 -7.000e+00 -7.000e+00 -7.000e+00 -7.000e+00 -7.000e+00 -7.000e+00 -7.000e+00 -7.000e+00 -7.000e+00 -7.000e+00 -7.000e+00 -7.000e+00 -7.000e+00 -7.000e+00 -7.000e+00 -7.000e+00 -7.000e+00 -7.000e+00 -7.000e+00 -7.000e+00 -7.000e+00 -7.000e+00 -7.000e+00 -7.000e+00 -7.000e+00 -7.000e+00 -7.000e+00 -7.000e+00 -7.000e+00 -7.000e+00 -7.000e+00 -7.000e+00 -7.000e+00 -7.000e+00 -7.000e+00 -7.000e+00 -7.000e+00 -7.000e+00 -7.000e+00 -7.000e+00 -7.000e+00 -7.000e+00 -7.000e+00 -7.000e+00 -7.000e+00 -7.000e+00 -7.000e+00 -7.000e+00 -7.000e+00 -7.000e+00 -7.000e+00 -7.000e+00 -7.000e+00 -7.000e+00 -7.000e+00 -7.000e+00 -7.000e+00 -7.000e+00 -7.000e+00 -9.000e+00 -9.000e+00 -4.000e+00 -4.000e+00 -4.000e+00 -4.000e+00 -4.000e+00 -4.000e+00 -4.000e+00 -4.000e+00 -4.000e+00 -4.000e+00 -4.000e+00 -4.000e+00 -4.000e+00 -4.000e+00 -4.000e+00 -4.000e+00 -4.000e+00 -4.000e+00 -4.000e+00 -4.000e+00 -4.000e+00 -4.000e+00 -4.000e+00 -4.000e+00
           </DataArray>
           <DataArray type="Float32" Name="nitrate/Cmin" NumberOfComponents="1" format="ascii">
 1.000e-03 1.000e-03 1.000e-03 1.000e-03 1.000e-03 1.000e-03 1.000e-03 1.000e-03 1.000e-03 1.000e-03 1.000e-03 1.000e-03 1.000e-03 1.000e-03 1.000e-03 1.000e-03 1.000e-03 1.000e-03 1.000e-03 1.000e-03 1.000e-03 1.000e-03 1.000e-03 1.000e-03 1.000e-03 1.000e-03 1.000e-03 1.000e-03 1.000e-03 1.000e-03 1.000e-03 1.000e-03 1.000e-03 1.000e-03 1.000e-03 1.000e-03 1.000e-03 1.000e-03 1.000e-03 1.000e-03 1.000e-03 1.000e-03 1.000e-03 1.000e-03 1.000e-03 1.000e-03 1.000e-03 1.000e-03 1.000e-03 1.000e-03 1.000e-03 1.000e-03 1.000e-03 1.000e-03 1.000e-03 1.000e-03 1.000e-03 1.000e-03 1.000e-03 1.000e-03 1.000e-03 1.000e-03 1.000e-03 1.000e-03 1.000e-03 1.000e-03 1.000e-03 1.000e-03 1.000e-03 1.000e-03 1.000e-03 1.000e-03 1.000e-03 1.000e-03 1.000e-03 1.000e-03 1.000e-03 1.000e-03 1.000e-03 1.000e-03 1.000e-03 1.000e-03 1.000e-03 1.000e-03 1.000e-03 1.000e-03 1.000e-03 1.000e-03 1.000e-03 1.000e-03 1.000e-03 1.000e-03 1.000e-03 1.000e-03 1.000e-03 1.000e-03 1.000e-03 1.000e-03 1.000e-03 1.000e-03 1.000e-03 1.000e-03 1.000e-03 1.000e-03 1.000e-03 1.000e-03 1.000e-03 1.000e-03 1.000e-03 1.000e-03 1.000e-03 1.000e-03 1.000e-03 1.000e-03 1.000e-03 1.000e-03 1.000e-03 1.000e-03 1.000e-03 1.000e-03 1.000e-03 1.000e-03 1.000e-03 1.000e-03 1.000e-03 1.000e-03 1.000e-03 1.000e-03 1.000e-03 1.000e-03 1.000e-03 1.000e-03 1.000e-03 1.000e-03 1.000e-03 1.000e-03 1.000e-03 1.000e-03 1.000e-03 1.000e-03 1.000e-03 1.000e-03 1.000e-03 1.000e-03 1.000e-03 1.000e-03 1.000e-03 1.000e-03 1.000e-03 1.000e-03 1.000e-03 1.000e-03 1.000e-03 1.000e-03 1.000e-03 1.000e-03 1.000e-03 1.000e-03 1.000e-03 1.000e-03 1.000e-03 1.000e-03 1.000e-03 1.000e-03 1.000e-03 1.000e-03 1.000e-03 1.000e-03 1.000e-03 1.000e-03 1.000e-03 1.000e-03 1.000e-03 1.000e-03 1.000e-03 1.000e-03 1.000e-03 1.000e-03 1.000e-03 1.000e-03
           </DataArray>
           <DataArray type="Float32" Name="nitrate/Imax" NumberOfComponents="1" format="ascii">
 1.900e+00 1.900e+00 1.900e+00 1.900e+00 1.900e+00 1.900e+00 1.900e+00 1.900e+00 1.900e+00 1.900e+00 1.900e+00 1.900e+00 1.900e+00 1.900e+00 1.900e+00 1.900e+00 1.900e+00 1.900e+00 1.900e+00 1.900e+00 1.900e+00 1.900e+00 1.900e+00 1.900e+00 1.900e+00 1.900e+00 1.900e+00 1.900e+00 1.900e+00 1.900e+00 1.900e+00 1.900e+00 1.900e+00 1.900e+00 1.900e+00 1.900e+00 1.900e+00 1.900e+00 1.900e+00 1.900e+00 1.900e+00 1.900e+00 1.900e+00 1.900e+00 1.900e+00 1.900e+00 1.900e+00 1.900e+00 1.900e+00 1.900e+00 1.900e+00 1.900e+00 1.900e+00 1.900e+00 1.900e+00 1.900e+00 1.900e+00 1.900e+00 1.900e+00 1.900e+00 1.900e+00 1.900e+00 1.900e+00 1.900e+00 1.900e+00 1.900e+00 1.900e+00 1.900e+00 1.900e+00 1.900e+00 1.900e+00 1.900e+00 1.900e+00 1.900e+00 1.900e+00 1.900e+00 1.900e+00 1.900e+00 1.900e+00 1.900e+00 1.900e+00 1.900e+00 1.900e+00 1.900e+00 1.900e+00 1.900e+00 1.900e+00 1.900e+00 1.900e+00 1.900e+00 1.900e+00 1.900e+00 1.900e+00 1.900e+00 1.900e+00 1.900e+00 1.900e+00 1.900e+00 1.900e+00 1.900e+00 1.900e+00 1.900e+00 1.900e+00 1.900e+00 1.900e+00 1.900e+00 1.900e+00 1.900e+00 1.900e+00 1.900e+00 1.900e+00 1.900e+00 1.900e+00 1.900e+00 1.900e+00 1.900e+00 1.900e+00 1.900e+00 1.900e+00 1.900e+00 1.900e+00 1.900e+00 1.900e+00 1.900e+00 1.900e+00 1.900e+00 1.900e+00 1.900e+00 1.900e+00 1.900e+00 1.900e+00 1.900e+00 1.900e+00 1.900e+00 1.900e+00 1.900e+00 1.900e+00 1.900e+00 1.900e+00 1.900e+00 1.900e+00 1.900e+00 1.900e+00 1.900e+00 1.900e+00 1.900e+00 1.900e+00 1.900e+00 1.900e+00 1.900e+00 1.900e+00 1.900e+00 1.900e+00 1.900e+00 1.900e+00 1.900e+00 1.900e+00 1.900e+00 1.900e+00 1.900e+00 1.900e+00 1.900e+00 1.900e+00 1.900e+00 1.900e+00 1.900e+00 1.900e+00 1.900e+00 1.900e+00 1.900e+00 1.900e+00 1.900e+00 1.900e+00 1.900e+00 1.900e+00 1.900e+00 1.900e+00 1.900e+00 1.900e+00 1.900e+00
           </DataArray>
           <DataArray type="Float32" Name="nitrate/Km" NumberOfComponents="1" format="ascii">
 1.610e-02 1.610e-02 1.610e-02 1.610e-02 1.610e-02 1.610e-02 1.610e-02 1.610e-02 1.610e-02 1.610e-02 1.610e-02 1.610e-02 1.610e-02 1.610e-02 1.610e-02 1.610e-02 1.610e-02 1.610e-02 1.610e-02 1.610e-02 1.610e-02 1.610e-02 1.610e-02 1.610e-02 1.610e-02 1.610e-02 1.610e-02 1.610e-02 1.610e-02 1.610e-02 1.610e-02 1.610e-02 1.610e-02 1.610e-02 1.610e-02 1.610e-02 1.610e-02 1.610e-02 1.610e-02 1.610e-02 1.610e-02 1.610e-02 1.610e-02 1.610e-02 1.610e-02 1.610e-02 1.610e-02 1.610e-02 1.610e-02 1.610e-02 1.610e-02 1.610e-02 1.610e-02 1.610e-02 1.610e-02 1.610e-02 1.610e-02 1.610e-02 1.610e-02 1.610e-02 1.610e-02 1.610e-02 1.610e-02 1.610e-02 1.610e-02 1.610e-02 1.610e-02 1.610e-02 1.610e-02 1.610e-02 1.610e-02 1.610e-02 1.610e-02 1.610e-02 1.610e-02 1.610e-02 1.610e-02 1.610e-02 1.610e-02 1.610e-02 1.610e-02 1.610e-02 1.610e-02 1.610e-02 1.610e-02 1.610e-02 1.610e-02 1.610e-02 1.610e-02 1.610e-02 1.610e-02 1.610e-02 1.610e-02 1.610e-02 1.610e-02 1.610e-02 1.610e-02 1.610e-02 1.610e-02 1.610e-02 1.610e-02 1.610e-02 1.610e-02 1.610e-02 1.610e-02 1.610e-02 1.610e-02 1.610e-02 1.610e-02 1.610e-02 1.610e-02 1.610e-02 1.610e-02 1.610e-02 1.610e-02 1.610e-02 1.610e-02 1.610e-02 1.610e-02 1.610e-02 1.610e-02 1.610e-02 1.610e-02 1.610e-02 1.610e-02 1.610e-02 1.610e-02 1.610e-02 1.610e-02 1.610e-02 1.610e-02 1.610e-02 1.610e-02 1.610e-02 1.610e-02 1.610e-02 1.610e-02 1.610e-02 1.610e-02 1.610e-02 1.610e-02 1.610e-02 1.610e-02 1.610e-02 1.610e-02 1.610e-02 1.610e-02 1.610e-02 1.610e-02 1.610e-02 1.610e-02 1.610e-02 1.610e-02 1.610e-02 1.610e-02 1.610e-02 1.610e-02 1.610e-02 1.610e-02 1.610e-02 1.610e-02 1.610e-02 1.610e-02 1.610e-02 1.610e-02 1.610e-02 1.610e-02 1.610e-02 1.610e-02 1.610e-02 1.610e-02 1.610e-02 1.610e-02 1.610e-02 1.610e-02 1.610e-02 1.610e-02 1.610e-02 1.610e-02 1.610e-02
           </DataArray>
           <DataArray type="Float32" Name="nitrate/minimalNutrientConcentration" NumberOfComponents="1" format="ascii">
 6.000e+02 6.000e+02 6.000e+02 6.000e+02 6.000e+02 6.000e+02 6.000e+02 6.000e+02 6.000e+02 6.000e+02 6.000e+02 6.000e+02 6.000e+02 6.000e+02 6.000e+02 6.000e+02 6.000e+02 6.000e+02 6.000e+02 6.000e+02 6.000e+02 6.000e+02 6.000e+02 6.000e+02 6.000e+02 6.000e+02 6.000e+02 6.000e+02 6.000e+02 6.000e+02 6.000e+02 6.000e+02 6.000e+02 6.000e+02 6.000e+02 6.000e+02 6.000e+02 6.000e+02 6.000e+02 6.000e+02 6.000e+02 6.000e+02 6.000e+02 6.000e+02 6.000e+02 6.000e+02 6.000e+02 6.000e+02 6.000e+02 6.000e+02 6.000e+02 6.000e+02 6.000e+02 6.000e+02 6.000e+02 6.000e+02 6.000e+02 6.000e+02 6.000e+02 6.000e+02 6.000e+02 6.000e+02 6.000e+02 6.000e+02 6.000e+02 6.000e+02 6.000e+02 6.000e+02 6.000e+02 6.000e+02 6.000e+02 6.000e+02 6.000e+02 6.000e+02 6.000e+02 6.000e+02 6.000e+02 6.000e+02 6.000e+02 6.000e+02 6.000e+02 6.000e+02 6.000e+02 6.000e+02 6.000e+02 6.000e+02 6.000e+02 6.000e+02 6.000e+02 6.000e+02 6.000e+02 6.000e+02 6.000e+02 6.000e+02 6.000e+02 6.000e+02 6.000e+02 6.000e+02 6.000e+02 6.000e+02 6.000e+02 6.000e+02 6.000e+02 6.000e+02 6.000e+02 6.000e+02 6.000e+02 6.000e+02 6.000e+02 6.000e+02 6.000e+02 6.000e+02 6.000e+02 6.000e+02 6.000e+02 6.000e+02 6.000e+02 6.000e+02 6.000e+02 6.000e+02 6.000e+02 6.000e+02 6.000e+02 6.000e+02 6.000e+02 6.000e+02 6.000e+02 6.000e+02 6.000e+02 6.000e+02 6.000e+02 6.000e+02 6.000e+02 6.000e+02 6.000e+02 6.000e+02 6.000e+02 6.000e+02 6.000e+02 6.000e+02 6.000e+02 6.000e+02 6.000e+02 6.000e+02 6.000e+02 6.000e+02 6.000e+02 6.000e+02 6.000e+02 6.000e+02 6.000e+02 6.000e+02 6.000e+02 6.000e+02 6.000e+02 6.000e+02 6.000e+02 6.000e+02 6.000e+02 6.000e+02 6.000e+02 6.000e+02 6.000e+02 6.000e+02 6.000e+02 6.000e+02 6.000e+02 6.000e+02 6.000e+02 6.000e+02 6.000e+02 6.000e+02 6.000e+02 6.000e+02 6.000e+02 6.000e+02 6.000e+02 6.000e+02 6.000e+02 6.000e+02
           </DataArray>
           <DataArray type="Float32" Name="nitrate/nutrientConcentrationAtTheRootSurface" NumberOfComponents="1" format="ascii">
 2.776e-01 2.984e-01 3.626e-01 4.346e-01 5.166e-01 5.579e-01 6.361e-01 7.097e-01 2.776e-01 3.052e-01 3.742e-01 4.324e-01 5.046e-01 5.510e-01 5.931e-01 7.040e-01 2.776e-01 2.981e-01 3.279e-01 4.062e-01 4.580e-01 5.448e-01 6.054e-01 6.870e-01 2.776e-01 2.730e-01 3.512e-01 4.219e-01 5.057e-01 5.630e-01 6.177e-01 6.768e-01 2.865e-01 2.865e-01 2.865e-01 2.865e-01 2.775e-01 2.930e-01 2.786e-01 2.118e-01 1.742e-01 1.279e-01 7.795e-02 0.000e+00 0.000e+00 0.000e+00 2.757e-01 2.948e-01 3.398e-01 2.725e-01 2.983e-01 3.444e-01 2.414e-01 3.024e-01 2.411e-01 2.548e-01 3.451e-01 2.488e-01 2.792e-01 2.574e-01 2.948e-01 2.624e-01 3.001e-01 3.702e-01 2.665e-01 3.334e-01 4.347e-01 2.705e-01 3.140e-01 2.722e-01 2.905e-01 2.792e-01 2.816e-01 2.816e-01 3.284e-01 2.723e-01 3.030e-01 3.740e-01 2.851e-01 3.447e-01 2.936e-01 3.328e-01 3.017e-01 3.278e-01 3.171e-01 3.830e-01 3.395e-01 3.842e-01 3.551e-01 4.124e-01 3.687e-01 4.546e-01 3.799e-01 4.243e-01 3.894e-01 4.759e-01 3.962e-01 4.275e-01 2.689e-01 2.801e-01 3.565e-01 4.034e-01 4.322e-01 4.094e-01 4.485e-01 4.211e-01 4.582e-01 4.372e-01 5.154e-01 4.523e-01 4.970e-01 4.676e-01 4.808e-01 4.909e-01 4.998e-01 5.074e-01 2.643e-01 2.960e-01 5.196e-01 5.313e-01 5.403e-01 5.476e-01 5.558e-01 5.641e-01 5.716e-01 5.774e-01 5.813e-01 5.857e-01 2.587e-01 2.582e-01 3.865e-01 5.894e-01 5.936e-01 5.969e-01 5.998e-01 6.064e-01 6.103e-01 6.121e-01 6.140e-01 6.102e-01 6.065e-01 2.530e-01 2.317e-01 3.795e-01 6.041e-01 6.047e-01 6.069e-01 6.131e-01 2.439e-01 2.914e-01 2.423e-01 2.871e-01 2.411e-01 2.631e-01 4.923e-01 5.387e-01 2.775e-01 2.526e-01 2.581e-01 2.861e-01 3.820e-01 4.578e-01 5.367e-01 5.847e-01 6.118e-01 6.103e-01 6.363e-01 6.803e-01 6.842e-01 6.436e-01 6.508e-01 6.345e-01 6.377e-01 6.653e-01 6.703e-01 6.620e-01 6.344e-01 6.416e-01 6.269e-01 6.938e-01
           </DataArray>
           <DataArray type="Float32" Name="nitrate/optimalNutrientConcentration" NumberOfComponents="1" format="ascii">
 1.200e+03 1.200e+03 1.200e+03 1.200e+03 1.200e+03 1.200e+03 1.200e+03 1.200e+03 1.200e+03 1.200e+03 1.200e+03 1.200e+03 1.200e+03 1.200e+03 1.200e+03 1.200e+03 1.200e+03 1.200e+03 1.200e+03 1.200e+03 1.200e+03 1.200e+03 1.200e+03 1.200e+03 1.200e+03 1.200e+03 1.200e+03 1.200e+03 1.200e+03 1.200e+03 1.200e+03 1.200e+03 1.200e+03 1.200e+03 1.200e+03 1.200e+03 1.200e+03 1.200e+03 1.200e+03 1.200e+03 1.200e+03 1.200e+03 1.200e+03 1.200e+03 1.200e+03 1.200e+03 1.200e+03 1.200e+03 1.200e+03 1.200e+03 1.200e+03 1.200e+03 1.200e+03 1.200e+03 1.200e+03 1.200e+03 1.200e+03 1.200e+03 1.200e+03 1.200e+03 1.200e+03 1.200e+03 1.200e+03 1.200e+03 1.200e+03 1.200e+03 1.200e+03 1.200e+03 1.200e+03 1.200e+03 1.200e+03 1.200e+03 1.200e+03 1.200e+03 1.200e+03 1.200e+03 1.200e+03 1.200e+03 1.200e+03 1.200e+03 1.200e+03 1.200e+03 1.200e+03 1.200e+03 1.200e+03 1.200e+03 1.200e+03 1.200e+03 1.200e+03 1.200e+03 1.200e+03 1.200e+03 1.200e+03 1.200e+03 1.200e+03 1.200e+03 1.200e+03 1.200e+03 1.200e+03 1.200e+03 1.200e+03 1.200e+03 1.200e+03 1.200e+03 1.200e+03 1.200e+03 1.200e+03 1.200e+03 1.200e+03 1.200e+03 1.200e+03 1.200e+03 1.200e+03 1.200e+03 1.200e+03 1.200e+03 1.200e+03 1.200e+03 1.200e+03 1.200e+03 1.200e+03 1.200e+03 1.200e+03 1.200e+03 1.200e+03 1.200e+03 1.200e+03 1.200e+03 1.200e+03 1.200e+03 1.200e+03 1.200e+03 1.200e+03 1.200e+03 1.200e+03 1.200e+03 1.200e+03 1.200e+03 1.200e+03 1.200e+03 1.200e+03 1.200e+03 1.200e+03 1.200e+03 1.200e+03 1.200e+03 1.200e+03 1.200e+03 1.200e+03 1.200e+03 1.200e+03 1.200e+03 1.200e+03 1.200e+03 1.200e+03 1.200e+03 1.200e+03 1.200e+03 1.200e+03 1.200e+03 1.200e+03 1.200e+03 1.200e+03 1.200e+03 1.200e+03 1.200e+03 1.200e+03 1.200e+03 1.200e+03 1.200e+03 1.200e+03 1.200e+03 1.200e+03 1.200e+03 1.200e+03 1.200e+03 1.200e+03 1.200e+03 1.200e+03 1.200e+03
           </DataArray>
           <DataArray type="Float32" Name="nitrate/rootSegmentMinimalNutrientContent" NumberOfComponents="1" format="ascii">
 1.635e-01 1.811e-01 1.406e-01 1.646e-01 1.230e-01 1.337e-01 1.443e-01 7.615e-02 1.635e-01 1.811e-01 1.406e-01 1.646e-01 1.230e-01 1.337e-01 1.443e-01 7.615e-02 1.635e-01 1.811e-01 1.406e-01 1.646e-01 1.230e-01 1.337e-01 1.443e-01 7.615e-02 1.635e-01 1.811e-01 1.406e-01 1.646e-01 1.230e-01 1.337e-01 1.443e-01 7.615e-02 9.025e-02 9.025e-02 9.025e-02 9.025e-02 6.064e+00 5.477e+00 9.071e+00 4.653e+00 4.616e+00 6.835e+00 6.464e+00 6.546e+00 6.432e+00 1.821e+00 3.725e-02 3.335e-02 1.999e-02 3.547e-02 3.301e-02 1.979e-02 3.651e-02 2.824e-02 3.453e-02 3.289e-02 6.575e-03 3.493e-02 3.469e-02 3.464e-02 3.578e-02 3.335e-02 3.617e-02 7.229e-03 3.438e-02 3.509e-02 3.508e-03 3.500e-02 2.504e-02 3.534e-02 3.552e-02 3.605e-02 2.779e-02 3.510e-02 2.814e-02 3.587e-02 3.493e-02 5.816e-03 3.558e-02 2.972e-02 3.708e-02 1.815e-02 3.316e-02 1.682e-02 3.479e-02 2.635e-02 3.700e-02 1.140e-02 3.617e-02 1.152e-02 3.462e-02 4.899e-03 3.692e-02 1.262e-02 3.500e-02 8.551e-03 3.605e-02 5.607e-03 3.333e-02 3.361e-02 5.597e-03 3.555e-02 5.719e-03 3.414e-02 5.688e-03 3.659e-02 6.319e-03 3.409e-02 6.111e-03 3.494e-02 6.511e-03 3.696e-02 3.494e-02 3.648e-02 3.439e-02 3.508e-02 3.454e-02 3.075e-02 3.218e-02 2.985e-02 2.512e-02 2.668e-02 2.496e-02 2.572e-02 2.200e-02 2.072e-02 2.024e-02 1.948e-02 3.715e-02 3.363e-02 1.344e-02 1.761e-02 1.821e-02 1.752e-02 1.471e-02 1.411e-02 1.292e-02 8.534e-03 9.542e-03 6.597e-03 6.031e-03 3.370e-02 3.490e-02 9.510e-03 5.999e-03 4.221e-03 2.596e-03 1.218e-03 3.463e-02 3.406e-02 3.435e-02 2.493e-02 3.685e-02 2.759e-02 3.573e-02 1.935e-02 3.586e-01 3.469e-01 3.360e-01 3.259e-01 3.165e-01 3.078e-01 2.997e-01 2.923e-01 2.860e-01 2.808e-01 2.768e-01 2.734e-01 2.703e-01 2.674e-01 2.649e-01 2.626e-01 2.606e-01 2.588e-01 2.573e-01 2.561e-01 2.551e-01 2.544e-01 2.539e-01 8.457e-02
           </DataArray>
           <DataArray type="Float32" Name="nitrate/rootSegmentNutrientUptake" NumberOfComponents="1" format="ascii">
 0.000e+00 2.515e-01 2.082e-01 1.779e-01 1.386e-01 1.014e-01 6.255e-02 1.473e-02 0.000e+00 2.501e-01 2.149e-01 1.806e-01 1.376e-01 1.013e-01 5.957e-02 1.471e-02 0.000e+00 2.571e-01 2.027e-01 1.753e-01 1.280e-01 1.001e-01 6.054e-02 1.471e-02 0.000e+00 2.388e-01 2.049e-01 1.763e-01 1.362e-01 1.024e-01 6.141e-02 1.472e-02 0.000e+00 0.000e+00 0.000e+00 0.000e+00 0.000e+00 8.282e-01 7.376e-01 5.659e-01 4.734e-01 3.756e-01 2.423e-01 0.000e+00 0.000e+00 0.000e+00 0.000e+00 1.556e-01 3.008e-02 0.000e+00 1.574e-01 2.983e-02 0.000e+00 6.660e-02 0.000e+00 9.714e-02 4.229e-03 0.000e+00 8.384e-02 0.000e+00 8.729e-02 0.000e+00 1.086e-01 4.668e-03 0.000e+00 9.470e-02 1.508e-03 0.000e+00 5.104e-02 0.000e+00 7.907e-02 0.000e+00 5.577e-02 0.000e+00 5.752e-02 0.000e+00 1.192e-01 3.750e-03 0.000e+00 6.085e-02 0.000e+00 2.738e-02 0.000e+00 2.537e-02 0.000e+00 4.834e-02 0.000e+00 1.233e-02 0.000e+00 1.248e-02 0.000e+00 3.185e-03 0.000e+00 1.368e-02 0.000e+00 7.433e-03 0.000e+00 3.644e-03 0.000e+00 1.141e-01 3.604e-03 0.000e+00 3.718e-03 0.000e+00 3.701e-03 0.000e+00 4.115e-03 0.000e+00 3.990e-03 0.000e+00 4.249e-03 0.000e+00 0.000e+00 0.000e+00 0.000e+00 0.000e+00 0.000e+00 8.429e-02 0.000e+00 0.000e+00 0.000e+00 0.000e+00 0.000e+00 0.000e+00 0.000e+00 0.000e+00 0.000e+00 0.000e+00 0.000e+00 1.237e-01 1.451e-02 0.000e+00 0.000e+00 0.000e+00 0.000e+00 0.000e+00 0.000e+00 0.000e+00 0.000e+00 0.000e+00 0.000e+00 0.000e+00 1.148e-01 8.188e-03 0.000e+00 0.000e+00 0.000e+00 0.000e+00 0.000e+00 9.096e-02 0.000e+00 5.885e-02 0.000e+00 6.362e-02 0.000e+00 2.111e-02 0.000e+00 9.373e-01 9.373e-01 9.352e-01 9.510e-01 9.734e-01 9.741e-01 9.440e-01 8.948e-01 8.027e-01 7.749e-01 7.840e-01 7.197e-01 6.038e-01 5.685e-01 4.897e-01 4.511e-01 4.236e-01 3.658e-01 3.001e-01 2.277e-01 1.584e-01 8.342e-02 1.237e-02
           </DataArray>
           <DataArray type="Float32" Name="nitrate/rootSegmentOptimalNutrientContent" NumberOfComponents="1" format="ascii">
 3.270e-01 3.621e-01 2.812e-01 3.291e-01 2.460e-01 2.673e-01 2.886e-01 1.523e-01 3.270e-01 3.621e-01 2.812e-01 3.291e-01 2.460e-01 2.673e-01 2.886e-01 1.523e-01 3.270e-01 3.621e-01 2.812e-01 3.291e-01 2.460e-01 2.673e-01 2.886e-01 1.523e-01 3.270e-01 3.621e-01 2.812e-01 3.291e-01 2.460e-01 2.673e-01 2.886e-01 1.523e-01 1.805e-01 1.805e-01 1.805e-01 1.805e-01 1.213e+01 1.095e+01 1.814e+01 9.306e+00 9.233e+00 1.367e+01 1.293e+01 1.309e+01 1.286e+01 3.643e+00 7.451e-02 6.670e-02 3.998e-02 7.095e-02 6.603e-02 3.958e-02 7.302e-02 5.648e-02 6.906e-02 6.579e-02 1.315e-02 6.986e-02 6.939e-02 6.928e-02 7.156e-02 6.670e-02 7.233e-02 1.446e-02 6.876e-02 7.019e-02 7.015e-03 6.999e-02 5.009e-02 7.068e-02 7.104e-02 7.210e-02 5.558e-02 7.019e-02 5.628e-02 7.175e-02 6.985e-02 1.163e-02 7.116e-02 5.945e-02 7.416e-02 3.631e-02 6.633e-02 3.364e-02 6.957e-02 5.270e-02 7.400e-02 2.280e-02 7.234e-02 2.305e-02 6.924e-02 9.798e-03 7.384e-02 2.523e-02 7.001e-02 1.710e-02 7.209e-02 1.121e-02 6.665e-02 6.722e-02 1.119e-02 7.110e-02 1.144e-02 6.829e-02 1.138e-02 7.318e-02 1.264e-02 6.818e-02 1.222e-02 6.987e-02 1.302e-02 7.392e-02 6.987e-02 7.297e-02 6.877e-02 7.015e-02 6.908e-02 6.150e-02 6.435e-02 5.970e-02 5.023e-02 5.335e-02 4.992e-02 5.144e-02 4.400e-02 4.143e-02 4.049e-02 3.895e-02 7.430e-02 6.726e-02 2.688e-02 3.523e-02 3.642e-02 3.504e-02 2.943e-02 2.823e-02 2.584e-02 1.707e-02 1.908e-02 1.319e-02 1.206e-02 6.739e-02 6.979e-02 1.902e-02 1.200e-02 8.442e-03 5.192e-03 2.436e-03 6.927e-02 6.812e-02 6.870e-02 4.985e-02 7.370e-02 5.519e-02 7.146e-02 3.869e-02 7.172e-01 6.939e-01 6.721e-01 6.518e-01 6.330e-01 6.155e-01 5.994e-01 5.847e-01 5.720e-01 5.617e-01 5.535e-01 5.467e-01 5.405e-01 5.349e-01 5.298e-01 5.252e-01 5.212e-01 5.176e-01 5.147e-01 5.122e-01 5.102e-01 5.088e-01 5.079e-01 1.691e-01
           </DataArray>
           <DataArray type="Float32" Name="parentRootClassID" NumberOfComponents="1" format="ascii">