<?xml version="1.0"?>
<VTKFile type="UnstructuredGrid" version="0.1" byte_order="LittleEndian">
   <UnstructuredGrid>
      <Piece NumberOfPoints="59230" NumberOfCells="4316">
         <Points>
            <DataArray type="Float32" Name="Position" NumberOfComponents="3" format="ascii">
-0.155	-5.023	0.003
-0.148	-5.018	0.001
-0.138	-5.019	-0.001
-0.131	-5.025	-0.002
-0.129	-5.034	-0.002
-0.132	-5.042	-0.000
-0.140	-5.047	0.002
-0.149	-5.047	0.004
-0.156	-5.041	0.005
-0.158	-5.032	0.005
-0.351	-5.101	-0.853
-0.342	-5.097	-0.855
-0.333	-5.098	-0.856
-0.327	-5.104	-0.856
-0.325	-5.113	-0.856
-0.329	-5.122	-0.855
-0.337	-5.126	-0.854
-0.346	-5.125	-0.853
-0.353	-5.119	-0.852
-0.354	-5.110	-0.852
-0.366	-5.121	-1.714
-0.358	-5.117	-1.716
-0.349	-5.118	-1.717
-0.342	-5.124	-1.718
-0.340	-5.133	-1.717
-0.344	-5.141	-1.715
-0.352	-5.146	-1.713
-0.361	-5.145	-1.712
-0.367	-5.138	-1.711
-0.369	-5.129	-1.712
-0.647	-5.282	-2.502
-0.640	-5.278	-2.507
-0.632	-5.278	-2.511
-0.625	-5.284	-2.512
-0.621	-5.293	-2.511
-0.623	-5.301	-2.507
-0.630	-5.305	-2.502
-0.638	-5.305	-2.498
-0.645	-5.299	-2.496
-0.649	-5.290	-2.498
-1.081	-5.662	-3.137
-1.075	-5.660	-3.144
-1.067	-5.663	-3.148
-1.061	-5.669	-3.148
-1.058	-5.677	-3.143
-1.059	-5.683	-3.136
-1.065	-5.685	-3.129
-1.073	-5.682	-3.125
-1.080	-5.675	-3.126
-1.083	-5.668	-3.130
-1.260	-5.933	-3.297
-1.260	-5.925	-3.293
-1.260	-5.916	-3.294
-1.260	-5.910	-3.301
-1.260	-5.908	-3.310
-1.260	-5.912	-3.318
-1.260	-5.921	-3.323
-1.260	-5.930	-3.321
-1.260	-5.936	-3.315
-1.260	-5.938	-3.305
-0.271	-5.105	0.000
-0.267	-5.098	0.004
-0.268	-5.089	0.005
-0.274	-5.082	0.004
-0.283	-5.079	0.000
-0.290	-5.082	-0.004
-0.294	-5.090	-0.008
-0.293	-5.099	-0.009
-0.287	-5.106	-0.008
-0.279	-5.109	-0.004
-0.648	-5.280	0.741
-0.645	-5.273	0.746
-0.647	-5.264	0.748
-0.652	-5.257	0.747
-0.660	-5.254	0.742
-0.666	-5.256	0.735
-0.668	-5.263	0.730
-0.667	-5.272	0.728
-0.661	-5.279	0.729
-0.654	-5.282	0.734
-1.294	-5.626	1.186
-1.292	-5.620	1.193
-1.295	-5.611	1.197
-1.301	-5.605	1.196
-1.308	-5.601	1.191
-1.313	-5.603	1.183
-1.315	-5.609	1.177
-1.312	-5.617	1.173
-1.306	-5.624	1.174
-1.299	-5.627	1.179
-1.757	-6.106	1.746
-1.755	-6.100	1.753
-1.757	-6.093	1.757
-1.764	-6.087	1.758
-1.773	-6.084	1.755
-1.779	-6.087	1.749
-1.782	-6.093	1.742
-1.779	-6.100	1.738
-1.772	-6.106	1.737
-1.764	-6.109	1.740
-1.898	-6.391	2.078
-1.896	-6.385	2.084
-1.898	-6.377	2.089
-1.906	-6.372	2.091
-1.914	-6.370	2.088
-1.922	-6.373	2.083
-1.924	-6.379	2.077
-1.921	-6.386	2.072
-1.914	-6.392	2.070
-1.905	-6.394	2.072
-1.231	-6.037	-0.053
-1.232	-6.029	-0.048
-1.233	-6.020	-0.049
-1.233	-6.013	-0.055
-1.234	-6.011	-0.064
-1.234	-6.014	-0.072
-1.233	-6.022	-0.077
-1.232	-6.032	-0.076
-1.231	-6.039	-0.070
-1.231	-6.041	-0.061
-2.088	-6.115	-0.033
-2.088	-6.107	-0.027
-2.089	-6.098	-0.028
-2.091	-6.091	-0.034
-2.092	-6.089	-0.043
-2.093	-6.092	-0.051
-2.093	-6.100	-0.056
-2.092	-6.109	-0.056
-2.091	-6.116	-0.050
-2.089	-6.119	-0.041
-2.942	-6.188	0.166
-2.941	-6.181	0.172
-2.943	-6.172	0.173
-2.946	-6.164	0.168
-2.950	-6.161	0.161
-2.952	-6.164	0.152
-2.953	-6.171	0.146
-2.951	-6.180	0.145
-2.948	-6.187	0.150
-2.945	-6.191	0.158
-3.670	-6.442	0.538
-3.670	-6.435	0.544
-3.672	-6.426	0.546
-3.676	-6.419	0.542
-3.681	-6.415	0.535
-3.684	-6.417	0.527
-3.684	-6.424	0.520
-3.682	-6.433	0.518
-3.678	-6.440	0.522
-3.673	-6.444	0.529
-3.930	-6.535	0.631
-3.930	-6.528	0.637
-3.932	-6.520	0.639
-3.936	-6.512	0.635
-3.940	-6.509	0.628
-3.943	-6.511	0.619
-3.943	-6.517	0.612
-3.940	-6.526	0.611
-3.936	-6.533	0.614
-3.932	-6.537	0.622
-3.659	-19.149	-0.265
-3.652	-19.147	-0.260
-3.646	-19.150	-0.254
-3.643	-19.157	-0.249
-3.644	-19.166	-0.247
-3.650	-19.173	-0.250
-3.657	-19.176	-0.255
-3.663	-19.173	-0.261
-3.666	-19.165	-0.266
-3.665	-19.156	-0.267
-3.125	-19.357	-0.912
-3.118	-19.355	-0.907
-3.112	-19.358	-0.901
-3.109	-19.366	-0.896
-3.111	-19.374	-0.894
-3.118	-19.381	-0.896
-3.125	-19.383	-0.901
-3.132	-19.380	-0.907
-3.134	-19.373	-0.912
-3.132	-19.364	-0.914
-2.687	-19.712	-1.571
-2.679	-19.711	-1.566
-2.672	-19.714	-1.560
-2.670	-19.721	-1.555
-2.673	-19.730	-1.553
-2.680	-19.736	-1.554
-2.688	-19.738	-1.558
-2.694	-19.734	-1.564
-2.696	-19.727	-1.569
-2.693	-19.719	-1.572
-3.651	-19.308	-0.274
-3.649	-19.302	-0.267
-3.652	-19.298	-0.259
-3.658	-19.300	-0.252
-3.664	-19.306	-0.248
-3.669	-19.314	-0.250
-3.670	-19.321	-0.256
-3.667	-19.324	-0.265
-3.662	-19.322	-0.272
-3.655	-19.316	-0.275
-3.043	-19.749	0.091
-3.041	-19.743	0.098
-3.043	-19.741	0.107
-3.048	-19.743	0.114
-3.054	-19.750	0.117
-3.058	-19.757	0.115
-3.060	-19.764	0.108
-3.058	-19.766	0.100
-3.053	-19.763	0.092
-3.047	-19.757	0.089
-2.330	-20.239	0.263
-2.327	-20.233	0.270
-2.329	-20.232	0.279
-2.333	-20.235	0.287
-2.339	-20.242	0.290
-2.343	-20.249	0.287
-2.346	-20.255	0.280
-2.344	-20.256	0.271
-2.340	-20.253	0.263
-2.335	-20.246	0.260
-2.216	-20.329	0.291
-2.213	-20.324	0.298
-2.215	-20.323	0.307
-2.219	-20.326	0.315
-2.225	-20.332	0.318
-2.230	-20.339	0.315
-2.233	-20.345	0.308
-2.231	-20.346	0.299
-2.227	-20.343	0.291
-2.221	-20.336	0.288
-3.677	-19.453	-0.262
-3.671	-19.447	-0.268
-3.663	-19.447	-0.272
-3.656	-19.452	-0.275
-3.652	-19.460	-0.274
-3.653	-19.469	-0.271
-3.658	-19.474	-0.265
-3.666	-19.475	-0.261
-3.674	-19.470	-0.258
-3.678	-19.461	-0.259
-4.074	-19.706	-0.944
-4.068	-19.701	-0.948
-4.059	-19.701	-0.952
-4.052	-19.707	-0.954
-4.049	-19.715	-0.953
-4.050	-19.724	-0.949
-4.057	-19.729	-0.944
-4.065	-19.728	-0.940
-4.072	-19.723	-0.939
-4.076	-19.714	-0.940
-4.360	-19.909	-1.693
-4.352	-19.905	-1.696
-4.343	-19.908	-1.698
-4.337	-19.914	-1.698
-4.335	-19.923	-1.695
-4.339	-19.931	-1.692
-4.347	-19.934	-1.688
-4.356	-19.932	-1.686
-4.362	-19.925	-1.687
-4.364	-19.916	-1.689
-4.371	-19.932	-1.759
-4.362	-19.930	-1.761
-4.354	-19.933	-1.762
-4.348	-19.940	-1.760
-4.348	-19.949	-1.757
-4.353	-19.956	-1.753
-4.362	-19.958	-1.751
-4.370	-19.955	-1.750
-4.376	-19.948	-1.752
-4.376	-19.939	-1.755
-3.661	-19.623	-0.263
-3.660	-19.616	-0.257
-3.661	-19.607	-0.257
-3.664	-19.599	-0.261
-3.669	-19.596	-0.268
-3.672	-19.599	-0.276
-3.674	-19.606	-0.282
-3.673	-19.615	-0.283
-3.670	-19.623	-0.278
-3.665	-19.626	-0.271
-4.415	-19.744	0.129
-4.414	-19.737	0.134
-4.415	-19.728	0.135
-4.418	-19.720	0.131
-4.423	-19.717	0.124
-4.426	-19.720	0.115
-4.428	-19.727	0.110
-4.426	-19.736	0.109
-4.423	-19.744	0.113
-4.419	-19.747	0.121
-4.717	-19.807	0.272
-4.715	-19.800	0.278
-4.717	-19.791	0.279
-4.720	-19.783	0.274
-4.725	-19.780	0.267
-4.728	-19.783	0.259
-4.729	-19.790	0.253
-4.728	-19.799	0.252
-4.724	-19.806	0.256
-4.720	-19.810	0.263
-3.667	-19.751	-0.283
-3.662	-19.748	-0.276
-3.659	-19.750	-0.267
-3.660	-19.756	-0.261
-3.664	-19.764	-0.258
-3.669	-19.771	-0.261
-3.674	-19.774	-0.268
-3.677	-19.772	-0.277
-3.676	-19.766	-0.284
-3.673	-19.758	-0.286
-2.959	-20.159	-0.607
-2.954	-20.157	-0.600
-2.951	-20.159	-0.592
-2.952	-20.165	-0.585
-2.956	-20.172	-0.582
-2.963	-20.179	-0.584
-2.968	-20.181	-0.591
-2.971	-20.179	-0.600
-2.970	-20.173	-0.607
-2.966	-20.166	-0.610
-2.623	-20.506	-0.812
-2.617	-20.504	-0.805
-2.614	-20.506	-0.797
-2.615	-20.512	-0.789
-2.621	-20.519	-0.786
-2.628	-20.525	-0.789
-2.634	-20.527	-0.795
-2.637	-20.524	-0.804
-2.635	-20.519	-0.811
-2.630	-20.512	-0.814
-3.678	-19.899	-0.278
-3.669	-19.896	-0.277
-3.660	-19.898	-0.275
-3.655	-19.906	-0.274
-3.655	-19.915	-0.273
-3.660	-19.922	-0.273
-3.669	-19.926	-0.274
-3.677	-19.923	-0.275
-3.683	-19.916	-0.277
-3.683	-19.907	-0.278
-3.534	-19.998	-1.145
-3.526	-19.994	-1.147
-3.517	-19.996	-1.147
-3.510	-20.002	-1.147
-3.509	-20.012	-1.145
-3.514	-20.020	-1.144
-3.522	-20.023	-1.143
-3.531	-20.022	-1.143
-3.537	-20.015	-1.143
-3.539	-20.006	-1.144
-3.699	-20.074	-1.644
-3.692	-20.069	-1.647
-3.684	-20.069	-1.650
-3.676	-20.075	-1.652
-3.674	-20.084	-1.651
-3.676	-20.092	-1.649
-3.683	-20.097	-1.646
-3.692	-20.097	-1.643
-3.699	-20.091	-1.642
-3.702	-20.083	-1.642
-3.673	-20.048	-0.288
-3.664	-20.046	-0.286
-3.656	-20.050	-0.284
-3.652	-20.057	-0.280
-3.653	-20.066	-0.278
-3.660	-20.073	-0.277
-3.668	-20.075	-0.278
-3.677	-20.072	-0.281
-3.681	-20.064	-0.285
-3.680	-20.055	-0.287
-3.494	-20.298	-1.100
-3.485	-20.295	-1.099
-3.477	-20.299	-1.096
-3.472	-20.306	-1.093
-3.473	-20.315	-1.091
-3.480	-20.322	-1.090
-3.488	-20.324	-1.092
-3.497	-20.321	-1.094
-3.501	-20.314	-1.098
-3.500	-20.305	-1.100
-3.388	-20.406	-1.519
-3.379	-20.403	-1.518
-3.371	-20.407	-1.515
-3.366	-20.414	-1.512
-3.367	-20.423	-1.510
-3.374	-20.430	-1.509
-3.382	-20.433	-1.511
-3.391	-20.429	-1.514
-3.395	-20.422	-1.517
-3.394	-20.413	-1.519
-3.669	-20.198	-0.296
-3.661	-20.196	-0.292
-3.654	-20.199	-0.287
-3.651	-20.207	-0.283
-3.653	-20.216	-0.281
-3.659	-20.223	-0.282
-3.667	-20.225	-0.286
-3.674	-20.221	-0.291
-3.677	-20.214	-0.296
-3.675	-20.205	-0.298
-3.260	-20.433	-1.001
-3.252	-20.431	-0.996
-3.246	-20.434	-0.991
-3.243	-20.442	-0.986
-3.245	-20.450	-0.984
-3.251	-20.457	-0.985
-3.259	-20.459	-0.990
-3.266	-20.456	-0.995
-3.269	-20.448	-1.000
-3.266	-20.440	-1.002
-2.863	-20.704	-1.589
-2.855	-20.702	-1.585
-2.848	-20.706	-1.579
-2.846	-20.713	-1.574
-2.848	-20.722	-1.572
-2.855	-20.728	-1.573
-2.863	-20.730	-1.578
-2.869	-20.727	-1.583
-2.872	-20.719	-1.588
-2.869	-20.711	-1.591
-3.655	-20.355	-0.309
-3.654	-20.348	-0.302
-3.656	-20.347	-0.293
-3.660	-20.350	-0.286
-3.664	-20.357	-0.282
-3.668	-20.366	-0.285
-3.669	-20.372	-0.291
-3.667	-20.374	-0.300
-3.663	-20.370	-0.308
-3.658	-20.363	-0.311
-2.929	-20.719	-0.080
-2.927	-20.713	-0.074
-2.929	-20.711	-0.065
-2.933	-20.714	-0.057
-2.938	-20.721	-0.054
-2.942	-20.729	-0.056
-2.944	-20.735	-0.063
-2.942	-20.737	-0.072
-2.938	-20.734	-0.079
-2.933	-20.727	-0.083
-2.481	-21.009	0.045
-2.479	-21.003	0.052
-2.481	-21.002	0.061
-2.485	-21.005	0.068
-2.491	-21.012	0.071
-2.495	-21.020	0.069
-2.497	-21.026	0.062
-2.495	-21.027	0.053
-2.491	-21.024	0.045
-2.486	-21.017	0.042
-3.665	-20.498	-0.310
-3.656	-20.496	-0.309
-3.648	-20.499	-0.306
-3.644	-20.506	-0.302
-3.645	-20.515	-0.300
[...]
         <CellData>
           <DataArray type="Float32" Name="combinedRootClassID" NumberOfComponents="1" format="ascii">
 -1.300e+01 -1.300e+01 -1.300e+01 -1.300e+01 -1.300e+01 -1.300e+01 -1.300e+01 -1.300e+01 -1.300e+01 -1.300e+01 -1.300e+01 -1.300e+01 -1.300e+01 -1.300e+01 -1.300e+01 -1.300e+01 -1.300e+01 -1.300e+01 -1.300e+01 -1.300e+01 -1.300e+01 -1.300e+01 -1.300e+01 -1.300e+01 -1.300e+01 -1.300e+01 -1.300e+01 -1.300e+01 -1.300e+01 -1.300e+01 -1.300e+01 -1.300e+01 -1.300e+01 -1.300e+01 -1.300e+01 -1.300e+01 -1.300e+01 -1.300e+01 -1.300e+01 -1.300e+01 -1.300e+01 -1.300e+01 -1.300e+01 -1.300e+01 -1.300e+01 -1.300e+01 -1.300e+01 -1.300e+01 -1.300e+01 -1.300e+01 -1.300e+01 -1.300e+01 -1.300e+01 -1.300e+01 -1.300e+01 -1.300e+01 -1.300e+01 -1.300e+01 -1.300e+01 -1.300e+01 -1.300e+01 -1.300e+01 -1.300e+01 -1.300e+01 -1.300e+01 -1.300e+01 -1.300e+01 -1.300e+01 -1.300e+01 -1.300e+01 -1.300e+01 -1.300e+01 -1.300e+01 -1.300e+01 -1.300e+01 -1.300e+01 -1.300e+01 -1.300e+01 -1.300e+01 -1.300e+01 -1.300e+01 -1.300e+01 -1.300e+01 -1.300e+01 -1.300e+01 -1.300e+01 -1.300e+01 -1.300e+01 -1.300e+01 -1.300e+01 -1.300e+01 -1.300e+01 -1.300e+01 -1.300e+01 -1.300e+01 -1.300e+01 -1.300e+01 -1.300e+01 -1.300e+01 -1.300e+01 -1.300e+01 -1.300e+01 -1.300e+01 -1.300e+01 -1.300e+01 -1.300e+01 -1.300e+01 -1.300e+01 -1.300e+01 -1.300e+01 -1.300e+01 -1.300e+01 -1.300e+01 -1.300e+01 -1.300e+01 -1.300e+01 -1.300e+01 -1.300e+01 -1.300e+01 -1.300e+01 -1.300e+01 -1.300e+01 -1.300e+01 -1.300e+01 -1.300e+01 -1.300e+01 -1.300e+01 -1.300e+01 -1.300e+01 -1.300e+01 -1.300e+01 -1.300e+01 -1.300e+01 -1.300e+01 -1.300e+01 -1.300e+01 -1.300e+01 -1.300e+01 -1.300e+01 -1.300e+01 -1.300e+01 -1.300e+01 -1.300e+01 -1.300e+01 -1.300e+01 -1.300e+01 -1.300e+01 -1.300e+01 -1.300e+01 -1.300e+01 -1.300e+01 -1.300e+01 -1.300e+01 -1.300e+01 -1.300e+01 -1.300e+01 -1.300e+01 -1.300e+01 -1.300e+01 -1.300e+01 -1.300e+01 -1.300e+01 -1.300e+01 -1.300e+01 -1.300e+01 -1.300e+01 -1.300e+01 -1.300e+01 -1.300e+01 -1.300e+01 -1.300e+01 -1.300e+01 -1.300e+01 -1.300e+01 -1.300e+01 -1.300e+01 -1.300e+01 -1.300e+01 -1.300e+01 -1.300e+01 -1.300e+01 -1.300e+01 -1.300e+01 -1.300e+01 -1.300e+01 -1.300e+01 -1.300e+01 -1.300e+01 -1.300e+01 -1.300e+01 -1.300e+01 -1.300e+01 -1.300e+01 -1.300e+01 -1.300e+01 -1.300e+01 -1.300e+01 -1.300e+01 -1.300e+01 -1.300e+01 -1.300e+01 -1.300e+01 -1.300e+01 -1.300e+01 -1.300e+01 -1.300e+01 -1.300e+01 -1.300e+01 -1.300e+01 -1.300e+01 -1.300e+01 -1.300e+01 -1.300e+01 -1.300e+01 -1.300e+01 -1.300e+01 -1.300e+01 -1.300e+01 -1.300e+01 -1.300e+01 -1.300e+01 -1.300e+01 -1.300e+01 -1.300e+01 -1.300e+01 -1.300e+01 -1.300e+01 -1.300e+01 -1.300e+01 -1.300e+01 -1.300e+01 -1.300e+01 -1.300e+01 -1.300e+01 -1.300e+01 -1.300e+01 -1.300e+01 -1.300e+01 -1.300e+01 -1.300e+01 -1.300e+01 -1.300e+01 -1.300e+01 -1.300e+01 -1.300e+01 -1.300e+01 -1.300e+01 -1.300e+01 -1.300e+01 -1.300e+01 -1.300e+01 -1.300e+01 -1.300e+01 -1.300e+01 -1.300e+01 -1.300e+01 -1.300e+01 -1.300e+01 -1.300e+01 -1.300e+01 -1.300e+01 -1.300e+01 -1.300e+01 -1.300e+01 -1.300e+01 -1.300e+01 -1.300e+01 -1.300e+01 -1.300e+01 -1.300e+01 -1.300e+01 -1.300e+01 -1.300e+01 -1.300e+01 -1.300e+01 -1.300e+01 -1.300e+01 -1.300e+01 -1.300e+01 -1.300e+01 -1.300e+01 -1.300e+01 -1.300e+01 -1.300e+01 -1.300e+01 -1.300e+01 -1.300e+01 -1.300e+01 -1.300e+01 -1.300e+01 -1.300e+01 -1.300e+01 -1.300e+01 -1.300e+01 -1.300e+01 -1.300e+01 -1.300e+01 -1.300e+01 -1.300e+01 -1.300e+01 -1.300e+01 -1.300e+01 -1.300e+01 -1.300e+01 -1.300e+01 -1.300e+01 -1.300e+01 -1.300e+01 -1.300e+01 -1.300e+01 -1.300e+01 -1.300e+01 -1.300e+01 -1.300e+01 -1.300e+01 -1.300e+01 -1.300e+01 -1.300e+01 -1.300e+01 -1.300e+01 -1.300e+01 -1.300e+01 -1.300e+01 -1.300e+01 -1.300e+01 -1.300e+01 -1.300e+01 -1.300e+01 -1.300e+01 -1.300e+01 -1.300e+01 -1.300e+01 -1.300e+01 -1.300e+01 -1.300e+01 -1.300e+01 -1.300e+01 -1.300e+01 -1.300e+01 -1.300e+01 -1.300e+01 -1.300e+01 -1.300e+01 -1.300e+01 -1.300e+01 -1.300e+01 -1.300e+01 -1.300e+01 -1.300e+01 -1.300e+01 -1.300e+01 -1.300e+01 -1.300e+01 -1.300e+01 -1.300e+01 -1.300e+01 -1.300e+01 -1.300e+01 -1.300e+01 -1.300e+01 -1.300e+01 -1.300e+01 -1.300e+01 -1.300e+01 -1.300e+01 -1.300e+01 -1.300e+01 -1.300e+01 -1.300e+01 -1.300e+01 -1.300e+01 -1.300e+01 -1.300e+01 -1.300e+01 -1.300e+01 -1.300e+01 -1.300e+01 -1.300e+01 -1.300e+01 -1.300e+01 -1.300e+01 -1.300e+01 -1.300e+01 -1.300e+01 -1.300e+01 -1.300e+01 -1.300e+01 -1.300e+01 -1.300e+01 -1.300e+01 -1.300e+01 -1.300e+01 -1.300e+01 -1.300e+01 -1.300e+01 -1.300e+01 -1.300e+01 -1.300e+01 -1.300e+01 -1.300e+01 -1.300e+01 -1.300e+01 -1.300e+01 -1.300e+01 -1.300e+01 -1.300e+01 -1.300e+01 -1.300e+01 -1.300e+01 -1.300e+01 -1.300e+01 -1.300e+01 -1.300e+01 -1.300e+01 -1.300e+01 -1.300e+01 -1.300e+01 -1.300e+01 -1.300e+01 -1.300e+01 -1.300e+01 -1.300e+01 -1.300e+01 -1.300e+01 -1.300e+01 -1.300e+01 -1.300e+01 -1.300e+01 -1.300e+01 -1.300e+01 -1.300e+01 -1.300e+01 -1.300e+01 -1.300e+01 -1.300e+01 -1.300e+01 -1.300e+01 -1.300e+01 -1.300e+01 -1.300e+01 -1.300e+01 -1.300e+01 -1.300e+01 -1.300e+01 -5.000e+00 -5.000e+00 -5.000e+00 -5.000e+00 -5.000e+00 -5.000e+00 -5.000e+00 -5.000e+00 -5.000e+00 -5.000e+00 -5.000e+00 -5.000e+00 -5.000e+00 -5.000e+00 -5.000e+00 -5.000e+00 -5.000e+00 -5.000e+00 -5.000e+00 -5.000e+00 -5.000e+00 -5.000e+00 -5.000e+00 -5.000e+00 -5.000e+00 -5.000e+00 -5.000e+00 -5.000e+00 -5.000e+00 -5.000e+00 -5.000e+00 -5.000e+00 -5.000e+00 -5.000e+00 -5.000e+00 -5.000e+00 -5.000e+00 -5.000e+00 -5.000e+00 -5.000e+00 -5.000e+00 -5.000e+00 -5.000e+00 -1.300e+01 -1.300e+01 -1.300e+01 -1.300e+01 -1.300e+01 -1.300e+01 -1.300e+01 -1.300e+01 -1.300e+01 -1.300e+01 -1.300e+01 -1.300e+01 -1.300e+01 -1.300e+01 -1.300e+01 -1.300e+01 -1.300e+01 -1.300e+01 -1.300e+01 -1.300e+01 -1.300e+01 -1.300e+01 -1.300e+01 -1.300e+01 -1.300e+01 -1.300e+01 -1.300e+01 -1.300e+01 -1.300e+01 -1.300e+01 -1.300e+01 -1.300e+01 -1.300e+01 -1.300e+01 -1.300e+01 -1.300e+01 -1.300e+01 -1.300e+01 -1.300e+01 -1.300e+01 -1.300e+01 -1.300e+01 -1.300e+01 -1.300e+01 -1.300e+01 -1.300e+01 -1.300e+01 -1.300e+01 -1.300e+01 -1.300e+01 -1.300e+01 -1.300e+01 -1.300e+01 -1.300e+01 -1.300e+01 -1.300e+01 -1.300e+01 -1.300e+01 -1.300e+01 -1.300e+01 -1.300e+01 -1.300e+01 -1.300e+01 -1.300e+01 -1.300e+01 -1.300e+01 -1.300e+01 -1.300e+01 -1.300e+01 -1.300e+01 -1.300e+01 -1.300e+01 -1.300e+01 -1.300e+01 -1.300e+01 -1.300e+01 -1.300e+01 -1.300e+01 -1.300e+01 -1.300e+01 -1.300e+01 -1.300e+01 -1.300e+01 -1.300e+01 -1.300e+01 -1.300e+01 -1.300e+01 -1.300e+01 -1.300e+01 -1.300e+01 -1.300e+01 -1.300e+01 -1.300e+01 -1.300e+01 -1.300e+01 -1.300e+01 -1.300e+01 -1.300e+01 -1.300e+01 -1.300e+01 -1.300e+01 -1.300e+01 -1.300e+01 -1.300e+01 -1.300e+01 -1.300e+01 -1.300e+01 -1.300e+01 -1.300e+01 -1.300e+01 -1.300e+01 -1.300e+01 -1.300e+01 -1.300e+01 -1.300e+01 -1.300e+01 -1.300e+01 -1.300e+01 -1.300e+01 -1.300e+01 -1.300e+01 -1.300e+01 -1.300e+01 -1.300e+01 -1.300e+01 -1.300e+01 -1.300e+01 -1.300e+01 -1.300e+01 -1.300e+01 -1.300e+01 -1.300e+01 -1.300e+01 -1.300e+01 -1.300e+01 -1.300e+01 -1.300e+01 -1.300e+01 -1.300e+01 -1.300e+01 -1.300e+01 -1.300e+01 -1.300e+01 -1.300e+01 -1.300e+01 -1.300e+01 -1.300e+01 -1.300e+01 -1.300e+01 -1.300e+01 -1.300e+01 -1.300e+01 -1.300e+01 -1.300e+01 -1.300e+01 -1.300e+01 -1.300e+01 -1.300e+01 -1.300e+01 -1.300e+01 -1.300e+01 -1.300e+01 -1.300e+01 -1.300e+01 -1.300e+01 -1.300e+01 -1.300e+01 -1.300e+01 -1.300e+01 -1.300e+01 -1.300e+01 -1.300e+01 -1.300e+01 -1.300e+01 -1.300e+01 -1.300e+01 -1.300e+01 -1.300e+01 -1.300e+01 -1.300e+01 -1.300e+01 -1.300e+01 -1.300e+01 -1.300e+01 -1.300e+01 -1.300e+01 -1.300e+01 -1.300e+01 -1.300e+01 -1.300e+01 -1.300e+01 -1.300e+01 -1.300e+01 -1.300e+01 -1.300e+01 -1.300e+01 -1.300e+01 -1.300e+01 -1.300e+01 -1.300e+01 -1.300e+01 -1.300e+01 -1.300e+01 -1.300e+01 -1.300e+01 -1.300e+01 -1.300e+01 -1.300e+01 -1.300e+01 -1.300e+01 -1.300e+01 -1.300e+01 -1.300e+01 -1.300e+01 -1.300e+01 -1.300e+01 -1.300e+01 -1.300e+01 -1.300e+01 -1.300e+01 -1.300e+01 -1.300e+01 -1.300e+01 -1.300e+01 -1.300e+01 -1.300e+01 -1.300e+01 -1.300e+01 -1.300e+01 -1.300e+01 -1.300e+01 -1.300e+01 -1.300e+01 -1.300e+01 -1.300e+01 -1.300e+01 -1.300e+01 -1.300e+01 -1.300e+01 -1.300e+01 -1.300e+01 -1.300e+01 -1.300e+01 -1.300e+01 -1.300e+01 -1.300e+01 -1.300e+01 -1.300e+01 -1.300e+01 -1.300e+01 -1.300e+01 -1.300e+01 -1.300e+01 -1.300e+01 -1.300e+01 -1.300e+01 -1.300e+01 -1.300e+01 -1.300e+01 -1.300e+01 -1.300e+01 -1.300e+01 -1.300e+01 -1.300e+01 -1.300e+01 -1.300e+01 -1.300e+01 -1.300e+01 -1.300e+01 -1.300e+01 -1.300e+01 -1.300e+01 -1.300e+01 -1.300e+01 -1.300e+01 -1.300e+01 -1.300e+01 -1.300e+01 -1.300e+01 -1.300e+01 -1.300e+01 -1.300e+01 -1.300e+01 -1.300e+01 -1.300e+01 -1.300e+01 -1.300e+01 -1.300e+01 -1.300e+01 -1.300e+01 -1.300e+01 -1.300e+01 -1.300e+01 -1.300e+01 -1.300e+01 -1.300e+01 -1.300e+01 -1.300e+01 -1.300e+01 -1.300e+01 -1.300e+01 -1.300e+01 -1.300e+01 -1.300e+01 -1.300e+01 -1.300e+01 -1.300e+01 -1.300e+01 -1.300e+01 -1.300e+01 -1.300e+01 -1.300e+01 -1.300e+01 -1.300e+01 -1.300e+01 -1.300e+01 -1.300e+01 -1.300e+01 -1.300e+01 -1.300e+01 -1.300e+01 -1.300e+01 -1.300e+01 -1.300e+01 -1.300e+01 -1.300e+01 -1.300e+01 -1.300e+01 -1.300e+01 -1.300e+01 -1.300e+01 -1.300e+01 -1.300e+01 -1.300e+01 -1.300e+01 -1.300e+01 -1.300e+01 -1.300e+01 -1.300e+01 -1.300e+01 -1.300e+01 -1.300e+01 -1.300e+01 -1.300e+01 -1.300e+01 -1.300e+01 -1.300e+01 -1.300e+01 -1.300e+01 -1.300e+01 -1.300e+01 -1.300e+01 -1.300e+01 -1.300e+01 -1.300e+01 -1.300e+01 -1.300e+01 -1.300e+01 -1.300e+01 -1.300e+01 -1.300e+01 -1.300e+01 -1.300e+01 -1.300e+01 -1.300e+01 -1.300e+01 -1.300e+01 -1.300e+01 -1.300e+01 -1.300e+01 -1.300e+01 -1.300e+01 -1.300e+01 -1.300e+01 -1.300e+01 -1.300e+01 -1.300e+01 -1.300e+01 -1.300e+01 -1.300e+01 -1.300e+01 -1.300e+01 -1.300e+01 -1.300e+01 -1.300e+01 -1.300e+01 -1.300e+01 -1.300e+01 -1.300e+01 -1.300e+01 -1.300e+01 -1.300e+01 -1.300e+01 -1.300e+01 -1.300e+01 -1.300e+01 -1.300e+01 -1.300e+01 -1.300e+01 -1.300e+01 -1.300e+01 -1.300e+01 -1.300e+01 -1.300e+01 -1.300e+01 -1.300e+01 -1.300e+01 -1.300e+01 -1.300e+01 -1.300e+01 -1.300e+01 -1.300e+01 -1.300e+01 -1.300e+01 -1.300e+01 -1.300e+01 -1.300e+01 -1.300e+01 -1.300e+01 -1.300e+01 -1.300e+01 -1.300e+01 -1.300e+01 -1.300e+01 -1.300e+01 -1.300e+01 -1.300e+01 -1.300e+01 -1.300e+01 -1.300e+01 -1.300e+01 -1.300e+01 -1.300e+01 -1.300e+01 -1.300e+01 -1.300e+01 -1.300e+01 -1.300e+01 -1.300e+01 -1.300e+01 -1.300e+01 -1.300e+01 -1.300e+01 -1.300e+01 -1.300e+01 -1.300e+01 -1.300e+01 -1.300e+01 -1.300e+01 -1.300e+01 -1.300e+01 -1.300e+01 -5.000e+00 -5.000e+00 -5.000e+00 -5.000e+00 -5.000e+00 -5.000e+00 -5.000e+00 -5.000e+00 -5.000e+00 -5.000e+00 -5.000e+00 -5.000e+00 -5.000e+00 -5.000e+00 -5.000e+00 -5.000e+00 -5.000e+00 -5.000e+00 -5.000e+00 -5.000e+00 -5.000e+00 -5.000e+00 -5.000e+00 -5.000e+00 -5.000e+00 -5.000e+00 -5.000e+00 -5.000e+00 -5.000e+00 -5.000e+00 -5.000e+00 -5.000e+00 -5.000e+00 -5.000e+00 -5.000e+00 -5.000e+00 -5.000e+00 -5.000e+00 -5.000e+00 -5.000e+00 -5.000e+00 -5.000e+00 -5.000e+00 -1.300e+01 -1.300e+01 -1.300e+01 -1.300e+01 -1.300e+01 -1.300e+01 -1.300e+01 -1.300e+01 -1.300e+01 -1.300e+01 -1.300e+01 -1.300e+01 -1.300e+01 -1.300e+01 -1.300e+01 -1.300e+01 -1.300e+01 -1.300e+01 -1.300e+01 -1.300e+01 -1.300e+01 -1.300e+01 -1.300e+01 -1.300e+01 -1.300e+01 -1.300e+01 -1.300e+01 -1.300e+01 -1.300e+01 -1.300e+01 -1.300e+01 -1.300e+01 -1.300e+01 -1.300e+01 -1.300e+01 -1.300e+01 -1.300e+01 -1.300e+01 -1.300e+01 -1.300e+01 -1.300e+01 -1.300e+01 -1.300e+01 -1.300e+01 -1.300e+01 -1.300e+01 -1.300e+01 -1.300e+01 -1.300e+01 -1.300e+01 -1.300e+01 -1.300e+01 -1.300e+01 -1.300e+01 -1.300e+01 -1.300e+01 -1.300e+01 -1.300e+01 -1.300e+01 -1.300e+01 -1.300e+01 -1.300e+01 -1.300e+01 -1.300e+01 -1.300e+01 -1.300e+01 -1.300e+01 -1.300e+01 -1.300e+01 -1.300e+01 -1.300e+01 -1.300e+01 -1.300e+01 -1.300e+01 -1.300e+01 -1.300e+01 -1.300e+01 -1.300e+01 -1.300e+01 -1.300e+01 -1.300e+01 -1.300e+01 -1.300e+01 -1.300e+01 -1.300e+01 -1.300e+01 -1.300e+01 -1.300e+01 -1.300e+01 -1.300e+01 -1.300e+01 -1.300e+01 -1.300e+01 -1.300e+01 -1.300e+01 -1.300e+01 -1.300e+01 -1.300e+01 -1.300e+01 -1.300e+01 -1.300e+01 -1.300e+01 -1.300e+01 -1.300e+01 -1.300e+01 -1.300e+01 -1.300e+01 -1.300e+01 -1.300e+01 -1.300e+01 -1.300e+01 -1.300e+01 -1.300e+01 -1.300e+01 -1.300e+01 -1.300e+01 -1.300e+01 -1.300e+01 -1.300e+01 -1.300e+01 -1.300e+01 -1.300e+01 -1.300e+01 -1.300e+01 -1.300e+01 -1.300e+01 -1.300e+01 -1.300e+01 -1.300e+01 -1.300e+01 -1.300e+01 -1.300e+01 -1.300e+01 -1.300e+01 -1.300e+01 -1.300e+01 -1.300e+01 -1.300e+01 -1.300e+01 -1.300e+01 -1.300e+01 -1.300e+01 -1.300e+01 -1.300e+01 -1.300e+01 -1.300e+01 -1.300e+01 -1.300e+01 -1.300e+01 -1.300e+01 -1.300e+01 -1.300e+01 -1.300e+01 -1.300e+01 -1.300e+01 -1.300e+01 -1.300e+01 -1.300e+01 -1.300e+01 -1.300e+01 -1.300e+01 -1.300e+01 -1.300e+01 -1.300e+01 -1.300e+01 -1.300e+01 -1.300e+01 -1.300e+01 -1.300e+01 -1.300e+01 -1.300e+01 -1.300e+01 -1.300e+01 -1.300e+01 -1.300e+01 -1.300e+01 -1.300e+01 -1.300e+01 -1.300e+01 -1.300e+01 -1.300e+01 -1.300e+01 -1.300e+01 -1.300e+01 -1.300e+01 -1.300e+01 -1.300e+01 -1.300e+01 -1.300e+01 -1.300e+01 -1.300e+01 -1.300e+01 -1.300e+01 -1.300e+01 -1.300e+01 -1.300e+01 -1.300e+01 -1.300e+01 -1.300e+01 -1.300e+01 -1.300e+01 -1.300e+01 -1.300e+01 -1.300e+01 -1.300e+01 -1.300e+01 -1.300e+01 -1.300e+01 -1.300e+01 -1.300e+01 -1.300e+01 -1.300e+01 -1.300e+01 -1.300e+01 -1.300e+01 -1.300e+01 -1.300e+01 -1.300e+01 -1.300e+01 -1.300e+01 -1.300e+01 -1.300e+01 -1.300e+01 -1.300e+01 -1.300e+01 -1.300e+01 -1.300e+01 -1.300e+01 -1.300e+01 -1.300e+01 -1.300e+01 -1.300e+01 -1.300e+01 -1.300e+01 -1.300e+01 -1.300e+01 -1.300e+01 -1.300e+01 -1.300e+01 -1.300e+01 -1.300e+01 -1.300e+01 -1.300e+01 -1.300e+01 -1.300e+01 -1.300e+01 -1.300e+01 -1.300e+01 -1.300e+01 -1.300e+01 -1.300e+01 -1.300e+01 -1.300e+01 -1.300e+01 -1.300e+01 -1.300e+01 -1.300e+01 -1.300e+01 -1.300e+01 -1.300e+01 -1.300e+01 -1.300e+01 -1.300e+01 -1.300e+01 -1.300e+01 -1.300e+01 -1.300e+01 -1.300e+01 -1.300e+01 -1.300e+01 -1.300e+01 -1.300e+01 -1.300e+01 -1.300e+01 -1.300e+01 -1.300e+01 -1.300e+01 -1.300e+01 -1.300e+01 -1.300e+01 -1.300e+01 -1.300e+01 -1.300e+01 -1.300e+01 -1.300e+01 -1.300e+01 -1.300e+01 -1.300e+01 -1.300e+01 -1.300e+01 -1.300e+01 -1.300e+01 -1.300e+01 -1.300e+01 -1.300e+01 -1.300e+01 -1.300e+01 -1.300e+01 -1.300e+01 -1.300e+01 -1.300e+01 -1.300e+01 -1.300e+01 -1.300e+01 -1.300e+01 -1.300e+01 -1.300e+01 -1.300e+01 -1.300e+01 -1.300e+01 -1.300e+01 -1.300e+01 -1.300e+01 -1.300e+01 -1.300e+01 -1.300e+01 -1.300e+01 -1.300e+01 -1.300e+01 -1.300e+01 -1.300e+01 -1.300e+01 -1.300e+01 -1.300e+01 -1.300e+01 -1.300e+01 -1.300e+01 -1.300e+01 -1.300e+01 -1.300e+01 -1.300e+01 -1.300e+01 -1.300e+01 -1.300e+01 -1.300e+01 -1.300e+01 -1.300e+01 -1.300e+01 -1.300e+01 -1.300e+01 -1.300e+01 -1.300e+01 -1.300e+01 -1.300e+01 -1.300e+01 -1.300e+01 -1.300e+01 -1.300e+01 -1.300e+01 -1.300e+01 -1.300e+01 -1.300e+01 -1.300e+01 -1.300e+01 -1.300e+01 -1.300e+01 -1.300e+01 -1.300e+01 -1.300e+01 -1.300e+01 -1.300e+01 -1.300e+01 -1.300e+01 -1.300e+01 -1.300e+01 -1.300e+01 -1.300e+01 -1.300e+01 -1.300e+01 -1.300e+01 -1.300e+01 -1.300e+01 -1.300e+01 -1.300e+01 -1.300e+01 -1.300e+01 -1.300e+01 -1.300e+01 -1.300e+01 -1.300e+01 -1.300e+01 -1.300e+01 -1.300e+01 -1.300e+01 -1.300e+01 -1.300e+01 -1.300e+01 -1.300e+01 -1.300e+01 -1.300e+01 -1.300e+01 -1.300e+01 -1.300e+01 -1.300e+01 -1.300e+01 -1.300e+01 -1.300e+01 -1.300e+01 -1.300e+01 -1.300e+01 -1.300e+01 -1.300e+01 -1.300e+01 -1.300e+01 -1.300e+01 -1.300e+01 -1.300e+01 -1.300e+01 -1.300e+01 -1.300e+01 -1.300e+01 -1.300e+01 -1.300e+01 -1.300e+01 -1.300e+01 -1.300e+01 -1.300e+01 -1.300e+01 -1.300e+01 -1.300e+01 -1.300e+01 -1.300e+01 -1.300e+01 -1.300e+01 -1.300e+01 -1.300e+01 -1.300e+01 -1.300e+01 -1.300e+01 -1.300e+01 -1.300e+01 -1.300e+01 -1.300e+01 -1.300e+01 -1.300e+01 -1.300e+01 -1.300e+01 -1.300e+01 -1.300e+01 -1.300e+01 -1.300e+01 -1.300e+01 -1.300e+01 -1.300e+01 -1.300e+01 -1.300e+01 -1.300e+01 -1.300e+01 -1.300e+01 -1.300e+01 -1.300e+01 -1.300e+01 -1.300e+01 -1.300e+01 -5.000e+00 -5.000e+00 -5.000e+00 -5.000e+00 -5.000e+00 -5.000e+00 -5.000e+00 -5.000e+00 -5.000e+00 -5.000e+00 -5.000e+00 -5.000e+00 -5.000e+00 -5.000e+00 -5.000e+00 -5.000e+00 -5.000e+00 -5.000e+00 -5.000e+00 -5.000e+00 -5.000e+00 -5.000e+00 -5.000e+00 -5.000e+00 -5.000e+00 -5.000e+00 -5.000e+00 -5.000e+00 -5.000e+00 -5.000e+00 -5.000e+00 -5.000e+00 -5.000e+00 -5.000e+00 -5.000e+00 -5.000e+00 -5.000e+00 -5.000e+00 -5.000e+00 -5.000e+00 -5.000e+00 -5.000e+00 -5.000e+00 -1.300e+01 -1.300e+01 -1.300e+01 -1.300e+01 -1.300e+01 -1.300e+01 -1.300e+01 -1.300e+01 -1.300e+01 -1.300e+01 -1.300e+01 -1.300e+01 -1.300e+01 -1.300e+01 -1.300e+01 -1.300e+01 -1.300e+01 -1.300e+01 -1.300e+01 -1.300e+01 -1.300e+01 -1.300e+01 -1.300e+01 -1.300e+01 -1.300e+01 -1.300e+01 -1.300e+01 -1.300e+01 -1.300e+01 -1.300e+01 -1.300e+01 -1.300e+01 -1.300e+01 -1.300e+01 -1.300e+01 -1.300e+01 -1.300e+01 -1.300e+01 -1.300e+01 -1.300e+01 -1.300e+01 -1.300e+01 -1.300e+01 -1.300e+01 -1.300e+01 -1.300e+01 -1.300e+01 -1.300e+01 -1.300e+01 -1.300e+01 -1.300e+01 -1.300e+01 -1.300e+01 -1.300e+01 -1.300e+01 -1.300e+01 -1.300e+01 -1.300e+01 -1.300e+01 -1.300e+01 -1.300e+01 -1.300e+01 -1.300e+01 -1.300e+01 -1.300e+01 -1.300e+01 -1.300e+01 -1.300e+01 -1.300e+01 -1.300e+01 -1.300e+01 -1.300e+01 -1.300e+01 -1.300e+01 -1.300e+01 -1.300e+01 -1.300e+01 -1.300e+01 -1.300e+01 -1.300e+01 -1.300e+01 -1.300e+01 -1.300e+01 -1.300e+01 -1.300e+01 -1.300e+01 -1.300e+01 -1.300e+01 -1.300e+01 -1.300e+01 -1.300e+01 -1.300e+01 -1.300e+01 -1.300e+01 -1.300e+01 -1.300e+01 -1.300e+01 -1.300e+01 -1.300e+01 -1.300e+01 -1.300e+01 -1.300e+01 -1.300e+01 -1.300e+01 -1.300e+01 -1.300e+01 -1.300e+01 -1.300e+01 -1.300e+01 -1.300e+01 -1.300e+01 -1.300e+01 -1.300e+01 -1.300e+01 -1.300e+01 -1.300e+01 -1.300e+01 -1.300e+01 -1.300e+01 -1.300e+01 -1.300e+01 -1.300e+01 -1.300e+01 -1.300e+01 -1.300e+01 -1.300e+01 -1.300e+01 -1.300e+01 -1.300e+01 -1.300e+01 -1.300e+01 -1.300e+01 -1.300e+01 -1.300e+01 -1.300e+01 -1.300e+01 -1.300e+01 -1.300e+01 -1.300e+01 -1.300e+01 -1.300e+01 -1.300e+01 -1.300e+01 -1.300e+01 -1.300e+01 -1.300e+01 -1.300e+01 -1.300e+01 -1.300e+01 -1.300e+01 -1.300e+01 -1.300e+01 -1.300e+01 -1.300e+01 -1.300e+01 -1.300e+01 -1.300e+01 -1.300e+01 -1.300e+01 -1.300e+01 -1.300e+01 -1.300e+01 -1.300e+01 -1.300e+01 -1.300e+01 -1.300e+01 -1.300e+01 -1.300e+01 -1.300e+01 -1.300e+01 -1.300e+01 -1.300e+01 -1.300e+01 -1.300e+01 -1.300e+01 -1.300e+01 -1.300e+01 -1.300e+01 -1.300e+01 -1.300e+01 -1.300e+01 -1.300e+01 -1.300e+01 -1.300e+01 -1.300e+01 -1.300e+01 -1.300e+01 -1.300e+01 -1.300e+01 -1.300e+01 -1.300e+01 -1.300e+01 -1.300e+01 -1.300e+01 -1.300e+01 -1.300e+01 -1.300e+01 -1.300e+01 -1.300e+01 -1.300e+01 -1.300e+01 -1.300e+01 -1.300e+01 -1.300e+01 -1.300e+01 -1.300e+01 -1.300e+01 -1.300e+01 -1.300e+01 -1.300e+01 -1.300e+01 -1.300e+01 -1.300e+01 -1.300e+01 -1.300e+01 -1.300e+01 -1.300e+01 -1.300e+01 -1.300e+01 -1.300e+01 -1.300e+01 -1.300e+01 -1.300e+01 -1.300e+01 -1.300e+01 -1.300e+01 -1.300e+01 -1.300e+01 -1.300e+01 -1.300e+01 -1.300e+01 -1.300e+01 -1.300e+01 -1.300e+01 -1.300e+01 -1.300e+01 -1.300e+01 -1.300e+01 -1.300e+01 -1.300e+01 -1.300e+01 -1.300e+01 -1.300e+01 -1.300e+01 -1.300e+01 -1.300e+01 -1.300e+01 -1.300e+01 -1.300e+01 -1.300e+01 -1.300e+01 -1.300e+01 -1.300e+01 -1.300e+01 -1.300e+01 -1.300e+01 -1.300e+01 -1.300e+01 -1.300e+01 -1.300e+01 -1.300e+01 -1.300e+01 -1.300e+01 -1.300e+01 -1.300e+01 -1.300e+01 -1.300e+01 -1.300e+01 -1.300e+01 -1.300e+01 -1.300e+01 -1.300e+01 -1.300e+01 -1.300e+01 -1.300e+01 -1.300e+01 -1.300e+01 -1.300e+01 -1.300e+01 -1.300e+01 -1.300e+01 -1.300e+01 -1.300e+01 -1.300e+01 -1.300e+01 -1.300e+01 -1.300e+01 -1.300e+01 -1.300e+01 -1.300e+01 -1.300e+01 -1.300e+01 -1.300e+01 -1.300e+01 -1.300e+01 -1.300e+01 -1.300e+01 -1.300e+01 -1.300e+01 -1.300e+01 -1.300e+01 -1.300e+01 -1.300e+01 -1.300e+01 -1.300e+01 -1.300e+01 -1.300e+01 -1.300e+01 -1.300e+01 -1.300e+01 -1.300e+01 -1.300e+01 -1.300e+01 -1.300e+01 -1.300e+01 -1.300e+01 -1.300e+01 -1.300e+01 -1.300e+01 -1.300e+01 -1.300e+01 -1.300e+01 -1.300e+01 -1.300e+01 -1.300e+01 -1.300e+01 -1.300e+01 -1.300e+01