<?xml version="1.0"?>
<VTKFile type="UnstructuredGrid" version="0.1" byte_order="LittleEndian">
   <UnstructuredGrid>
      <Piece NumberOfPoints="8500" NumberOfCells="581">
         <Points>
            <DataArray type="Float32" Name="Position" NumberOfComponents="3" format="ascii">
-0.155	-5.023	0.003
-0.148	-5.018	0.001
-0.138	-5.019	-0.001
-0.131	-5.025	-0.002
-0.129	-5.034	-0.002
-0.132	-5.042	-0.000
-0.140	-5.047	0.002
-0.149	-5.047	0.004
-0.156	-5.041	0.005
-0.158	-5.032	0.005
-0.351	-5.102	-0.853
-0.343	-5.097	-0.854
-0.334	-5.098	-0.856
-0.327	-5.104	-0.857
-0.325	-5.113	-0.856
-0.328	-5.121	-0.855
-0.336	-5.126	-0.854
-0.345	-5.125	-0.852
-0.352	-5.119	-0.852
-0.354	-5.110	-0.852
-0.347	-5.103	-0.936
-0.347	-5.098	-0.928
-0.347	-5.100	-0.919
-0.347	-5.106	-0.912
-0.347	-5.116	-0.911
-0.347	-5.124	-0.915
-0.347	-5.128	-0.923
-0.347	-5.127	-0.932
-0.347	-5.120	-0.939
-0.347	-5.111	-0.940
-0.271	-5.105	0.000
-0.267	-5.098	0.003
-0.268	-5.089	0.005
-0.274	-5.082	0.003
-0.282	-5.079	0.000
-0.290	-5.082	-0.004
-0.294	-5.090	-0.007
-0.293	-5.099	-0.009
-0.287	-5.106	-0.008
-0.279	-5.109	-0.004
-0.577	-5.238	0.659
-0.573	-5.231	0.663
-0.574	-5.222	0.664
-0.580	-5.215	0.663
-0.588	-5.212	0.659
-0.595	-5.215	0.655
-0.599	-5.223	0.652
-0.598	-5.232	0.650
-0.593	-5.239	0.652
-0.584	-5.242	0.655
-1.232	-6.037	-0.052
-1.232	-6.029	-0.048
-1.232	-6.019	-0.049
-1.233	-6.013	-0.055
-1.233	-6.011	-0.064
-1.233	-6.015	-0.073
-1.233	-6.023	-0.077
-1.232	-6.032	-0.076
-1.232	-6.039	-0.070
-1.232	-6.041	-0.061
-1.760	-6.068	-0.038
-1.761	-6.060	-0.033
-1.761	-6.051	-0.034
-1.762	-6.044	-0.040
-1.762	-6.042	-0.049
-1.762	-6.046	-0.058
-1.762	-6.054	-0.062
-1.761	-6.063	-0.061
-1.761	-6.070	-0.055
-1.760	-6.072	-0.046
-1.316	-6.161	-0.054
-1.316	-6.153	-0.050
-1.317	-6.144	-0.051
-1.317	-6.137	-0.058
-1.316	-6.136	-0.067
-1.315	-6.140	-0.075
-1.315	-6.148	-0.080
-1.314	-6.157	-0.078
-1.315	-6.164	-0.071
-1.315	-6.165	-0.062
-1.943	-6.190	-0.093
-1.944	-6.182	-0.089
-1.944	-6.173	-0.090
-1.944	-6.166	-0.097
-1.944	-6.165	-0.106
-1.943	-6.169	-0.114
-1.942	-6.177	-0.118
-1.942	-6.186	-0.117
-1.942	-6.193	-0.110
-1.943	-6.194	-0.101
-1.390	-6.271	-0.078
-1.386	-6.267	-0.070
-1.385	-6.268	-0.061
-1.388	-6.272	-0.054
-1.394	-6.278	-0.051
-1.400	-6.284	-0.053
-1.405	-6.288	-0.061
-1.405	-6.288	-0.070
-1.402	-6.283	-0.078
-1.396	-6.277	-0.081
-1.031	-6.619	-0.122
-1.026	-6.616	-0.115
-1.026	-6.616	-0.105
-1.029	-6.621	-0.098
-1.035	-6.627	-0.095
-1.041	-6.633	-0.098
-1.045	-6.637	-0.105
-1.046	-6.636	-0.114
-1.043	-6.632	-0.122
-1.037	-6.626	-0.125
-1.458	-6.416	-0.066
-1.455	-6.408	-0.064
-1.457	-6.399	-0.061
-1.465	-6.394	-0.059
-1.474	-6.394	-0.059
-1.482	-6.399	-0.059
-1.485	-6.408	-0.061
-1.482	-6.416	-0.064
-1.475	-6.421	-0.066
-1.465	-6.421	-0.067
-1.413	-6.549	0.418
-1.410	-6.541	0.420
-1.412	-6.532	0.423
-1.420	-6.527	0.425
-1.429	-6.527	0.426
-1.437	-6.532	0.425
-1.440	-6.541	0.423
-1.437	-6.549	0.421
-1.430	-6.555	0.419
-1.420	-6.554	0.418
-1.540	-6.550	-0.052
-1.542	-6.543	-0.047
-1.544	-6.534	-0.047
-1.545	-6.526	-0.053
-1.546	-6.524	-0.062
-1.545	-6.527	-0.071
-1.543	-6.535	-0.076
-1.542	-6.544	-0.076
-1.540	-6.551	-0.070
-1.540	-6.553	-0.061
-1.968	-6.637	-0.054
-1.970	-6.630	-0.049
-1.972	-6.620	-0.049
-1.973	-6.613	-0.055
-1.974	-6.611	-0.063
-1.973	-6.614	-0.072
-1.971	-6.621	-0.077
-1.970	-6.631	-0.077
-1.968	-6.638	-0.071
-1.968	-6.640	-0.062
-1.624	-6.659	-0.063
-1.616	-6.656	-0.065
-1.607	-6.659	-0.066
-1.601	-6.666	-0.065
-1.600	-6.674	-0.062
-1.605	-6.682	-0.059
-1.614	-6.685	-0.057
-1.623	-6.682	-0.056
-1.628	-6.675	-0.057
-1.629	-6.666	-0.060
-1.698	-6.795	-0.499
-1.690	-6.792	-0.502
-1.681	-6.795	-0.502
-1.675	-6.802	-0.501
-1.674	-6.811	-0.498
-1.679	-6.818	-0.495
-1.688	-6.821	-0.493
-1.696	-6.818	-0.492
-1.702	-6.811	-0.494
-1.703	-6.803	-0.496
-1.673	-6.814	-0.062
-1.669	-6.806	-0.061
-1.670	-6.797	-0.061
-1.677	-6.790	-0.061
-1.686	-6.789	-0.061
-1.694	-6.793	-0.061
-1.698	-6.801	-0.062
-1.697	-6.810	-0.062
-1.690	-6.817	-0.062
-1.681	-6.818	-0.062
-1.680	-6.832	0.358
-1.676	-6.823	0.358
-1.677	-6.814	0.359
-1.684	-6.808	0.359
-1.693	-6.806	0.359
-1.701	-6.811	0.359
-1.705	-6.819	0.358
-1.704	-6.828	0.358
-1.697	-6.835	0.358
-1.688	-6.836	0.358
-1.759	-6.927	-0.065
-1.751	-6.924	-0.067
-1.742	-6.926	-0.067
-1.736	-6.933	-0.066
-1.735	-6.942	-0.064
-1.740	-6.950	-0.061
-1.749	-6.953	-0.060
-1.758	-6.950	-0.060
-1.764	-6.943	-0.061
-1.764	-6.934	-0.063
-1.795	-7.027	-0.476
-1.786	-7.024	-0.477
-1.777	-7.026	-0.478
-1.771	-7.033	-0.476
-1.771	-7.042	-0.474
-1.776	-7.050	-0.472
-1.784	-7.053	-0.470
-1.793	-7.051	-0.470
-1.799	-7.044	-0.472
-1.800	-7.035	-0.474
-1.802	-7.084	-0.068
-1.799	-7.076	-0.065
-1.801	-7.067	-0.063
-1.808	-7.061	-0.062
-1.817	-7.060	-0.063
-1.825	-7.064	-0.065
-1.828	-7.072	-0.068
-1.826	-7.081	-0.071
-1.819	-7.087	-0.072
-1.810	-7.088	-0.071
-1.865	-7.210	0.336
-1.861	-7.202	0.339
-1.863	-7.193	0.341
-1.870	-7.187	0.342
-1.879	-7.186	0.341
-1.887	-7.190	0.339
-1.891	-7.198	0.336
-1.889	-7.207	0.333
-1.882	-7.213	0.332
-1.872	-7.214	0.334
-1.873	-7.222	-0.056
-1.873	-7.214	-0.051
-1.874	-7.205	-0.052
-1.874	-7.198	-0.059
-1.874	-7.196	-0.068
-1.874	-7.200	-0.076
-1.874	-7.208	-0.081
-1.874	-7.218	-0.079
-1.873	-7.224	-0.073
-1.873	-7.226	-0.064
-2.264	-7.241	-0.060
-2.260	-7.233	-0.060
-2.261	-7.224	-0.060
-2.268	-7.217	-0.060
-2.277	-7.216	-0.060
-2.285	-7.220	-0.060
-2.290	-7.228	-0.060
-2.288	-7.237	-0.060
-2.282	-7.244	-0.060
-2.272	-7.245	-0.060
-0.398	-5.171	-0.023
-0.394	-5.169	-0.016
-0.395	-5.168	-0.006
-0.401	-5.169	0.001
-0.410	-5.171	0.003
-0.418	-5.173	-0.001
-0.422	-5.176	-0.009
-0.421	-5.176	-0.018
-0.415	-5.176	-0.025
-0.406	-5.173	-0.027
-0.164	-6.013	0.080
-0.160	-6.011	0.088
-0.162	-6.009	0.097
-0.168	-6.009	0.103
-0.177	-6.011	0.105
-0.185	-6.014	0.101
-0.189	-6.017	0.093
-0.187	-6.019	0.084
-0.181	-6.019	0.078
-0.172	-6.017	0.076
-0.143	-6.085	0.104
-0.140	-6.081	0.111
-0.142	-6.079	0.120
-0.148	-6.078	0.127
-0.157	-6.080	0.128
-0.165	-6.084	0.124
-0.169	-6.087	0.117
-0.167	-6.090	0.108
-0.160	-6.090	0.101
-0.151	-6.088	0.100
-1.933	-7.360	-0.053
-1.933	-7.351	-0.049
-1.933	-7.342	-0.050
-1.933	-7.336	-0.057
-1.933	-7.334	-0.066
-1.933	-7.339	-0.074
-1.932	-7.347	-0.078
-1.932	-7.356	-0.077
-1.932	-7.362	-0.070
-1.932	-7.364	-0.061
-2.284	-7.371	-0.064
-2.284	-7.362	-0.059
-2.284	-7.353	-0.061
-2.284	-7.347	-0.067
-2.284	-7.345	-0.077
-2.284	-7.349	-0.085
-2.283	-7.358	-0.089
-2.283	-7.367	-0.088
-2.283	-7.373	-0.081
-2.283	-7.375	-0.072
-1.982	-7.482	-0.075
-1.979	-7.477	-0.068
-1.979	-7.477	-0.058
-1.982	-7.481	-0.051
-1.987	-7.489	-0.048
-1.992	-7.496	-0.051
-1.995	-7.501	-0.058
-1.995	-7.501	-0.068
-1.991	-7.497	-0.075
-1.987	-7.489	-0.078
-1.694	-7.670	-0.069
-1.691	-7.665	-0.061
-1.691	-7.665	-0.052
-1.694	-7.669	-0.045
-1.699	-7.677	-0.042
-1.704	-7.684	-0.044
-1.707	-7.689	-0.052
-1.707	-7.689	-0.061
-1.704	-7.684	-0.069
-1.699	-7.677	-0.072
-2.039	-7.640	-0.052
-2.039	-7.632	-0.048
-2.040	-7.623	-0.049
-2.040	-7.616	-0.055
-2.041	-7.614	-0.065
-2.041	-7.618	-0.073
-2.041	-7.626	-0.077
-2.041	-7.635	-0.076
-2.040	-7.642	-0.070
-2.040	-7.644	-0.061
-2.335	-7.647	-0.039
-2.335	-7.639	-0.034
-2.335	-7.629	-0.035
-2.336	-7.623	-0.041
-2.336	-7.621	-0.051
-2.337	-7.625	-0.059
-2.337	-7.633	-0.063
-2.336	-7.642	-0.062
-2.336	-7.649	-0.056
-2.335	-7.651	-0.047
-2.095	-7.760	-0.065
-2.086	-7.757	-0.066
-2.077	-7.760	-0.065
-2.072	-7.767	-0.063
-2.072	-7.776	-0.061
-2.077	-7.784	-0.059
-2.086	-7.787	-0.059
-2.095	-7.784	-0.060
-2.100	-7.777	-0.062
-2.100	-7.768	-0.064
-2.082	-7.828	-0.371
-2.073	-7.825	-0.372
-2.064	-7.828	-0.371
-2.059	-7.835	-0.369
-2.059	-7.844	-0.367
-2.064	-7.851	-0.365
-2.073	-7.854	-0.365
-2.082	-7.852	-0.366
-2.087	-7.844	-0.368
-2.087	-7.835	-0.370
-2.142	-7.905	-0.061
-2.134	-7.901	-0.065
-2.125	-7.902	-0.067
-2.119	-7.909	-0.068
-2.117	-7.917	-0.066
-2.120	-7.925	-0.063
-2.127	-7.929	-0.059
-2.136	-7.928	-0.057
-2.143	-7.922	-0.056
-2.145	-7.913	-0.058
-2.189	-7.974	-0.280
-2.185	-7.974	-0.271
-2.186	-7.974	-0.262
-2.193	-7.974	-0.256
-2.202	-7.974	-0.254
-2.210	-7.974	-0.259
-2.214	-7.974	-0.267
-2.213	-7.974	-0.276
-2.206	-7.974	-0.282
-2.197	-7.974	-0.284
-2.185	-8.047	-0.058
-2.177	-8.044	-0.060
-2.168	-8.046	-0.061
-2.161	-8.053	-0.060
-2.161	-8.062	-0.058
-2.165	-8.070	-0.056
-2.174	-8.073	-0.054
-2.183	-8.071	-0.054
-2.189	-8.064	-0.054
-2.190	-8.055	-0.056
-2.210	-8.097	-0.296
-2.201	-8.094	-0.298
-2.192	-8.096	-0.299
-2.186	-8.103	-0.298
-2.185	-8.112	-0.296
-2.190	-8.120	-0.294
-2.199	-8.123	-0.292
-2.208	-8.121	-0.292
-2.214	-8.114	-0.293
-2.215	-8.105	-0.294
-2.230	-8.191	-0.052
-2.222	-8.187	-0.055
-2.213	-8.189	-0.056
-2.206	-8.196	-0.056
-2.205	-8.205	-0.054
-2.209	-8.212	-0.051
-2.217	-8.216	-0.048
-2.226	-8.214	-0.047
-2.232	-8.207	-0.047
-2.234	-8.198	-0.049
-2.279	-8.248	-0.271
-2.271	-8.245	-0.274
-2.262	-8.247	-0.275
-2.256	-8.253	-0.275
-2.255	-8.262	-0.273
-2.259	-8.270	-0.270
-2.267	-8.274	-0.267
-2.276	-8.272	-0.266
-2.282	-8.265	-0.266
-2.284	-8.256	-0.268
-2.271	-8.333	-0.054
-2.262	-8.331	-0.054
-2.253	-8.334	-0.053
-2.248	-8.341	-0.051
-2.249	-8.350	-0.048
-2.254	-8.357	-0.047
-2.263	-8.360	-0.046
-2.272	-8.356	-0.047
-2.277	-8.349	-0.050
-2.277	-8.340	-0.052
-2.245	-8.391	-0.224
-2.241	-8.391	-0.215
-2.242	-8.391	-0.206
-2.249	-8.391	-0.200
-2.258	-8.391	-0.198
-2.266	-8.391	-0.202
-2.270	-8.391	-0.211
-2.269	-8.391	-0.220
-2.262	-8.391	-0.226
-2.253	-8.391	-0.228
-2.305	-8.500	-0.041
-2.305	-8.492	-0.036
-2.305	-8.482	-0.037
-2.306	-8.476	-0.044
-2.306	-8.474	-0.053
-2.306	-8.478	-0.061
-2.306	-8.486	-0.066
-2.306	-8.495	-0.064
-2.305	-8.502	-0.058
-2.305	-8.504	-0.049
-2.511	-8.506	-0.036
-2.511	-8.498	-0.032
-2.512	-8.488	-0.033
-2.512	-8.482	-0.039
-2.512	-8.480	-0.049
-2.512	-8.484	-0.057
-2.512	-8.492	-0.061
-2.512	-8.501	-0.060
-2.512	-8.508	-0.054
-2.511	-8.510	-0.045
-2.336	-8.643	-0.053
-2.332	-8.635	-0.051
-2.334	-8.626	-0.049
-2.341	-8.620	-0.048
-2.350	-8.619	-0.049
-2.358	-8.623	-0.052
[...]
         <CellData>
           <DataArray type="Float32" Name="combinedRootClassID" NumberOfComponents="1" format="ascii">
 -1.300e+01 -1.300e+01 -1.300e+01 -1.300e+01 -1.300e+01 -1.300e+01 -1.300e+01 -1.300e+01 -1.300e+01 -1.300e+01 -1.300e+01 -1.300e+01 -1.300e+01 -1.300e+01 -1.300e+01 -1.300e+01 -1.300e+01 -1.300e+01 -1.300e+01 -1.300e+01 -1.300e+01 -1.300e+01 -1.300e+01 -1.300e+01 -1.300e+01 -1.300e+01 -1.300e+01 -1.300e+01 -1.300e+01 -1.300e+01 -1.300e+01 -1.300e+01 -1.300e+01 -1.300e+01 -1.300e+01 -1.300e+01 -1.300e+01 -1.300e+01 -5.000e+00 -5.000e+00 -5.000e+00 -5.000e+00 -5.000e+00 -5.000e+00 -5.000e+00 -5.000e+00 -5.000e+00 -5.000e+00 -5.000e+00 -5.000e+00 -5.000e+00 -5.000e+00 -5.000e+00 -5.000e+00 -5.000e+00 -5.000e+00 -1.300e+01 -1.300e+01 -1.300e+01 -1.300e+01 -1.300e+01 -1.300e+01 -1.300e+01 -1.300e+01 -1.300e+01 -1.300e+01 -1.300e+01 -1.300e+01 -1.300e+01 -1.300e+01 -1.300e+01 -1.300e+01 -1.300e+01 -1.300e+01 -1.300e+01 -1.300e+01 -1.300e+01 -1.300e+01 -1.300e+01 -1.300e+01 -1.300e+01 -1.300e+01 -1.300e+01 -1.300e+01 -1.300e+01 -1.300e+01 -1.300e+01 -1.300e+01 -1.300e+01 -1.300e+01 -1.300e+01 -1.300e+01 -5.000e+00 -5.000e+00 -5.000e+00 -5.000e+00 -5.000e+00 -5.000e+00 -5.000e+00 -5.000e+00 -5.000e+00 -5.000e+00 -5.000e+00 -5.000e+00 -5.000e+00 -5.000e+00 -5.000e+00 -5.000e+00 -5.000e+00 -5.000e+00 -1.300e+01 -1.300e+01 -1.300e+01 -1.300e+01 -1.300e+01 -1.300e+01 -1.300e+01 -1.300e+01 -1.300e+01 -1.300e+01 -1.300e+01 -1.300e+01 -1.300e+01 -1.300e+01 -1.300e+01 -1.300e+01 -1.300e+01 -1.300e+01 -1.300e+01 -1.300e+01 -1.300e+01 -1.300e+01 -1.300e+01 -1.300e+01 -1.300e+01 -1.300e+01 -1.300e+01 -1.300e+01 -1.300e+01 -1.300e+01 -1.300e+01 -1.300e+01 -1.300e+01 -1.300e+01 -1.300e+01 -1.300e+01 -1.300e+01 -5.000e+00 -5.000e+00 -5.000e+00 -5.000e+00 -5.000e+00 -5.000e+00 -5.000e+00 -5.000e+00 -5.000e+00 -5.000e+00 -5.000e+00 -5.000e+00 -5.000e+00 -5.000e+00 -5.000e+00 -5.000e+00 -5.000e+00 -5.000e+00 -1.300e+01 -1.300e+01 -1.300e+01 -1.300e+01 -1.300e+01 -1.300e+01 -1.300e+01 -1.300e+01 -1.300e+01 -1.300e+01 -1.300e+01 -1.300e+01 -1.300e+01 -1.300e+01 -1.300e+01 -1.300e+01 -1.300e+01 -1.300e+01 -1.300e+01 -1.300e+01 -1.300e+01 -1.300e+01 -1.300e+01 -1.300e+01 -1.300e+01 -1.300e+01 -1.300e+01 -1.300e+01 -1.300e+01 -1.300e+01 -1.300e+01 -1.300e+01 -1.300e+01 -1.300e+01 -1.300e+01 -1.300e+01 -5.000e+00 -5.000e+00 -5.000e+00 -5.000e+00 -5.000e+00 -5.000e+00 -5.000e+00 -5.000e+00 -5.000e+00 -5.000e+00 -5.000e+00 -5.000e+00 -5.000e+00 -5.000e+00 -5.000e+00 -5.000e+00 -5.000e+00 -5.000e+00 -1.100e+01 -1.100e+01 -1.100e+01 -1.100e+01 -1.100e+01 -1.100e+01 -1.100e+01 -1.100e+01 -1.100e+01 -1.100e+01 -1.100e+01 -1.100e+01 -1.100e+01 -1.100e+01 -1.100e+01 -1.100e+01 -1.100e+01 -1.100e+01 -1.100e+01 -1.100e+01 -1.100e+01 -1.100e+01 -1.100e+01 -1.100e+01 -1.100e+01 -1.100e+01 -1.100e+01 -1.100e+01 -2.000e+00 -2.000e+00 -2.000e+00 -2.000e+00 -2.000e+00 -2.000e+00 -2.000e+00 -2.000e+00 -2.000e+00 -2.000e+00 -7.000e+00 -7.000e+00 -7.000e+00 -7.000e+00 -7.000e+00 -7.000e+00 -7.000e+00 -7.000e+00 -7.000e+00 -7.000e+00 -7.000e+00 -7.000e+00 -7.000e+00 -7.000e+00 -7.000e+00 -7.000e+00 -7.000e+00 -7.000e+00 -7.000e+00 -7.000e+00 -7.000e+00 -7.000e+00 -7.000e+00 -7.000e+00 -7.000e+00 -7.000e+00 -7.000e+00 -7.000e+00 -7.000e+00 -7.000e+00 -7.000e+00 -7.000e+00 -7.000e+00 -7.000e+00 -7.000e+00 -7.000e+00 -7.000e+00 -7.000e+00 -7.000e+00 -7.000e+00 -7.000e+00 -7.000e+00 -7.000e+00 -7.000e+00 -7.000e+00 -7.000e+00 -7.000e+00 -7.000e+00 -7.000e+00 -7.000e+00 -7.000e+00 -7.000e+00 -7.000e+00 -7.000e+00 -7.000e+00 -7.000e+00 -7.000e+00 -7.000e+00 -7.000e+00 -7.000e+00 -7.000e+00 -7.000e+00 -7.000e+00 -7.000e+00 -7.000e+00 -7.000e+00 -7.000e+00 -7.000e+00 -7.000e+00 -7.000e+00 -7.000e+00 -7.000e+00 -7.000e+00 -7.000e+00 -7.000e+00 -7.000e+00 -7.000e+00 -7.000e+00 -7.000e+00 -7.000e+00 -7.000e+00 -7.000e+00 -7.000e+00 -7.000e+00 -7.000e+00 -7.000e+00 -7.000e+00 -7.000e+00 -7.000e+00 -7.000e+00 -7.000e+00 -7.000e+00 -7.000e+00 -7.000e+00 -7.000e+00 -7.000e+00 -7.000e+00 -7.000e+00 -7.000e+00 -7.000e+00 -7.000e+00 -7.000e+00 -7.000e+00 -7.000e+00 -7.000e+00 -7.000e+00 -7.000e+00 -7.000e+00 -7.000e+00 -7.000e+00 -7.000e+00 -7.000e+00 -7.000e+00 -7.000e+00 -7.000e+00 -7.000e+00 -7.000e+00 -7.000e+00 -7.000e+00 -7.000e+00 -7.000e+00 -7.000e+00 -7.000e+00 -7.000e+00 -7.000e+00 -7.000e+00 -7.000e+00 -7.000e+00 -7.000e+00 -7.000e+00 -7.000e+00 -7.000e+00 -7.000e+00 -7.000e+00 -7.000e+00 -7.000e+00 -7.000e+00 -7.000e+00 -7.000e+00 -7.000e+00 -7.000e+00 -7.000e+00 -7.000e+00 -7.000e+00 -7.000e+00 -7.000e+00 -7.000e+00 -7.000e+00 -7.000e+00 -7.000e+00 -7.000e+00 -7.000e+00 -7.000e+00 -7.000e+00 -7.000e+00 -7.000e+00 -7.000e+00 -7.000e+00 -7.000e+00 -7.000e+00 -7.000e+00 -7.000e+00 -7.000e+00 -7.000e+00 -7.000e+00 -7.000e+00 -7.000e+00 -7.000e+00 -7.000e+00 -7.000e+00 -7.000e+00 -7.000e+00 -7.000e+00 -7.000e+00 -7.000e+00 -7.000e+00 -7.000e+00 -7.000e+00 -7.000e+00 -7.000e+00 -7.000e+00 -7.000e+00 -7.000e+00 -7.000e+00 -7.000e+00 -7.000e+00 -7.000e+00 -7.000e+00 -7.000e+00 -7.000e+00 -7.000e+00 -7.000e+00 -7.000e+00 -7.000e+00 -7.000e+00 -7.000e+00 -7.000e+00 -7.000e+00 -7.000e+00 -7.000e+00 -7.000e+00 -7.000e+00 -7.000e+00 -7.000e+00 -7.000e+00 -7.000e+00 -7.000e+00 -7.000e+00 -7.000e+00 -7.000e+00 -7.000e+00 -7.000e+00 -7.000e+00 -7.000e+00 -7.000e+00 -7.000e+00 -7.000e+00 -7.000e+00 -7.000e+00 -7.000e+00 -7.000e+00 -7.000e+00 -7.000e+00 -7.000e+00 -7.000e+00 -7.000e+00 -7.000e+00 -7.000e+00 -7.000e+00 -7.000e+00 -7.000e+00 -7.000e+00 -7.000e+00 -7.000e+00 -7.000e+00 -7.000e+00 -7.000e+00 -7.000e+00 -7.000e+00 -7.000e+00 -7.000e+00 -7.000e+00 -7.000e+00 -7.000e+00 -7.000e+00 -7.000e+00 -7.000e+00 -7.000e+00 -7.000e+00 -7.000e+00 -7.000e+00 -7.000e+00 -7.000e+00 -7.000e+00 -7.000e+00 -7.000e+00 -7.000e+00 -7.000e+00 -7.000e+00 -7.000e+00 -7.000e+00 -7.000e+00 -7.000e+00 -7.000e+00 -7.000e+00 -7.000e+00 -7.000e+00 -7.000e+00 -7.000e+00 -7.000e+00 -7.000e+00 -7.000e+00 -7.000e+00 -7.000e+00 -7.000e+00 -7.000e+00 -7.000e+00 -7.000e+00 -7.000e+00 -7.000e+00 -7.000e+00 -7.000e+00 -7.000e+00 -7.000e+00 -7.000e+00 -9.000e+00 -9.000e+00 -9.000e+00 -9.000e+00 -9.000e+00 -9.000e+00 -9.000e+00 -9.000e+00 -9.000e+00 -4.000e+00 -4.000e+00 -4.000e+00 -4.000e+00 -4.000e+00 -4.000e+00 -4.000e+00 -4.000e+00 -4.000e+00 -4.000e+00 -4.000e+00 -4.000e+00 -4.000e+00 -4.000e+00 -4.000e+00 -4.000e+00 -4.000e+00 -4.000e+00 -4.000e+00 -4.000e+00 -4.000e+00 -4.000e+00 -4.000e+00 -4.000e+00 -4.000e+00 -4.000e+00 -4.000e+00 -4.000e+00 -4.000e+00 -4.000e+00
           </DataArray>
           <DataArray type="Float32" Name="nitrate/Cmin" NumberOfComponents="1" format="ascii">
 1.000e-03 1.000e-03 1.000e-03 1.000e-03 1.000e-03 1.000e-03 1.000e-03 1.000e-03 1.000e-03 1.000e-03 1.000e-03 1.000e-03 1.000e-03 1.000e-03 1.000e-03 1.000e-03 1.000e-03 1.000e-03 1.000e-03 1.000e-03 1.000e-03 1.000e-03 1.000e-03 1.000e-03 1.000e-03 1.000e-03 1.000e-03 1.000e-03 1.000e-03 1.000e-03 1.000e-03 1.000e-03 1.000e-03 1.000e-03 1.000e-03 1.000e-03 1.000e-03 1.000e-03 1.000e-03 1.000e-03 1.000e-03 1.000e-03 1.000e-03 1.000e-03 1.000e-03 1.000e-03 1.000e-03 1.000e-03 1.000e-03 1.000e-03 1.000e-03 1.000e-03 1.000e-03 1.000e-03 1.000e-03 1.000e-03 1.000e-03 1.000e-03 1.000e-03 1.000e-03 1.000e-03 1.000e-03 1.000e-03 1.000e-03 1.000e-03 1.000e-03 1.000e-03 1.000e-03 1.000e-03 1.000e-03 1.000e-03 1.000e-03 1.000e-03 1.000e-03 1.000e-03 1.000e-03 1.000e-03 1.000e-03 1.000e-03 1.000e-03 1.000e-03 1.000e-03 1.000e-03 1.000e-03 1.000e-03 1.000e-03 1.000e-03 1.000e-03 1.000e-03 1.000e-03 1.000e-03 1.000e-03 1.000e-03 1.000e-03 1.000e-03 1.000e-03 1.000e-03 1.000e-03 1.000e-03 1.000e-03 1.000e-03 1.000e-03 1.000e-03 1.000e-03 1.000e-03 1.000e-03 1.000e-03 1.000e-03 1.000e-03 1.000e-03 1.000e-03 1.000e-03 1.000e-03 1.000e-03 1.000e-03 1.000e-03 1.000e-03 1.000e-03 1.000e-03 1.000e-03 1.000e-03 1.000e-03 1.000e-03 1.000e-03 1.000e-03 1.000e-03 1.000e-03 1.000e-03 1.000e-03 1.000e-03 1.000e-03 1.000e-03 1.000e-03 1.000e-03 1.000e-03 1.000e-03 1.000e-03 1.000e-03 1.000e-03 1.000e-03 1.000e-03 1.000e-03 1.000e-03 1.000e-03 1.000e-03 1.000e-03 1.000e-03 1.000e-03 1.000e-03 1.000e-03 1.000e-03 1.000e-03 1.000e-03 1.000e-03 1.000e-03 1.000e-03 1.000e-03 1.000e-03 1.000e-03 1.000e-03 1.000e-03 1.000e-03 1.000e-03 1.000e-03 1.000e-03 1.000e-03 1.000e-03 1.000e-03 1.000e-03 1.000e-03 1.000e-03 1.000e-03 1.000e-03 1.000e-03 1.000e-03 1.000e-03 1.000e-03 1.000e-03 1.000e-03 1.000e-03 1.000e-03 1.000e-03 1.000e-03 1.000e-03 1.000e-03 1.000e-03 1.000e-03 1.000e-03 1.000e-03 1.000e-03 1.000e-03 1.000e-03 1.000e-03 1.000e-03 1.000e-03 1.000e-03 1.000e-03 1.000e-03 1.000e-03 1.000e-03 1.000e-03 1.000e-03 1.000e-03 1.000e-03 1.000e-03 1.000e-03 1.000e-03 1.000e-03 1.000e-03 1.000e-03 1.000e-03 1.000e-03 1.000e-03 1.000e-03 1.000e-03 1.000e-03 1.000e-03 1.000e-03 1.000e-03 1.000e-03 1.000e-03 1.000e-03 1.000e-03 1.000e-03 1.000e-03 1.000e-03 1.000e-03 1.000e-03 1.000e-03 1.000e-03 1.000e-03 1.000e-03 1.000e-03 1.000e-03 1.000e-03 1.000e-03 1.000e-03 1.000e-03 1.000e-03 1.000e-03 1.000e-03 1.000e-03 1.000e-03 1.000e-03 1.000e-03 1.000e-03 1.000e-03 1.000e-03 1.000e-03 1.000e-03 1.000e-03 1.000e-03 1.000e-03 1.000e-03 1.000e-03 1.000e-03 1.000e-03 1.000e-03 1.000e-03 1.000e-03 1.000e-03 1.000e-03 1.000e-03 1.000e-03 1.000e-03 1.000e-03 1.000e-03 1.000e-03 1.000e-03 1.000e-03 1.000e-03 1.000e-03 1.000e-03 1.000e-03 1.000e-03 1.000e-03 1.000e-03 1.000e-03 1.000e-03 1.000e-03 1.000e-03 1.000e-03 1.000e-03 1.000e-03 1.000e-03 1.000e-03 1.000e-03 1.000e-03 1.000e-03 1.000e-03 1.000e-03 1.000e-03 1.000e-03 1.000e-03 1.000e-03 1.000e-03 1.000e-03 1.000e-03 1.000e-03 1.000e-03 1.000e-03 1.000e-03 1.000e-03 1.000e-03 1.000e-03 1.000e-03 1.000e-03 1.000e-03 1.000e-03 1.000e-03 1.000e-03 1.000e-03 1.000e-03 1.000e-03 1.000e-03 1.000e-03 1.000e-03 1.000e-03 1.000e-03 1.000e-03 1.000e-03 1.000e-03 1.000e-03 1.000e-03 1.000e-03 1.000e-03 1.000e-03 1.000e-03 1.000e-03 1.000e-03 1.000e-03 1.000e-03 1.000e-03 1.000e-03 1.000e-03 1.000e-03 1.000e-03 1.000e-03 1.000e-03 1.000e-03 1.000e-03 1.000e-03 1.000e-03 1.000e-03 1.000e-03 1.000e-03 1.000e-03 1.000e-03 1.000e-03 1.000e-03 1.000e-03 1.000e-03 1.000e-03 1.000e-03 1.000e-03 1.000e-03 1.000e-03 1.000e-03 1.000e-03 1.000e-03 1.000e-03 1.000e-03 1.000e-03 1.000e-03 1.000e-03 1.000e-03 1.000e-03 1.000e-03 1.000e-03 1.000e-03 1.000e-03 1.000e-03 1.000e-03 1.000e-03 1.000e-03 1.000e-03 1.000e-03 1.000e-03 1.000e-03 1.000e-03 1.000e-03 1.000e-03 1.000e-03 1.000e-03 1.000e-03 1.000e-03 1.000e-03 1.000e-03 1.000e-03 1.000e-03 1.000e-03 1.000e-03 1.000e-03 1.000e-03 1.000e-03 1.000e-03 1.000e-03 1.000e-03 1.000e-03 1.000e-03 1.000e-03 1.000e-03 1.000e-03 1.000e-03 1.000e-03 1.000e-03 1.000e-03 1.000e-03 1.000e-03 1.000e-03 1.000e-03 1.000e-03 1.000e-03 1.000e-03 1.000e-03 1.000e-03 1.000e-03 1.000e-03 1.000e-03 1.000e-03 1.000e-03 1.000e-03 1.000e-03 1.000e-03 1.000e-03 1.000e-03 1.000e-03 1.000e-03 1.000e-03 1.000e-03 1.000e-03 1.000e-03 1.000e-03 1.000e-03 1.000e-03 1.000e-03 1.000e-03 1.000e-03 1.000e-03 1.000e-03 1.000e-03 1.000e-03 1.000e-03 1.000e-03 1.000e-03 1.000e-03 1.000e-03 1.000e-03 1.000e-03 1.000e-03 1.000e-03 1.000e-03 1.000e-03 1.000e-03 1.000e-03 1.000e-03 1.000e-03 1.000e-03 1.000e-03 1.000e-03 1.000e-03 1.000e-03 1.000e-03 1.000e-03 1.000e-03 1.000e-03 1.000e-03 1.000e-03 1.000e-03 1.000e-03 1.000e-03 1.000e-03 1.000e-03 1.000e-03 1.000e-03 1.000e-03 1.000e-03 1.000e-03 1.000e-03 1.000e-03 1.000e-03 1.000e-03 1.000e-03 1.000e-03 1.000e-03 1.000e-03 1.000e-03 1.000e-03 1.000e-03 1.000e-03 1.000e-03 1.000e-03 1.000e-03 1.000e-03 1.000e-03 1.000e-03 1.000e-03 1.000e-03 1.000e-03 1.000e-03 1.000e-03 1.000e-03 1.000e-03 1.000e-03 1.000e-03 1.000e-03 1.000e-03 1.000e-03 1.000e-03 1.000e-03 1.000e-03 1.000e-03 1.000e-03 1.000e-03 1.000e-03 1.000e-03 1.000e-03 1.000e-03 1.000e-03 1.000e-03 1.000e-03 1.000e-03 1.000e-03 1.000e-03 1.000e-03 1.000e-03 1.000e-03 1.000e-03 1.000e-03 1.000e-03 1.000e-03 1.000e-03 1.000e-03 1.000e-03 1.000e-03 1.000e-03 1.000e-03 1.000e-03 1.000e-03 1.000e-03 1.000e-03 1.000e-03 1.000e-03 1.000e-03 1.000e-03 1.000e-03 1.000e-03 1.000e-03 1.000e-03 1.000e-03 1.000e-03 1.000e-03 1.000e-03 1.000e-03 1.000e-03 1.000e-03 1.000e-03 1.000e-03 1.000e-03 1.000e-03 1.000e-03 1.000e-03 1.000e-03 1.000e-03 1.000e-03 1.000e-03 1.000e-03 1.000e-03 1.000e-03 1.000e-03 1.000e-03 1.000e-03 1.000e-03 1.000e-03 1.000e-03 1.000e-03 1.000e-03 1.000e-03 1.000e-03 1.000e-03 1.000e-03
           </DataArray>
           <DataArray type="Float32" Name="nitrate/Imax" NumberOfComponents="1" format="ascii">
 1.900e+00 1.900e+00 1.900e+00 1.900e+00 1.900e+00 1.900e+00 1.900e+00 1.900e+00 1.900e+00 1.900e+00 1.900e+00 1.900e+00 1.900e+00 1.900e+00 1.900e+00 1.900e+00 1.900e+00 1.900e+00 1.900e+00 1.900e+00 1.900e+00 1.900e+00 1.900e+00 1.900e+00 1.900e+00 1.900e+00 1.900e+00 1.900e+00 1.900e+00 1.900e+00 1.900e+00 1.900e+00 1.900e+00 1.900e+00 1.900e+00 1.900e+00 1.900e+00 1.900e+00 1.900e+00 1.900e+00 1.900e+00 1.900e+00 1.900e+00 1.900e+00 1.900e+00 1.900e+00 1.900e+00 1.900e+00 1.900e+00 1.900e+00 1.900e+00 1.900e+00 1.900e+00 1.900e+00 1.900e+00 1.900e+00 1.900e+00 1.900e+00 1.900e+00 1.900e+00 1.900e+00 1.900e+00 1.900e+00 1.900e+00 1.900e+00 1.900e+00 1.900e+00 1.900e+00 1.900e+00 1.900e+00 1.900e+00 1.900e+00 1.900e+00 1.900e+00 1.900e+00 1.900e+00 1.900e+00 1.900e+00 1.900e+00 1.900e+00 1.900e+00 1.900e+00 1.900e+00 1.900e+00 1.900e+00 1.900e+00 1.900e+00 1.900e+00 1.900e+00 1.900e+00 1.900e+00 1.900e+00 1.900e+00 1.900e+00 1.900e+00 1.900e+00 1.900e+00 1.900e+00 1.900e+00 1.900e+00 1.900e+00 1.900e+00 1.900e+00 1.900e+00 1.900e+00 1.900e+00 1.900e+00 1.900e+00 1.900e+00 1.900e+00 1.900e+00 1.900e+00 1.900e+00 1.900e+00 1.900e+00 1.900e+00 1.900e+00 1.900e+00 1.900e+00 1.900e+00 1.900e+00 1.900e+00 1.900e+00 1.900e+00 1.900e+00 1.900e+00 1.900e+00 1.900e+00 1.900e+00 1.900e+00 1.900e+00 1.900e+00 1.900e+00 1.900e+00 1.900e+00 1.900e+00 1.900e+00 1.900e+00 1.900e+00 1.900e+00 1.900e+00 1.900e+00 1.900e+00 1.900e+00 1.900e+00 1.900e+00 1.900e+00 1.900e+00 1.900e+00 1.900e+00 1.900e+00 1.900e+00 1.900e+00 1.900e+00 1.900e+00 1.900e+00 1.900e+00 1.900e+00 1.900e+00 1.900e+00 1.900e+00 1.900e+00 1.900e+00 1.900e+00 1.900e+00 1.900e+00 1.900e+00 1.900e+00 1.900e+00 1.900e+00 1.900e+00 1.900e+00 1.900e+00 1.900e+00 1.900e+00 1.900e+00 1.900e+00 1.900e+00 1.900e+00 1.900e+00 1.900e+00 1.900e+00 1.900e+00 1.900e+00 1.900e+00 1.900e+00 1.900e+00 1.900e+00 1.900e+00 1.900e+00 1.900e+00 1.900e+00 1.900e+00 1.900e+00 1.900e+00 1.900e+00 1.900e+00 1.900e+00 1.900e+00 1.900e+00 1.900e+00 1.900e+00 1.900e+00 1.900e+00 1.900e+00 1.900e+00 1.900e+00 1.900e+00 1.900e+00 1.900e+00 1.900e+00 1.900e+00 1.900e+00 1.900e+00 1.900e+00 1.900e+00 1.900e+00 1.900e+00 1.900e+00 1.900e+00 1.900e+00 1.900e+00 1.900e+00 1.900e+00 1.900e+00 1.900e+00 1.900e+00 1.900e+00 1.900e+00 1.900e+00 1.900e+00 1.900e+00 1.900e+00 1.900e+00 1.900e+00 1.900e+00 1.900e+00 1.900e+00 1.900e+00 1.900e+00 1.900e+00 1.900e+00 1.900e+00 1.900e+00 1.900e+00 1.900e+00 1.900e+00 1.900e+00 1.900e+00 1.900e+00 1.900e+00 1.900e+00 1.900e+00 1.900e+00 1.900e+00 1.900e+00 1.900e+00 1.900e+00 1.900e+00 1.900e+00 1.900e+00 1.900e+00 1.900e+00 1.900e+00 1.900e+00 1.900e+00 1.900e+00 1.900e+00 1.900e+00 1.900e+00 1.900e+00 1.900e+00 1.900e+00 1.900e+00 1.900e+00 1.900e+00 1.900e+00 1.900e+00 1.900e+00 1.900e+00 1.900e+00 1.900e+00 1.900e+00 1.900e+00 1.900e+00 1.900e+00 1.900e+00 1.900e+00 1.900e+00 1.900e+00 1.900e+00 1.900e+00 1.900e+00 1.900e+00 1.900e+00 1.900e+00 1.900e+00 1.900e+00 1.900e+00 1.900e+00 1.900e+00 1.900e+00 1.900e+00 1.900e+00 1.900e+00 1.900e+00 1.900e+00 1.900e+00 1.900e+00 1.900e+00 1.900e+00 1.900e+00 1.900e+00 1.900e+00 1.900e+00 1.900e+00 1.900e+00 1.900e+00 1.900e+00 1.900e+00 1.900e+00 1.900e+00 1.900e+00 1.900e+00 1.900e+00 1.900e+00 1.900e+00 1.900e+00 1.900e+00 1.900e+00 1.900e+00 1.900e+00 1.900e+00 1.900e+00 1.900e+00 1.900e+00 1.900e+00 1.900e+00 1.900e+00 1.900e+00 1.900e+00 1.900e+00 1.900e+00 1.900e+00 1.900e+00 1.900e+00 1.900e+00 1.900e+00 1.900e+00 1.900e+00 1.900e+00 1.900e+00 1.900e+00 1.900e+00 1.900e+00 1.900e+00 1.900e+00 1.900e+00 1.900e+00 1.900e+00 1.900e+00 1.900e+00 1.900e+00 1.900e+00 1.900e+00 1.900e+00 1.900e+00 1.900e+00 1.900e+00 1.900e+00 1.900e+00 1.900e+00 1.900e+00 1.900e+00 1.900e+00 1.900e+00 1.900e+00 1.900e+00 1.900e+00 1.900e+00 1.900e+00 1.900e+00 1.900e+00 1.900e+00 1.900e+00 1.900e+00 1.900e+00 1.900e+00 1.900e+00 1.900e+00 1.900e+00 1.900e+00 1.900e+00 1.900e+00 1.900e+00 1.900e+00 1.900e+00 1.900e+00 1.900e+00 1.900e+00 1.900e+00 1.900e+00 1.900e+00 1.900e+00 1.900e+00 1.900e+00 1.900e+00 1.900e+00 1.900e+00 1.900e+00 1.900e+00 1.900e+00 1.900e+00 1.900e+00 1.900e+00 1.900e+00 1.900e+00 1.900e+00 1.900e+00 1.900e+00 1.900e+00 1.900e+00 1.900e+00 1.900e+00 1.900e+00 1.900e+00 1.900e+00 1.900e+00 1.900e+00 1.900e+00 1.900e+00 1.900e+00 1.900e+00 1.900e+00 1.900e+00 1.900e+00 1.900e+00 1.900e+00 1.900e+00 1.900e+00 1.900e+00 1.900e+00 1.900e+00 1.900e+00 1.900e+00 1.900e+00 1.900e+00 1.900e+00 1.900e+00 1.900e+00 1.900e+00 1.900e+00 1.900e+00 1.900e+00 1.900e+00 1.900e+00 1.900e+00 1.900e+00 1.900e+00 1.900e+00 1.900e+00 1.900e+00 1.900e+00 1.900e+00 1.900e+00 1.900e+00 1.900e+00 1.900e+00 1.900e+00 1.900e+00 1.900e+00 1.900e+00 1.900e+00 1.900e+00 1.900e+00 1.900e+00 1.900e+00 1.900e+00 1.900e+00 1.900e+00 1.900e+00 1.900e+00 1.900e+00 1.900e+00 1.900e+00 1.900e+00 1.900e+00 1.900e+00 1.900e+00 1.900e+00 1.900e+00 1.900e+00 1.900e+00 1.900e+00 1.900e+00 1.900e+00 1.900e+00 1.900e+00 1.900e+00 1.900e+00 1.900e+00 1.900e+00 1.900e+00 1.900e+00 1.900e+00 1.900e+00 1.900e+00 1.900e+00 1.900e+00 1.900e+00 1.900e+00 1.900e+00 1.900e+00 1.900e+00 1.900e+00 1.900e+00 1.900e+00 1.900e+00 1.900e+00 1.900e+00 1.900e+00 1.900e+00 1.900e+00 1.900e+00 1.900e+00 1.900e+00 1.900e+00 1.900e+00 1.900e+00 1.900e+00 1.900e+00 1.900e+00 1.900e+00 1.900e+00 1.900e+00 1.900e+00 1.900e+00 1.900e+00 1.900e+00 1.900e+00 1.900e+00 1.900e+00 1.900e+00 1.900e+00 1.900e+00 1.900e+00 1.900e+00 1.900e+00 1.900e+00 1.900e+00 1.900e+00 1.900e+00 1.900e+00 1.900e+00 1.900e+00 1.900e+00 1.900e+00 1.900e+00 1.900e+00 1.900e+00 1.900e+00 1.900e+00 1.900e+00 1.900e+00 1.900e+00 1.900e+00 1.900e+00 1.900e+00 1.900e+00 1.900e+00 1.900e+00 1.900e+00 1.900e+00 1.900e+00 1.900e+00 1.900e+00 1.900e+00 1.900e+00 1.900e+00 1.900e+00 1.900e+00
           </DataArray>
           <DataArray type="Float32" Name="nitrate/Km" NumberOfComponents="1" format="ascii">