<?xml version="1.0"?>
<VTKFile type="UnstructuredGrid" version="0.1" byte_order="LittleEndian">
   <UnstructuredGrid>
      <Piece NumberOfPoints="160" NumberOfCells="14">
         <Points>
            <DataArray type="Float32" Name="Position" NumberOfComponents="3" format="ascii">
-0.141	-5.003	0.143
-0.029	-5.001	0.199
0.093	-4.999	0.178
0.180	-4.997	0.089
0.198	-4.996	-0.033
0.141	-4.997	-0.143
0.029	-4.999	-0.199
-0.093	-5.001	-0.178
-0.180	-5.003	-0.089
-0.198	-5.004	0.033
-0.155	-4.252	0.143
-0.044	-4.250	0.199
0.078	-4.249	0.179
0.165	-4.248	0.091
0.184	-4.248	-0.031
0.127	-4.249	-0.142
0.017	-4.250	-0.197
-0.106	-4.252	-0.177
-0.193	-4.253	-0.089
-0.212	-4.253	0.033
-0.160	-3.560	0.138
-0.050	-3.560	0.194
0.072	-3.560	0.175
0.160	-3.560	0.087
0.179	-3.560	-0.035
0.123	-3.560	-0.145
0.013	-3.561	-0.201
-0.109	-3.561	-0.182
-0.197	-3.561	-0.095
-0.216	-3.560	0.028
-0.156	-2.400	0.139
-0.046	-2.400	0.195
0.076	-2.401	0.176
0.164	-2.401	0.089
0.183	-2.401	-0.033
0.127	-2.401	-0.144
0.017	-2.400	-0.200
-0.105	-2.399	-0.181
-0.193	-2.399	-0.093
-0.212	-2.399	0.029
-0.152	-1.800	0.141
-0.042	-1.800	0.197
0.080	-1.801	0.178
0.168	-1.801	0.091
0.187	-1.801	-0.032
0.131	-1.801	-0.142
0.021	-1.800	-0.198
-0.101	-1.800	-0.179
-0.189	-1.799	-0.092
-0.208	-1.799	0.030
-0.150	-1.200	0.141
-0.040	-1.200	0.197
0.082	-1.200	0.178
0.169	-1.200	0.091
0.189	-1.200	-0.031
0.133	-1.200	-0.141
0.023	-1.200	-0.198
-0.100	-1.200	-0.178
-0.187	-1.200	-0.091
-0.206	-1.200	0.031
-0.150	-0.300	0.141
-0.040	-0.300	0.197
0.082	-0.300	0.178
0.169	-0.300	0.090
0.188	-0.300	-0.032
0.132	-0.300	-0.142
0.022	-0.300	-0.198
-0.100	-0.301	-0.179
-0.187	-0.301	-0.091
-0.207	-0.301	0.031
-0.151	-0.001	0.141
-0.041	-0.000	0.197
0.081	0.000	0.177
0.168	0.000	0.090
0.187	0.000	-0.032
0.131	0.000	-0.142
0.021	-0.000	-0.198
-0.101	-0.001	-0.179
-0.188	-0.001	-0.091
-0.208	-0.001	0.031
0.031	-4.999	-0.033
0.045	-5.000	-0.008
0.041	-5.001	0.020
0.022	-5.002	0.040
-0.006	-5.002	0.045
-0.031	-5.001	0.033
-0.045	-5.000	0.008
-0.041	-4.999	-0.020
-0.022	-4.998	-0.040
0.006	-4.998	-0.045
0.026	-5.704	-0.069
0.039	-5.704	-0.044
0.036	-5.704	-0.016
0.017	-5.705	0.004
-0.011	-5.707	0.009
-0.036	-5.708	-0.003
-0.050	-5.708	-0.027
-0.046	-5.707	-0.055
-0.027	-5.706	-0.076
0.001	-5.705	-0.081
0.096	-6.405	-0.049
0.110	-6.404	-0.025
0.107	-6.404	0.003
0.088	-6.406	0.024
0.061	-6.409	0.030
0.036	-6.412	0.018
0.022	-6.414	-0.006
0.025	-6.413	-0.034
0.043	-6.411	-0.054
0.070	-6.408	-0.060
0.184	-7.103	-0.073
0.198	-7.103	-0.049
0.197	-7.104	-0.021
0.179	-7.108	0.000
0.152	-7.112	0.007
0.127	-7.115	-0.004
0.112	-7.116	-0.027
0.113	-7.114	-0.055
0.131	-7.110	-0.076
0.158	-7.106	-0.083
0.286	-7.798	-0.135
0.301	-7.797	-0.112
0.300	-7.799	-0.084
0.283	-7.804	-0.063
0.257	-7.810	-0.055
0.231	-7.814	-0.065
0.216	-7.815	-0.088
0.217	-7.812	-0.116
0.234	-7.807	-0.138
0.260	-7.802	-0.145
0.439	-8.485	-0.188
0.455	-8.483	-0.165
0.454	-8.485	-0.137
0.438	-8.490	-0.115
0.412	-8.497	-0.108
0.386	-8.502	-0.117
0.371	-8.504	-0.141
0.371	-8.502	-0.168
0.388	-8.497	-0.190
0.414	-8.490	-0.198
0.610	-9.170	-0.232
0.625	-9.167	-0.209
0.624	-9.168	-0.181
0.608	-9.173	-0.160
0.582	-9.180	-0.152
0.557	-9.186	-0.162
0.541	-9.189	-0.185
0.542	-9.188	-0.213
0.559	-9.183	-0.235
0.585	-9.176	-0.242
0.704	-9.666	-0.171
0.704	-9.641	-0.159
0.704	-9.613	-0.163
0.704	-9.594	-0.183
0.704	-9.589	-0.210
0.704	-9.602	-0.235
0.704	-9.627	-0.248
0.704	-9.654	-0.243
0.704	-9.674	-0.224
0.704	-9.678	-0.196
		    </DataArray>
         </Points>
         <Cells>
            <DataArray type="Int32" Name="connectivity" NumberOfComponents="1" format="ascii">
 0 10 1 11 2 12 3 13 4 14 5 15 6 16 7 17 8 18 9 19 0 10
 10 20 11 21 12 22 13 23 14 24 15 25 16 26 17 27 18 28 19 29 10 20
 20 30 21 31 22 32 23 33 24 34 25 35 26 36 27 37 28 38 29 39 20 30
 30 40 31 41 32 42 33 43 34 44 35 45 36 46 37 47 38 48 39 49 30 40
 40 50 41 51 42 52 43 53 44 54 45 55 46 56 47 57 48 58 49 59 40 50
 50 60 51 61 52 62 53 63 54 64 55 65 56 66 57 67 58 68 59 69 50 60
 60 70 61 71 62 72 63 73 64 74 65 75 66 76 67 77 68 78 69 79 60 70
 80 90 81 91 82 92 83 93 84 94 85 95 86 96 87 97 88 98 89 99 80 90
 90 100 91 101 92 102 93 103 94 104 95 105 96 106 97 107 98 108 99 109 90 100
 100 110 101 111 102 112 103 113 104 114 105 115 106 116 107 117 108 118 109 119 100 110
 110 120 111 121 112 122 113 123 114 124 115 125 116 126 117 127 118 128 119 129 110 120
 120 130 121 131 122 132 123 133 124 134 125 135 126 136 127 137 128 138 129 139 120 130
 130 140 131 141 132 142 133 143 134 144 135 145 136 146 137 147 138 148 139 149 130 140
 140 150 141 151 142 152 143 153 144 154 145 155 146 156 147 157 148 158 149 159 140 150

            </DataArray>
            <DataArray type="Int32" Name="offsets" NumberOfComponents="1" format="ascii">
 22 44 66 88 110 132 154 176 198 220 242 264 286 308
            </DataArray>
            <DataArray type="UInt8"  Name="types" NumberOfComponents="1" format="ascii">
6 6 6 6 6 6 6 6 6 6 6 6 6 6
            </DataArray>
         </Cells>
         <CellData>
           <DataArray type="Float32" Name="combinedRootClassID" NumberOfComponents="1" format="ascii">
 -2.000e+00 -2.000e+00 -2.000e+00 -2.000e+00 -2.000e+00 -2.000e+00 -2.000e+00 -4.000e+00 -4.000e+00 -4.000e+00 -4.000e+00 -4.000e+00 -4.000e+00 -4.000e+00
           </DataArray>
           <DataArray type="Float32" Name="nitrate/Cmin" NumberOfComponents="1" format="ascii">
 1.000e-03 1.000e-03 1.000e-03 1.000e-03 1.000e-03 1.000e-03 1.000e-03 1.000e-03 1.000e-03 1.000e-03 1.000e-03 1.000e-03 1.000e-03 1.000e-03
           </DataArray>
           <DataArray type="Float32" Name="nitrate/Imax" NumberOfComponents="1" format="ascii">
 1.900e+00 1.900e+00 1.900e+00 1.900e+00 1.900e+00 1.900e+00 1.900e+00 1.900e+00 1.900e+00 1.900e+00 1.900e+00 1.900e+00 1.900e+00 1.900e+00
           </DataArray>
           <DataArray type="Float32" Name="nitrate/Km" NumberOfComponents="1" format="ascii">
 1.610e-02 1.610e-02 1.610e-02 1.610e-02 1.610e-02 1.610e-02 1.610e-02 1.610e-02 1.610e-02 1.610e-02 1.610e-02 1.610e-02 1.610e-02 1.610e-02
           </DataArray>
           <DataArray type="Float32" Name="nitrate/minimalNutrientConcentration" NumberOfComponents="1" format="ascii">
 6.000e+02 6.000e+02 6.000e+02 6.000e+02 6.000e+02 6.000e+02 6.000e+02 6.000e+02 6.000e+02 6.000e+02 6.000e+02 6.000e+02 6.000e+02 6.000e+02
           </DataArray>
           <DataArray type="Float32" Name="nitrate/nutrientConcentrationAtTheRootSurface" NumberOfComponents="1" format="ascii">
 3.912e-01 3.918e-01 3.996e-01 4.117e-01 4.102e-01 4.170e-01 3.602e-01 3.912e-01 3.818e-01 3.779e-01 3.782e-01 3.968e-01 4.393e-01 4.825e-01
           </DataArray>
           <DataArray type="Float32" Name="nitrate/optimalNutrientConcentration" NumberOfComponents="1" format="ascii">
 1.200e+03 1.200e+03 1.200e+03 1.200e+03 1.200e+03 1.200e+03 1.200e+03 1.200e+03 1.200e+03 1.200e+03 1.200e+03 1.200e+03 1.200e+03 1.200e+03
           </DataArray>
           <DataArray type="Float32" Name="nitrate/rootSegmentMinimalNutrientContent" NumberOfComponents="1" format="ascii">
 5.362e+00 4.914e+00 8.247e+00 4.258e+00 4.256e+00 6.381e+00 2.126e+00 2.594e-01 2.578e-01 2.565e-01 2.554e-01 2.546e-01 2.541e-01 1.692e-01
           </DataArray>
           <DataArray type="Float32" Name="nitrate/rootSegmentNutrientUptake" NumberOfComponents="1" format="ascii">
 0.000e+00 1.954e-01 1.630e-01 1.170e-01 8.958e-02 6.352e-02 1.598e-02 0.000e+00 2.174e-01 1.813e-01 1.468e-01 1.141e-01 7.695e-02 2.984e-02
           </DataArray>
           <DataArray type="Float32" Name="nitrate/rootSegmentOptimalNutrientContent" NumberOfComponents="1" format="ascii">
 1.072e+01 9.829e+00 1.649e+01 8.517e+00 8.512e+00 1.276e+01 4.253e+00 5.188e-01 5.156e-01 5.130e-01 5.108e-01 5.092e-01 5.081e-01 3.384e-01
           </DataArray>
           <DataArray type="Float32" Name="parentRootClassID" NumberOfComponents="1" format="ascii">
 -3.000e+00 -3.000e+00 -3.000e+00 -3.000e+00 -3.000e+00 -3.000e+00 -3.000e+00 -3.000e+00 -3.000e+00 -3.000e+00 -3.000e+00 -3.000e+00 -3.000e+00 -3.000e+00
           </DataArray>
           <DataArray type="Float32" Name="plantID" NumberOfComponents="1" format="ascii">
 3.000e+00 3.000e+00 3.000e+00 3.000e+00 3.000e+00 3.000e+00 3.000e+00 3.000e+00 3.000e+00 3.000e+00 3.000e+00 3.000e+00 3.000e+00 3.000e+00
           </DataArray>
           <DataArray type="Float32" Name="plantTypeID" NumberOfComponents="1" format="ascii">
 0.000e+00 0.000e+00 0.000e+00 0.000e+00 0.000e+00 0.000e+00 0.000e+00 0.000e+00 0.000e+00 0.000e+00 0.000e+00 0.000e+00 0.000e+00 0.000e+00
           </DataArray>
           <DataArray type="Float32" Name="rootCircumference" NumberOfComponents="1" format="ascii">
 1.262e+00 1.260e+00 1.259e+00 1.258e+00 1.257e+00 1.257e+00 1.257e+00 2.859e-01 2.850e-01 2.843e-01 2.837e-01 2.832e-01 2.829e-01 2.828e-01
           </DataArray>
           <DataArray type="Float32" Name="rootClassID" NumberOfComponents="1" format="ascii">
 -2.000e+00 -2.000e+00 -2.000e+00 -2.000e+00 -2.000e+00 -2.000e+00 -2.000e+00 -4.000e+00 -4.000e+00 -4.000e+00 -4.000e+00 -4.000e+00 -4.000e+00 -4.000e+00
           </DataArray>
           <DataArray type="Float32" Name="rootDiameter" NumberOfComponents="1" format="ascii">
 4.018e-01 4.010e-01 4.006e-01 4.003e-01 4.002e-01 4.001e-01 4.000e-01 9.100e-02 9.072e-02 9.049e-02 9.030e-02 9.016e-02 9.006e-02 9.001e-02
           </DataArray>
           <DataArray type="Float32" Name="rootHairDensity" NumberOfComponents="1" format="ascii">
 0.000e+00 0.000e+00 0.000e+00 0.000e+00 0.000e+00 0.000e+00 0.000e+00 2.000e+03 2.000e+03 2.000e+03 2.000e+03 2.000e+03 2.000e+03 2.000e+03
           </DataArray>
           <DataArray type="Float32" Name="rootHairDiameter" NumberOfComponents="1" format="ascii">
 5.000e-04 5.000e-04 5.000e-04 5.000e-04 5.000e-04 5.000e-04 5.000e-04 5.000e-04 5.000e-04 5.000e-04 5.000e-04 5.000e-04 5.000e-04 5.000e-04
           </DataArray>
           <DataArray type="Float32" Name="rootHairLength" NumberOfComponents="1" format="ascii">
 3.000e-02 1.500e-02 6.000e-03 0.000e+00 0.000e+00 0.000e+00 0.000e+00 3.000e-02 2.100e-02 1.200e-02 3.000e-03 0.000e+00 0.000e+00 0.000e+00
           </DataArray>
           <DataArray type="Float32" Name="rootHairSurfaceArea" NumberOfComponents="1" format="ascii">
 0.000e+00 0.000e+00 0.000e+00 0.000e+00 0.000e+00 0.000e+00 0.000e+00 9.425e-02 6.597e-02 3.770e-02 9.425e-03 0.000e+00 0.000e+00 0.000e+00
           </DataArray>
           <DataArray type="Float32" Name="rootLength2Base" NumberOfComponents="1" format="ascii">
 0.000e+00 7.500e-01 1.440e+00 2.600e+00 3.200e+00 3.800e+00 4.700e+00 0.000e+00 7.071e-01 1.414e+00 2.121e+00 2.828e+00 3.535e+00 4.243e+00
           </DataArray>
           <DataArray type="Float32" Name="rootPotentialSecondaryGrowth" NumberOfComponents="1" format="ascii">
 4.018e-01 4.010e-01 4.006e-01 4.003e-01 4.002e-01 4.001e-01 4.000e-01 9.100e-02 9.072e-02 9.049e-02 9.030e-02 9.016e-02 9.006e-02 9.001e-02
           </DataArray>
           <DataArray type="Float32" Name="rootSegmentAge" NumberOfComponents="1" format="ascii">
 2.000e+00 1.500e+00 1.200e+00 8.000e-01 6.000e-01 4.000e-01 1.000e-01 2.000e+00 1.700e+00 1.400e+00 1.100e+00 8.000e-01 5.000e-01 2.000e-01
           </DataArray>
           <DataArray type="Float32" Name="rootSegmentCarbonCostOfExudates" NumberOfComponents="1" format="ascii">
 0.000e+00 0.000e+00 0.000e+00 0.000e+00 0.000e+00 0.000e+00 0.000e+00 2.203e-05 1.872e-05 1.547e-05 1.193e-05 8.390e-06 4.565e-06 8.886e-07
           </DataArray>
           <DataArray type="Float32" Name="rootSegmentDryWeight" NumberOfComponents="1" format="ascii">
 8.937e-03 8.191e-03 1.375e-02 7.097e-03 7.093e-03 1.063e-02 3.544e-03 4.323e-04 4.297e-04 4.275e-04 4.257e-04 4.244e-04 4.234e-04 2.820e-04
           </DataArray>
           <DataArray type="Float32" Name="rootSegmentLength" NumberOfComponents="1" format="ascii">
 7.500e-01 6.900e-01 1.160e+00 6.000e-01 6.000e-01 9.000e-01 3.000e-01 7.071e-01 7.071e-01 7.071e-01 7.071e-01 7.071e-01 7.071e-01 4.714e-01
           </DataArray>
           <DataArray type="Float32" Name="rootSegmentLengthDuration" NumberOfComponents="1" format="ascii">
 1.295e+00 9.313e-01 1.155e+00 4.200e-01 3.000e-01 2.300e-01 2.983e-02 1.312e+00 1.100e+00 8.878e-01 6.757e-01 4.635e-01 2.514e-01 4.714e-02
           </DataArray>
           <DataArray type="Float32" Name="rootSegmentRespiration" NumberOfComponents="1" format="ascii">
 3.575e-04 4.300e-04 8.247e-04 4.968e-04 5.320e-04 8.508e-04 3.101e-04 1.729e-05 2.041e-05 2.351e-05 2.661e-05 2.970e-05 3.282e-05 2.397e-05
           </DataArray>
           <DataArray type="Float32" Name="rootSegmentSecondaryPotentialCarbonSinkForGrowth" NumberOfComponents="1" format="ascii">
 2.690e-05 1.469e-05 1.367e-05 3.443e-06 1.768e-06 7.326e-07 1.163e-08 3.647e-06 2.558e-06 1.665e-06 9.637e-07 4.550e-07 1.375e-07 9.397e-09
           </DataArray>
           <DataArray type="Float32" Name="rootSegmentSurfaceArea" NumberOfComponents="1" format="ascii">
 9.466e-01 8.692e-01 1.460e+00 7.545e-01 7.543e-01 1.131e+00 3.770e-01 2.021e-01 2.015e-01 2.010e-01 2.006e-01 2.003e-01 2.001e-01 1.333e-01
           </DataArray>
           <DataArray type="Float32" Name="rootSegmentVolume" NumberOfComponents="1" format="ascii">
 9.507e-02 8.714e-02 1.462e-01 7.550e-02 7.546e-02 1.131e-01 3.770e-02 4.599e-03 4.571e-03 4.547e-03 4.529e-03 4.514e-03 4.505e-03 3.000e-03
           </DataArray>
           <DataArray type="Float32" Name="rootSegmentWaterUptake" NumberOfComponents="1" format="ascii">
 0.000e+00 0.000e+00 0.000e+00 0.000e+00 0.000e+00 0.000e+00 0.000e+00 0.000e+00 0.000e+00 0.000e+00 0.000e+00 0.000e+00 0.000e+00 0.000e+00
           </DataArray>
           <DataArray type="Float32" Name="spatialRootDensity" NumberOfComponents="1" format="ascii">
 3.376e-01 1.688e-01 0.000e+00 0.000e+00 0.000e+00 0.000e+00 0.000e+00 3.438e-01 1.790e-01 0.000e+00 0.000e+00 0.000e+00 0.000e+00 0.000e+00
           </DataArray>
           <DataArray type="Float32" Name="volumetricWaterContentAtTheRootSurface" NumberOfComponents="1" format="ascii">
 1.820e-01 1.820e-01 1.819e-01 1.818e-01 1.817e-01 1.817e-01 1.816e-01 1.820e-01 1.821e-01 1.822e-01 1.822e-01 1.823e-01 1.823e-01 1.824e-01
           </DataArray>
         </CellData>
      </Piece>
   </UnstructuredGrid>
</VTKFile>
