<?xml version="1.0"?>
<VTKFile type="UnstructuredGrid" version="0.1" byte_order="LittleEndian">
   <UnstructuredGrid>
      <Piece NumberOfPoints="74590" NumberOfCells="5506">
         <Points>
            <DataArray type="Float32" Name="Position" NumberOfComponents="3" format="ascii">
-0.155	-5.023	0.003
-0.148	-5.018	0.001
-0.138	-5.019	-0.001
-0.131	-5.025	-0.002
-0.129	-5.034	-0.002
-0.132	-5.042	-0.000
-0.140	-5.047	0.002
-0.149	-5.047	0.004
-0.156	-5.041	0.005
-0.158	-5.032	0.005
-0.351	-5.101	-0.853
-0.342	-5.097	-0.855
-0.333	-5.098	-0.856
-0.327	-5.104	-0.856
-0.325	-5.113	-0.856
-0.329	-5.122	-0.855
-0.337	-5.126	-0.854
-0.346	-5.125	-0.853
-0.353	-5.119	-0.852
-0.354	-5.110	-0.852
-0.366	-5.121	-1.714
-0.358	-5.117	-1.716
-0.349	-5.118	-1.717
-0.342	-5.124	-1.718
-0.340	-5.133	-1.717
-0.344	-5.141	-1.715
-0.352	-5.146	-1.713
-0.361	-5.145	-1.712
-0.367	-5.138	-1.711
-0.369	-5.129	-1.712
-0.647	-5.282	-2.502
-0.640	-5.278	-2.507
-0.632	-5.278	-2.511
-0.625	-5.284	-2.512
-0.621	-5.293	-2.511
-0.623	-5.301	-2.507
-0.630	-5.305	-2.502
-0.638	-5.305	-2.498
-0.645	-5.299	-2.496
-0.649	-5.290	-2.498
-1.081	-5.662	-3.138
-1.075	-5.661	-3.145
-1.067	-5.664	-3.149
-1.061	-5.671	-3.148
-1.058	-5.678	-3.143
-1.060	-5.683	-3.135
-1.066	-5.684	-3.128
-1.073	-5.680	-3.124
-1.080	-5.674	-3.125
-1.083	-5.667	-3.131
-1.324	-6.054	-3.307
-1.324	-6.058	-3.299
-1.329	-6.057	-3.291
-1.337	-6.054	-3.287
-1.344	-6.048	-3.288
-1.348	-6.042	-3.295
-1.348	-6.039	-3.303
-1.343	-6.039	-3.311
-1.335	-6.043	-3.315
-1.328	-6.049	-3.313
-0.271	-5.105	0.000
-0.267	-5.098	0.004
-0.268	-5.089	0.005
-0.274	-5.082	0.004
-0.283	-5.079	0.000
-0.290	-5.082	-0.004
-0.294	-5.090	-0.008
-0.293	-5.099	-0.009
-0.287	-5.106	-0.008
-0.279	-5.109	-0.004
-0.648	-5.280	0.741
-0.645	-5.273	0.746
-0.647	-5.264	0.748
-0.652	-5.257	0.747
-0.660	-5.254	0.742
-0.666	-5.256	0.735
-0.668	-5.263	0.730
-0.667	-5.272	0.728
-0.661	-5.279	0.729
-0.654	-5.282	0.734
-1.294	-5.626	1.186
-1.292	-5.620	1.193
-1.295	-5.611	1.197
-1.301	-5.605	1.196
-1.308	-5.601	1.191
-1.313	-5.603	1.183
-1.315	-5.609	1.177
-1.312	-5.617	1.173
-1.306	-5.624	1.174
-1.299	-5.627	1.179
-1.757	-6.106	1.746
-1.754	-6.100	1.752
-1.757	-6.093	1.757
-1.764	-6.087	1.758
-1.773	-6.084	1.755
-1.780	-6.087	1.749
-1.782	-6.093	1.743
-1.779	-6.100	1.738
-1.772	-6.106	1.737
-1.764	-6.109	1.740
-1.916	-6.467	2.167
-1.913	-6.460	2.173
-1.916	-6.453	2.178
-1.924	-6.448	2.180
-1.933	-6.446	2.178
-1.940	-6.449	2.173
-1.942	-6.455	2.167
-1.939	-6.463	2.162
-1.932	-6.468	2.160
-1.923	-6.470	2.162
-1.231	-6.037	-0.053
-1.232	-6.029	-0.048
-1.233	-6.020	-0.049
-1.233	-6.013	-0.055
-1.234	-6.011	-0.064
-1.234	-6.014	-0.072
-1.233	-6.022	-0.077
-1.232	-6.032	-0.076
-1.231	-6.039	-0.070
-1.231	-6.041	-0.061
-2.088	-6.115	-0.033
-2.088	-6.107	-0.027
-2.089	-6.098	-0.028
-2.091	-6.091	-0.034
-2.092	-6.089	-0.043
-2.093	-6.092	-0.051
-2.093	-6.100	-0.056
-2.092	-6.109	-0.056
-2.091	-6.116	-0.050
-2.089	-6.119	-0.041
-2.942	-6.188	0.166
-2.941	-6.181	0.172
-2.943	-6.172	0.173
-2.946	-6.164	0.168
-2.950	-6.161	0.161
-2.952	-6.164	0.152
-2.953	-6.171	0.146
-2.951	-6.180	0.145
-2.948	-6.187	0.150
-2.945	-6.191	0.158
-3.670	-6.442	0.537
-3.670	-6.435	0.544
-3.673	-6.427	0.546
-3.677	-6.419	0.543
-3.681	-6.415	0.535
-3.684	-6.417	0.527
-3.684	-6.424	0.520
-3.682	-6.432	0.518
-3.677	-6.440	0.521
-3.673	-6.444	0.529
-4.038	-6.599	0.648
-4.038	-6.593	0.654
-4.041	-6.584	0.657
-4.046	-6.577	0.653
-4.049	-6.573	0.646
-4.052	-6.574	0.637
-4.051	-6.581	0.630
-4.048	-6.589	0.628
-4.044	-6.597	0.631
-4.040	-6.600	0.639
-3.659	-19.149	-0.265
-3.652	-19.147	-0.260
-3.646	-19.150	-0.254
-3.643	-19.157	-0.249
-3.644	-19.166	-0.247
-3.650	-19.173	-0.250
-3.657	-19.176	-0.255
-3.663	-19.173	-0.261
-3.666	-19.165	-0.266
-3.665	-19.156	-0.267
-3.125	-19.357	-0.912
-3.118	-19.355	-0.907
-3.112	-19.358	-0.901
-3.109	-19.366	-0.896
-3.111	-19.374	-0.894
-3.118	-19.381	-0.896
-3.125	-19.383	-0.901
-3.132	-19.380	-0.907
-3.134	-19.373	-0.912
-3.132	-19.364	-0.914
-2.687	-19.712	-1.571
-2.678	-19.711	-1.567
-2.672	-19.714	-1.561
-2.670	-19.722	-1.556
-2.673	-19.730	-1.553
-2.680	-19.736	-1.554
-2.688	-19.737	-1.558
-2.695	-19.734	-1.563
-2.697	-19.726	-1.568
-2.694	-19.718	-1.571
-2.440	-20.027	-2.111
-2.432	-20.026	-2.107
-2.425	-20.030	-2.102
-2.423	-20.037	-2.097
-2.426	-20.045	-2.094
-2.434	-20.051	-2.094
-2.442	-20.052	-2.097
-2.449	-20.048	-2.102
-2.451	-20.041	-2.107
-2.448	-20.033	-2.111
-3.651	-19.308	-0.274
-3.649	-19.302	-0.267
-3.652	-19.298	-0.259
-3.658	-19.300	-0.252
-3.664	-19.306	-0.248
-3.669	-19.314	-0.250
-3.670	-19.321	-0.256
-3.667	-19.324	-0.265
-3.662	-19.322	-0.272
-3.655	-19.316	-0.275
-3.043	-19.749	0.091
-3.041	-19.743	0.098
-3.043	-19.741	0.107
-3.048	-19.743	0.114
-3.054	-19.750	0.117
-3.058	-19.757	0.115
-3.060	-19.764	0.108
-3.058	-19.766	0.100
-3.053	-19.763	0.092
-3.047	-19.757	0.089
-2.330	-20.238	0.263
-2.328	-20.233	0.270
-2.329	-20.232	0.279
-2.333	-20.235	0.287
-2.339	-20.242	0.290
-2.343	-20.249	0.287
-2.345	-20.255	0.280
-2.344	-20.256	0.271
-2.340	-20.253	0.263
-2.334	-20.246	0.260
-1.611	-20.735	0.443
-1.607	-20.735	0.452
-1.608	-20.735	0.461
-1.615	-20.735	0.467
-1.624	-20.735	0.469
-1.632	-20.735	0.465
-1.637	-20.735	0.456
-1.635	-20.735	0.447
-1.629	-20.735	0.441
-1.619	-20.735	0.439
-3.677	-19.453	-0.262
-3.671	-19.447	-0.268
-3.663	-19.447	-0.272
-3.656	-19.452	-0.275
-3.652	-19.460	-0.274
-3.653	-19.469	-0.271
-3.658	-19.474	-0.265
-3.666	-19.475	-0.261
-3.674	-19.470	-0.258
-3.678	-19.461	-0.259
-4.074	-19.706	-0.944
-4.068	-19.701	-0.948
-4.059	-19.701	-0.952
-4.052	-19.707	-0.954
-4.049	-19.715	-0.953
-4.050	-19.724	-0.949
-4.057	-19.729	-0.944
-4.065	-19.728	-0.940
-4.072	-19.723	-0.939
-4.076	-19.714	-0.940
-4.359	-19.909	-1.693
-4.351	-19.905	-1.696
-4.342	-19.908	-1.698
-4.336	-19.915	-1.697
-4.335	-19.923	-1.694
-4.339	-19.931	-1.691
-4.348	-19.934	-1.688
-4.356	-19.932	-1.687
-4.363	-19.925	-1.687
-4.364	-19.916	-1.690
-4.427	-20.165	-2.409
-4.418	-20.163	-2.411
-4.409	-20.166	-2.410
-4.404	-20.174	-2.408
-4.404	-20.182	-2.405
-4.410	-20.189	-2.402
-4.419	-20.191	-2.400
-4.427	-20.188	-2.401
-4.433	-20.181	-2.403
-4.432	-20.172	-2.406
-3.661	-19.623	-0.263
-3.660	-19.616	-0.257
-3.661	-19.607	-0.257
-3.664	-19.599	-0.261
-3.669	-19.596	-0.268
-3.672	-19.599	-0.276
-3.674	-19.606	-0.282
-3.673	-19.615	-0.283
-3.670	-19.623	-0.278
-3.665	-19.626	-0.271
-4.416	-19.744	0.130
-4.415	-19.737	0.135
-4.416	-19.727	0.136
-4.419	-19.720	0.131
-4.422	-19.717	0.123
-4.425	-19.720	0.115
-4.426	-19.727	0.109
-4.425	-19.736	0.109
-4.423	-19.744	0.113
-4.419	-19.747	0.121
-5.212	-19.806	0.338
-5.204	-19.802	0.338
-5.195	-19.804	0.338
-5.188	-19.810	0.338
-5.187	-19.819	0.338
-5.191	-19.828	0.338
-5.199	-19.832	0.338
-5.208	-19.830	0.338
-5.215	-19.824	0.338
-5.216	-19.815	0.338
-3.667	-19.751	-0.283
-3.662	-19.748	-0.276
-3.659	-19.750	-0.267
-3.660	-19.756	-0.261
-3.664	-19.764	-0.258
-3.669	-19.771	-0.261
-3.674	-19.774	-0.268
-3.677	-19.772	-0.277
-3.676	-19.766	-0.284
-3.673	-19.758	-0.286
-2.959	-20.160	-0.607
-2.953	-20.157	-0.600
-2.951	-20.159	-0.592
-2.952	-20.165	-0.584
-2.957	-20.172	-0.582
-2.963	-20.178	-0.584
-2.969	-20.181	-0.591
-2.971	-20.179	-0.600
-2.970	-20.173	-0.607
-2.965	-20.166	-0.610
-2.398	-20.762	-0.890
-2.392	-20.760	-0.883
-2.391	-20.761	-0.874
-2.394	-20.766	-0.867
-2.400	-20.772	-0.864
-2.407	-20.777	-0.866
-2.413	-20.780	-0.873
-2.414	-20.778	-0.882
-2.411	-20.774	-0.890
-2.405	-20.768	-0.893
-2.260	-20.951	-0.914
-2.255	-20.948	-0.907
-2.254	-20.949	-0.898
-2.258	-20.952	-0.890
-2.265	-20.958	-0.887
-2.272	-20.963	-0.890
-2.277	-20.966	-0.897
-2.278	-20.965	-0.906
-2.274	-20.961	-0.914
-2.267	-20.956	-0.917
-3.678	-19.899	-0.278
-3.669	-19.896	-0.277
-3.660	-19.898	-0.275
-3.655	-19.906	-0.274
-3.655	-19.915	-0.273
-3.660	-19.922	-0.273
-3.669	-19.926	-0.274
-3.677	-19.923	-0.275
-3.683	-19.916	-0.277
-3.683	-19.907	-0.278
-3.534	-19.998	-1.145
-3.526	-19.994	-1.147
-3.517	-19.996	-1.147
-3.510	-20.002	-1.147
-3.509	-20.011	-1.146
-3.514	-20.019	-1.144
-3.522	-20.023	-1.143
-3.531	-20.022	-1.142
-3.537	-20.015	-1.143
-3.539	-20.006	-1.144
-3.841	-20.143	-1.964
-3.834	-20.137	-1.968
-3.826	-20.137	-1.972
-3.819	-20.143	-1.974
-3.815	-20.151	-1.974
-3.817	-20.160	-1.971
-3.823	-20.165	-1.967
-3.832	-20.165	-1.963
-3.839	-20.160	-1.961
-3.842	-20.151	-1.961
-3.952	-20.208	-2.165
-3.947	-20.203	-2.170
-3.938	-20.202	-2.174
-3.931	-20.207	-2.177
-3.927	-20.216	-2.176
-3.928	-20.224	-2.173
-3.934	-20.230	-2.168
-3.942	-20.230	-2.163
-3.949	-20.225	-2.161
-3.953	-20.217	-2.161
-3.673	-20.048	-0.288
-3.664	-20.046	-0.286
-3.656	-20.050	-0.284
-3.652	-20.057	-0.280
-3.653	-20.066	-0.278
-3.660	-20.073	-0.277
-3.668	-20.075	-0.278
-3.677	-20.072	-0.281
-3.681	-20.064	-0.285
-3.680	-20.055	-0.287
-3.493	-20.298	-1.101
-3.484	-20.296	-1.099
-3.476	-20.299	-1.095
-3.472	-20.307	-1.092
-3.474	-20.316	-1.089
-3.481	-20.322	-1.089
-3.489	-20.324	-1.091
-3.497	-20.321	-1.095
-3.501	-20.313	-1.099
-3.499	-20.304	-1.101
-3.162	-20.588	-1.864
-3.154	-20.586	-1.860
-3.147	-20.589	-1.855
-3.144	-20.597	-1.850
-3.146	-20.605	-1.848
-3.153	-20.612	-1.848
-3.161	-20.614	-1.852
-3.168	-20.610	-1.857
-3.171	-20.603	-1.862
-3.169	-20.594	-1.865
-3.102	-20.628	-1.950
-3.094	-20.626	-1.946
-3.088	-20.629	-1.940
-3.085	-20.637	-1.935
-3.088	-20.645	-1.932
-3.094	-20.652	-1.934
-3.102	-20.654	-1.938
-3.109	-20.651	-1.944
-3.111	-20.643	-1.949
-3.108	-20.635	-1.952
-3.669	-20.198	-0.296
-3.661	-20.196	-0.292
-3.654	-20.199	-0.287
-3.651	-20.207	-0.283
-3.653	-20.216	-0.281
-3.659	-20.223	-0.282
-3.667	-20.225	-0.286
-3.674	-20.221	-0.291
-3.677	-20.214	-0.296
-3.675	-20.205	-0.298
-3.260	-20.433	-1.001
-3.252	-20.431	-0.996
-3.246	-20.434	-0.991
-3.243	-20.442	-0.986
-3.245	-20.450	-0.984
-3.251	-20.457	-0.985
-3.259	-20.459	-0.990
-3.266	-20.456	-0.995
-3.269	-20.448	-1.000
-3.266	-20.440	-1.002
-2.814	-20.731	-1.635
-2.807	-20.729	-1.629
-2.802	-20.732	-1.622
-2.800	-20.739	-1.616
[...]
         <CellData>
           <DataArray type="Float32" Name="combinedRootClassID" NumberOfComponents="1" format="ascii">
 -1.300e+01 -1.300e+01 -1.300e+01 -1.300e+01 -1.300e+01 -1.300e+01 -1.300e+01 -1.300e+01 -1.300e+01 -1.300e+01 -1.300e+01 -1.300e+01 -1.300e+01 -1.300e+01 -1.300e+01 -1.300e+01 -1.300e+01 -1.300e+01 -1.300e+01 -1.300e+01 -1.300e+01 -1.300e+01 -1.300e+01 -1.300e+01 -1.300e+01 -1.300e+01 -1.300e+01 -1.300e+01 -1.300e+01 -1.300e+01 -1.300e+01 -1.300e+01 -1.300e+01 -1.300e+01 -1.300e+01 -1.300e+01 -1.300e+01 -1.300e+01 -1.300e+01 -1.300e+01 -1.300e+01 -1.300e+01 -1.300e+01 -1.300e+01 -1.300e+01 -1.300e+01 -1.300e+01 -1.300e+01 -1.300e+01 -1.300e+01 -1.300e+01 -1.300e+01 -1.300e+01 -1.300e+01 -1.300e+01 -1.300e+01 -1.300e+01 -1.300e+01 -1.300e+01 -1.300e+01 -1.300e+01 -1.300e+01 -1.300e+01 -1.300e+01 -1.300e+01 -1.300e+01 -1.300e+01 -1.300e+01 -1.300e+01 -1.300e+01 -1.300e+01 -1.300e+01 -1.300e+01 -1.300e+01 -1.300e+01 -1.300e+01 -1.300e+01 -1.300e+01 -1.300e+01 -1.300e+01 -1.300e+01 -1.300e+01 -1.300e+01 -1.300e+01 -1.300e+01 -1.300e+01 -1.300e+01 -1.300e+01 -1.300e+01 -1.300e+01 -1.300e+01 -1.300e+01 -1.300e+01 -1.300e+01 -1.300e+01 -1.300e+01 -1.300e+01 -1.300e+01 -1.300e+01 -1.300e+01 -1.300e+01 -1.300e+01 -1.300e+01 -1.300e+01 -1.300e+01 -1.300e+01 -1.300e+01 -1.300e+01 -1.300e+01 -1.300e+01 -1.300e+01 -1.300e+01 -1.300e+01 -1.300e+01 -1.300e+01 -1.300e+01 -1.300e+01 -1.300e+01 -1.300e+01 -1.300e+01 -1.300e+01 -1.300e+01 -1.300e+01 -1.300e+01 -1.300e+01 -1.300e+01 -1.300e+01 -1.300e+01 -1.300e+01 -1.300e+01 -1.300e+01 -1.300e+01 -1.300e+01 -1.300e+01 -1.300e+01 -1.300e+01 -1.300e+01 -1.300e+01 -1.300e+01 -1.300e+01 -1.300e+01 -1.300e+01 -1.300e+01 -1.300e+01 -1.300e+01 -1.300e+01 -1.300e+01 -1.300e+01 -1.300e+01 -1.300e+01 -1.300e+01 -1.300e+01 -1.300e+01 -1.300e+01 -1.300e+01 -1.300e+01 -1.300e+01 -1.300e+01 -1.300e+01 -1.300e+01 -1.300e+01 -1.300e+01 -1.300e+01 -1.300e+01 -1.300e+01 -1.300e+01 -1.300e+01 -1.300e+01 -1.300e+01 -1.300e+01 -1.300e+01 -1.300e+01 -1.300e+01 -1.300e+01 -1.300e+01 -1.300e+01 -1.300e+01 -1.300e+01 -1.300e+01 -1.300e+01 -1.300e+01 -1.300e+01 -1.300e+01 -1.300e+01 -1.300e+01 -1.300e+01 -1.300e+01 -1.300e+01 -1.300e+01 -1.300e+01 -1.300e+01 -1.300e+01 -1.300e+01 -1.300e+01 -1.300e+01 -1.300e+01 -1.300e+01 -1.300e+01 -1.300e+01 -1.300e+01 -1.300e+01 -1.300e+01 -1.300e+01 -1.300e+01 -1.300e+01 -1.300e+01 -1.300e+01 -1.300e+01 -1.300e+01 -1.300e+01 -1.300e+01 -1.300e+01 -1.300e+01 -1.300e+01 -1.300e+01 -1.300e+01 -1.300e+01 -1.300e+01 -1.300e+01 -1.300e+01 -1.300e+01 -1.300e+01 -1.300e+01 -1.300e+01 -1.300e+01 -1.300e+01 -1.300e+01 -1.300e+01 -1.300e+01 -1.300e+01 -1.300e+01 -1.300e+01 -1.300e+01 -1.300e+01 -1.300e+01 -1.300e+01 -1.300e+01 -1.300e+01 -1.300e+01 -1.300e+01 -1.300e+01 -1.300e+01 -1.300e+01 -1.300e+01 -1.300e+01 -1.300e+01 -1.300e+01 -1.300e+01 -1.300e+01 -1.300e+01 -1.300e+01 -1.300e+01 -1.300e+01 -1.300e+01 -1.300e+01 -1.300e+01 -1.300e+01 -1.300e+01 -1.300e+01 -1.300e+01 -1.300e+01 -1.300e+01 -1.300e+01 -1.300e+01 -1.300e+01 -1.300e+01 -1.300e+01 -1.300e+01 -1.300e+01 -1.300e+01 -1.300e+01 -1.300e+01 -1.300e+01 -1.300e+01 -1.300e+01 -1.300e+01 -1.300e+01 -1.300e+01 -1.300e+01 -1.300e+01 -1.300e+01 -1.300e+01 -1.300e+01 -1.300e+01 -1.300e+01 -1.300e+01 -1.300e+01 -1.300e+01 -1.300e+01 -1.300e+01 -1.300e+01 -1.300e+01 -1.300e+01 -1.300e+01 -1.300e+01 -1.300e+01 -1.300e+01 -1.300e+01 -1.300e+01 -1.300e+01 -1.300e+01 -1.300e+01 -1.300e+01 -1.300e+01 -1.300e+01 -1.300e+01 -1.300e+01 -1.300e+01 -1.300e+01 -1.300e+01 -1.300e+01 -1.300e+01 -1.300e+01 -1.300e+01 -1.300e+01 -1.300e+01 -1.300e+01 -1.300e+01 -1.300e+01 -1.300e+01 -1.300e+01 -1.300e+01 -1.300e+01 -1.300e+01 -1.300e+01 -1.300e+01 -1.300e+01 -1.300e+01 -1.300e+01 -1.300e+01 -1.300e+01 -1.300e+01 -1.300e+01 -1.300e+01 -1.300e+01 -1.300e+01 -1.300e+01 -1.300e+01 -1.300e+01 -1.300e+01 -1.300e+01 -1.300e+01 -1.300e+01 -1.300e+01 -1.300e+01 -1.300e+01 -1.300e+01 -1.300e+01 -1.300e+01 -1.300e+01 -1.300e+01 -1.300e+01 -1.300e+01 -1.300e+01 -1.300e+01 -1.300e+01 -1.300e+01 -1.300e+01 -1.300e+01 -1.300e+01 -1.300e+01 -1.300e+01 -1.300e+01 -1.300e+01 -1.300e+01 -1.300e+01 -1.300e+01 -1.300e+01 -1.300e+01 -1.300e+01 -1.300e+01 -1.300e+01 -1.300e+01 -1.300e+01 -1.300e+01 -1.300e+01 -1.300e+01 -1.300e+01 -1.300e+01 -1.300e+01 -1.300e+01 -1.300e+01 -1.300e+01 -1.300e+01 -1.300e+01 -1.300e+01 -1.300e+01 -1.300e+01 -1.300e+01 -1.300e+01 -1.300e+01 -1.300e+01 -1.300e+01 -1.300e+01 -1.300e+01 -1.300e+01 -1.300e+01 -1.300e+01 -1.300e+01 -1.300e+01 -1.300e+01 -1.300e+01 -1.300e+01 -1.300e+01 -1.300e+01 -1.300e+01 -1.300e+01 -1.300e+01 -1.300e+01 -1.300e+01 -1.300e+01 -1.300e+01 -1.300e+01 -1.300e+01 -1.300e+01 -1.300e+01 -1.300e+01 -1.300e+01 -1.300e+01 -1.300e+01 -1.300e+01 -1.300e+01 -1.300e+01 -1.300e+01 -1.300e+01 -1.300e+01 -1.300e+01 -1.300e+01 -1.300e+01 -1.300e+01 -1.300e+01 -1.300e+01 -1.300e+01 -1.300e+01 -1.300e+01 -1.300e+01 -1.300e+01 -1.300e+01 -1.300e+01 -1.300e+01 -1.300e+01 -1.300e+01 -1.300e+01 -1.300e+01 -1.300e+01 -1.300e+01 -1.300e+01 -1.300e+01 -1.300e+01 -1.300e+01 -1.300e+01 -1.300e+01 -1.300e+01 -1.300e+01 -1.300e+01 -1.300e+01 -1.300e+01 -1.300e+01 -1.300e+01 -1.300e+01 -1.300e+01 -1.300e+01 -1.300e+01 -1.300e+01 -1.300e+01 -1.300e+01 -1.300e+01 -1.300e+01 -1.300e+01 -1.300e+01 -1.300e+01 -1.300e+01 -1.300e+01 -1.300e+01 -1.300e+01 -1.300e+01 -1.300e+01 -1.300e+01 -1.300e+01 -1.300e+01 -1.300e+01 -1.300e+01 -1.300e+01 -1.300e+01 -1.300e+01 -1.300e+01 -1.300e+01 -1.300e+01 -1.300e+01 -1.300e+01 -1.300e+01 -1.300e+01 -1.300e+01 -1.300e+01 -1.300e+01 -1.300e+01 -1.300e+01 -1.300e+01 -1.300e+01 -1.300e+01 -1.300e+01 -1.300e+01 -1.300e+01 -1.300e+01 -1.300e+01 -1.300e+01 -1.300e+01 -1.300e+01 -1.300e+01 -1.300e+01 -1.300e+01 -1.300e+01 -1.300e+01 -1.300e+01 -1.300e+01 -1.300e+01 -1.300e+01 -1.300e+01 -1.300e+01 -1.300e+01 -1.300e+01 -1.300e+01 -1.300e+01 -1.300e+01 -1.300e+01 -1.300e+01 -1.300e+01 -1.300e+01 -1.300e+01 -1.300e+01 -1.300e+01 -1.300e+01 -1.300e+01 -1.300e+01 -1.300e+01 -1.300e+01 -1.300e+01 -1.300e+01 -1.300e+01 -1.300e+01 -1.300e+01 -1.300e+01 -1.300e+01 -1.300e+01 -1.300e+01 -1.300e+01 -1.300e+01 -1.300e+01 -1.300e+01 -1.300e+01 -1.300e+01 -1.300e+01 -1.300e+01 -1.300e+01 -1.300e+01 -1.300e+01 -1.300e+01 -1.300e+01 -1.300e+01 -1.300e+01 -1.300e+01 -1.300e+01 -1.300e+01 -1.300e+01 -1.300e+01 -1.300e+01 -5.000e+00 -5.000e+00 -5.000e+00 -5.000e+00 -5.000e+00 -5.000e+00 -5.000e+00 -5.000e+00 -5.000e+00 -5.000e+00 -5.000e+00 -5.000e+00 -5.000e+00 -5.000e+00 -5.000e+00 -5.000e+00 -5.000e+00 -5.000e+00 -5.000e+00 -5.000e+00 -5.000e+00 -5.000e+00 -5.000e+00 -5.000e+00 -5.000e+00 -5.000e+00 -5.000e+00 -5.000e+00 -5.000e+00 -5.000e+00 -5.000e+00 -5.000e+00 -5.000e+00 -5.000e+00 -5.000e+00 -5.000e+00 -5.000e+00 -5.000e+00 -5.000e+00 -5.000e+00 -5.000e+00 -5.000e+00 -5.000e+00 -5.000e+00 -5.000e+00 -5.000e+00 -5.000e+00 -5.000e+00 -1.300e+01 -1.300e+01 -1.300e+01 -1.300e+01 -1.300e+01 -1.300e+01 -1.300e+01 -1.300e+01 -1.300e+01 -1.300e+01 -1.300e+01 -1.300e+01 -1.300e+01 -1.300e+01 -1.300e+01 -1.300e+01 -1.300e+01 -1.300e+01 -1.300e+01 -1.300e+01 -1.300e+01 -1.300e+01 -1.300e+01 -1.300e+01 -1.300e+01 -1.300e+01 -1.300e+01 -1.300e+01 -1.300e+01 -1.300e+01 -1.300e+01 -1.300e+01 -1.300e+01 -1.300e+01 -1.300e+01 -1.300e+01 -1.300e+01 -1.300e+01 -1.300e+01 -1.300e+01 -1.300e+01 -1.300e+01 -1.300e+01 -1.300e+01 -1.300e+01 -1.300e+01 -1.300e+01 -1.300e+01 -1.300e+01 -1.300e+01 -1.300e+01 -1.300e+01 -1.300e+01 -1.300e+01 -1.300e+01 -1.300e+01 -1.300e+01 -1.300e+01 -1.300e+01 -1.300e+01 -1.300e+01 -1.300e+01 -1.300e+01 -1.300e+01 -1.300e+01 -1.300e+01 -1.300e+01 -1.300e+01 -1.300e+01 -1.300e+01 -1.300e+01 -1.300e+01 -1.300e+01 -1.300e+01 -1.300e+01 -1.300e+01 -1.300e+01 -1.300e+01 -1.300e+01 -1.300e+01 -1.300e+01 -1.300e+01 -1.300e+01 -1.300e+01 -1.300e+01 -1.300e+01 -1.300e+01 -1.300e+01 -1.300e+01 -1.300e+01 -1.300e+01 -1.300e+01 -1.300e+01 -1.300e+01 -1.300e+01 -1.300e+01 -1.300e+01 -1.300e+01 -1.300e+01 -1.300e+01 -1.300e+01 -1.300e+01 -1.300e+01 -1.300e+01 -1.300e+01 -1.300e+01 -1.300e+01 -1.300e+01 -1.300e+01 -1.300e+01 -1.300e+01 -1.300e+01 -1.300e+01 -1.300e+01 -1.300e+01 -1.300e+01 -1.300e+01 -1.300e+01 -1.300e+01 -1.300e+01 -1.300e+01 -1.300e+01 -1.300e+01 -1.300e+01 -1.300e+01 -1.300e+01 -1.300e+01 -1.300e+01 -1.300e+01 -1.300e+01 -1.300e+01 -1.300e+01 -1.300e+01 -1.300e+01 -1.300e+01 -1.300e+01 -1.300e+01 -1.300e+01 -1.300e+01 -1.300e+01 -1.300e+01 -1.300e+01 -1.300e+01 -1.300e+01 -1.300e+01 -1.300e+01 -1.300e+01 -1.300e+01 -1.300e+01 -1.300e+01 -1.300e+01 -1.300e+01 -1.300e+01 -1.300e+01 -1.300e+01 -1.300e+01 -1.300e+01 -1.300e+01 -1.300e+01 -1.300e+01 -1.300e+01 -1.300e+01 -1.300e+01 -1.300e+01 -1.300e+01 -1.300e+01 -1.300e+01 -1.300e+01 -1.300e+01 -1.300e+01 -1.300e+01 -1.300e+01 -1.300e+01 -1.300e+01 -1.300e+01 -1.300e+01 -1.300e+01 -1.300e+01 -1.300e+01 -1.300e+01 -1.300e+01 -1.300e+01 -1.300e+01 -1.300e+01 -1.300e+01 -1.300e+01 -1.300e+01 -1.300e+01 -1.300e+01 -1.300e+01 -1.300e+01 -1.300e+01 -1.300e+01 -1.300e+01 -1.300e+01 -1.300e+01 -1.300e+01 -1.300e+01 -1.300e+01 -1.300e+01 -1.300e+01 -1.300e+01 -1.300e+01 -1.300e+01 -1.300e+01 -1.300e+01 -1.300e+01 -1.300e+01 -1.300e+01 -1.300e+01 -1.300e+01 -1.300e+01 -1.300e+01 -1.300e+01 -1.300e+01 -1.300e+01 -1.300e+01 -1.300e+01 -1.300e+01 -1.300e+01 -1.300e+01 -1.300e+01 -1.300e+01 -1.300e+01 -1.300e+01 -1.300e+01 -1.300e+01 -1.300e+01 -1.300e+01 -1.300e+01 -1.300e+01 -1.300e+01 -1.300e+01 -1.300e+01 -1.300e+01 -1.300e+01 -1.300e+01 -1.300e+01 -1.300e+01 -1.300e+01 -1.300e+01 -1.300e+01 -1.300e+01 -1.300e+01 -1.300e+01 -1.300e+01 -1.300e+01 -1.300e+01 -1.300e+01 -1.300e+01 -1.300e+01 -1.300e+01 -1.300e+01 -1.300e+01 -1.300e+01 -1.300e+01 -1.300e+01 -1.300e+01 -1.300e+01 -1.300e+01 -1.300e+01 -1.300e+01 -1.300e+01 -1.300e+01 -1.300e+01 -1.300e+01 -1.300e+01 -1.300e+01 -1.300e+01 -1.300e+01 -1.300e+01 -1.300e+01 -1.300e+01 -1.300e+01 -1.300e+01 -1.300e+01 -1.300e+01 -1.300e+01 -1.300e+01 -1.300e+01 -1.300e+01 -1.300e+01 -1.300e+01 -1.300e+01 -1.300e+01 -1.300e+01 -1.300e+01 -1.300e+01 -1.300e+01 -1.300e+01 -1.300e+01 -1.300e+01 -1.300e+01 -1.300e+01 -1.300e+01 -1.300e+01 -1.300e+01 -1.300e+01 -1.300e+01 -1.300e+01 -1.300e+01 -1.300e+01 -1.300e+01 -1.300e+01 -1.300e+01 -1.300e+01 -1.300e+01 -1.300e+01 -1.300e+01 -1.300e+01 -1.300e+01 -1.300e+01 -1.300e+01 -1.300e+01 -1.300e+01 -1.300e+01 -1.300e+01 -1.300e+01 -1.300e+01 -1.300e+01 -1.300e+01 -1.300e+01 -1.300e+01 -1.300e+01 -1.300e+01 -1.300e+01 -1.300e+01 -1.300e+01 -1.300e+01 -1.300e+01 -1.300e+01 -1.300e+01 -1.300e+01 -1.300e+01 -1.300e+01 -1.300e+01 -1.300e+01 -1.300e+01 -1.300e+01 -1.300e+01 -1.300e+01 -1.300e+01 -1.300e+01 -1.300e+01 -1.300e+01 -1.300e+01 -1.300e+01 -1.300e+01 -1.300e+01 -1.300e+01 -1.300e+01 -1.300e+01 -1.300e+01 -1.300e+01 -1.300e+01 -1.300e+01 -1.300e+01 -1.300e+01 -1.300e+01 -1.300e+01 -1.300e+01 -1.300e+01 -1.300e+01 -1.300e+01 -1.300e+01 -1.300e+01 -1.300e+01 -1.300e+01 -1.300e+01 -1.300e+01 -1.300e+01 -1.300e+01 -1.300e+01 -1.300e+01 -1.300e+01 -1.300e+01 -1.300e+01 -1.300e+01 -1.300e+01 -1.300e+01 -1.300e+01 -1.300e+01 -1.300e+01 -1.300e+01 -1.300e+01 -1.300e+01 -1.300e+01 -1.300e+01 -1.300e+01 -1.300e+01 -1.300e+01 -1.300e+01 -1.300e+01 -1.300e+01 -1.300e+01 -1.300e+01 -1.300e+01 -1.300e+01 -1.300e+01 -1.300e+01 -1.300e+01 -1.300e+01 -1.300e+01 -1.300e+01 -1.300e+01 -1.300e+01 -1.300e+01 -1.300e+01 -1.300e+01 -1.300e+01 -1.300e+01 -1.300e+01 -1.300e+01 -1.300e+01 -1.300e+01 -1.300e+01 -1.300e+01 -1.300e+01 -1.300e+01 -1.300e+01 -1.300e+01 -1.300e+01 -1.300e+01 -1.300e+01 -1.300e+01 -1.300e+01 -1.300e+01 -1.300e+01 -1.300e+01 -1.300e+01 -1.300e+01 -1.300e+01 -1.300e+01 -1.300e+01 -1.300e+01 -1.300e+01 -1.300e+01 -1.300e+01 -1.300e+01 -1.300e+01 -1.300e+01 -1.300e+01 -1.300e+01 -1.300e+01 -1.300e+01 -1.300e+01 -1.300e+01 -1.300e+01 -1.300e+01 -1.300e+01 -1.300e+01 -1.300e+01 -1.300e+01 -1.300e+01 -1.300e+01 -1.300e+01 -1.300e+01 -1.300e+01 -1.300e+01 -1.300e+01 -1.300e+01 -1.300e+01 -1.300e+01 -1.300e+01 -1.300e+01 -1.300e+01 -1.300e+01 -1.300e+01 -1.300e+01 -1.300e+01 -1.300e+01 -1.300e+01 -1.300e+01 -1.300e+01 -1.300e+01 -1.300e+01 -1.300e+01 -1.300e+01 -1.300e+01 -1.300e+01 -1.300e+01 -1.300e+01 -1.300e+01 -1.300e+01 -1.300e+01 -1.300e+01 -1.300e+01 -1.300e+01 -1.300e+01 -1.300e+01 -1.300e+01 -1.300e+01 -1.300e+01 -1.300e+01 -1.300e+01 -1.300e+01 -1.300e+01 -1.300e+01 -1.300e+01 -1.300e+01 -1.300e+01 -1.300e+01 -1.300e+01 -1.300e+01 -1.300e+01 -1.300e+01 -1.300e+01 -1.300e+01 -1.300e+01 -1.300e+01 -1.300e+01 -1.300e+01 -1.300e+01 -1.300e+01 -1.300e+01 -1.300e+01 -1.300e+01 -1.300e+01 -1.300e+01 -1.300e+01 -1.300e+01 -1.300e+01 -1.300e+01 -1.300e+01 -1.300e+01 -1.300e+01 -1.300e+01 -1.300e+01 -1.300e+01 -1.300e+01 -1.300e+01 -1.300e+01 -1.300e+01 -1.300e+01 -1.300e+01 -1.300e+01 -1.300e+01 -1.300e+01 -1.300e+01 -1.300e+01 -1.300e+01 -1.300e+01 -1.300e+01 -1.300e+01 -1.300e+01 -1.300e+01 -1.300e+01 -1.300e+01 -1.300e+01 -1.300e+01 -1.300e+01 -1.300e+01 -1.300e+01 -1.300e+01 -1.300e+01 -1.300e+01 -1.300e+01 -1.300e+01 -1.300e+01 -1.300e+01 -1.300e+01 -1.300e+01 -1.300e+01 -1.300e+01 -5.000e+00 -5.000e+00 -5.000e+00 -5.000e+00 -5.000e+00 -5.000e+00 -5.000e+00 -5.000e+00 -5.000e+00 -5.000e+00 -5.000e+00 -5.000e+00 -5.000e+00 -5.000e+00 -5.000e+00 -5.000e+00 -5.000e+00 -5.000e+00 -5.000e+00 -5.000e+00 -5.000e+00 -5.000e+00 -5.000e+00 -5.000e+00 -5.000e+00 -5.000e+00 -5.000e+00 -5.000e+00 -5.000e+00 -5.000e+00 -5.000e+00 -5.000e+00 -5.000e+00 -5.000e+00 -5.000e+00 -5.000e+00 -5.000e+00 -5.000e+00 -5.000e+00 -5.000e+00 -5.000e+00 -5.000e+00 -5.000e+00 -5.000e+00 -5.000e+00 -5.000e+00 -5.000e+00 -5.000e+00 -1.300e+01 -1.300e+01 -1.300e+01 -1.300e+01 -1.300e+01 -1.300e+01 -1.300e+01 -1.300e+01 -1.300e+01 -1.300e+01 -1.300e+01 -1.300e+01 -1.300e+01 -1.300e+01 -1.300e+01 -1.300e+01 -1.300e+01 -1.300e+01 -1.300e+01 -1.300e+01 -1.300e+01 -1.300e+01 -1.300e+01 -1.300e+01 -1.300e+01 -1.300e+01 -1.300e+01 -1.300e+01 -1.300e+01 -1.300e+01 -1.300e+01 -1.300e+01 -1.300e+01 -1.300e+01 -1.300e+01 -1.300e+01 -1.300e+01 -1.300e+01 -1.300e+01 -1.300e+01 -1.300e+01 -1.300e+01 -1.300e+01 -1.300e+01 -1.300e+01 -1.300e+01 -1.300e+01 -1.300e+01 -1.300e+01 -1.300e+01 -1.300e+01 -1.300e+01 -1.300e+01 -1.300e+01 -1.300e+01 -1.300e+01 -1.300e+01 -1.300e+01 -1.300e+01 -1.300e+01 -1.300e+01 -1.300e+01 -1.300e+01 -1.300e+01 -1.300e+01 -1.300e+01 -1.300e+01 -1.300e+01 -1.300e+01 -1.300e+01 -1.300e+01 -1.300e+01 -1.300e+01 -1.300e+01 -1.300e+01 -1.300e+01 -1.300e+01 -1.300e+01 -1.300e+01 -1.300e+01 -1.300e+01 -1.300e+01 -1.300e+01 -1.300e+01 -1.300e+01 -1.300e+01 -1.300e+01 -1.300e+01 -1.300e+01 -1.300e+01 -1.300e+01 -1.300e+01 -1.300e+01 -1.300e+01 -1.300e+01 -1.300e+01 -1.300e+01 -1.300e+01 -1.300e+01 -1.300e+01 -1.300e+01 -1.300e+01 -1.300e+01 -1.300e+01 -1.300e+01 -1.300e+01 -1.300e+01 -1.300e+01 -1.300e+01 -1.300e+01 -1.300e+01 -1.300e+01 -1.300e+01 -1.300e+01 -1.300e+01 -1.300e+01 -1.300e+01 -1.300e+01 -1.300e+01 -1.300e+01 -1.300e+01 -1.300e+01 -1.300e+01 -1.300e+01 -1.300e+01 -1.300e+01 -1.300e+01 -1.300e+01 -1.300e+01 -1.300e+01 -1.300e+01 -1.300e+01 -1.300e+01 -1.300e+01 -1.300e+01 -1.300e+01 -1.300e+01 -1.300e+01 -1.300e+01 -1.300e+01 -1.300e+01 -1.300e+01 -1.300e+01 -1.300e+01 -1.300e+01 -1.300e+01 -1.300e+01 -1.300e+01 -1.300e+01 -1.300e+01 -1.300e+01 -1.300e+01 -1.300e+01 -1.300e+01 -1.300e+01 -1.300e+01 -1.300e+01 -1.300e+01 -1.300e+01 -1.300e+01 -1.300e+01 -1.300e+01 -1.300e+01 -1.300e+01 -1.300e+01 -1.300e+01 -1.300e+01 -1.300e+01 -1.300e+01 -1.300e+01 -1.300e+01 -1.300e+01 -1.300e+01 -1.300e+01 -1.300e+01 -1.300e+01 -1.300e+01 -1.300e+01 -1.300e+01 -1.300e+01 -1.300e+01 -1.300e+01 -1.300e+01 -1.300e+01 -1.300e+01 -1.300e+01 -1.300e+01 -1.300e+01 -1.300e+01 -1.300e+01 -1.300e+01 -1.300e+01 -1.300e+01 -1.300e+01 -1.300e+01 -1.300e+01 -1.300e+01 -1.300e+01 -1.300e+01 -1.300e+01 -1.300e+01 -1.300e+01 -1.300e+01 -1.300e+01 -1.300e+01 -1.300e+01 -1.300e+01 -1.300e+01 -1.300e+01 -1.300e+01 -1.300e+01 -1.300e+01 -1.300e+01 -1.300e+01 -1.300e+01 -1.300e+01 -1.300e+01 -1.300e+01 -1.300e+01 -1.300e+01 -1.300e+01 -1.300e+01 -1.300e+01 -1.300e+01 -1.300e+01 -1.300e+01 -1.300e+01 -1.300e+01 -1.300e+01 -1.300e+01 -1.300e+01 -1.300e+01 -1.300e+01 -1.300e+01 -1.300e+01 -1.300e+01 -1.300e+01 -1.300e+01 -1.300e+01 -1.300e+01 -1.300e+01 -1.300e+01 -1.300e+01 -1.300e+01 -1.300e+01 -1.300e+01 -1.300e+01 -1.300e+01 -1.300e+01 -1.300e+01 -1.300e+01 -1.300e+01 -1.300e+01 -1.300e+01 -1.300e+01 -1.300e+01 -1.300e+01 -1.300e+01 -1.300e+01 -1.300e+01 -1.300e+01 -1.300e+01 -1.300e+01 -1.300e+01 -1.300e+01 -1.300e+01 -1.300e+01 -1.300e+01 -1.300e+01 -1.300e+01 -1.300e+01 -1.300e+01 -1.300e+01 -1.300e+01 -1.300e+01 -1.300e+01 -1.300e+01 -1.300e+01 -1.300e+01 -1.300e+01 -1.300e+01 -1.300e+01 -1.300e+01 -1.300e+01 -1.300e+01 -1.300e+01 -1.300e+01 -1.300e+01 -1.300e+01 -1.300e+01 -1.300e+01 -1.300e+01 -1.300e+01 -1.300e+01 -1.300e+01 -1.300e+01 -1.300e+01 -1.300e+01 -1.300e+01 -1.300e+01 -1.300e+01 -1.300e+01 -1.300e+01 -1.300e+01 -1.300e+01 -1.300e+01 -1.300e+01 -1.300e+01 -1.300e+01 -1.300e+01 -1.300e+01 -1.300e+01 -1.300e+01 -1.300e+01 -1.300e+01 -1.300e+01 -1.300e+01 -1.300e+01 -1.300e+01 -1.300e+01 -1.300e+01 -1.300e+01 -1.300e+01 -1.300e+01 -1.300e+01 -1.300e+01 -1.300e+01 -1.300e+01 -1.300e+01 -1.300e+01 -1.300e+01 -1.300e+01 -1.300e+01 -1.300e+01 -1.300e+01 -1.300e+01 -1.300e+01 -1.300e+01 -1.300e+01 -1.300e+01 -1.300e+01 -1.300e+01 -1.300e+01 -1.300e+01 -1.300e+01 -1.300e+01 -1.300e+01 -1.300e+01 -1.300e+01 -1.300e+01 -1.300e+01 -1.300e+01 -1.300e+01 -1.300e+01 -1.300e+01 -1.300e+01 -1.300e+01 -1.300e+01 -1.300e+01 -1.300e+01 -1.300e+01 -1.300e+01 -1.300e+01 -1.300e+01 -1.300e+01 -1.300e+01 -1.300e+01 -1.300e+01 -1.300e+01 -1.300e+01 -1.300e+01 -1.300e+01 -1.300e+01 -1.300e+01 -1.300e+01 -1.300e+01 -1.300e+01 -1.300e+01 -1.300e+01 -1.300e+01 -1.300e+01 -1.300e+01 -1.300e+01 -1.300e+01 -1.300e+01 -1.300e+01 -1.300e+01 -1.300e+01 -1.300e+01 -1.300e+01 -1.300e+01 -1.300e+01 -1.300e+01 -1.300e+01 -1.300e+01 -1.300e+01 -1.300e+01 -1.300e+01 -1.300e+01 -1.300e+01 -1.300e+01 -1.300e+01 -1.300e+01 -1.300e+01 -1.300e+01 -1.300e+01 -1.300e+01 -1.300e+01 -1.300e+01 -1.300e+01 -1.300e+01 -1.300e+01 -1.300e+01 -1.300e+01 -1.300e+01 -1.300e+01 -1.300e+01 -1.300e+01 -1.300e+01 -1.300e+01 -1.300e+01 -1.300e+01 -1.300e+01 -1.300e+01 -1.300e+01 -1.300e+01 -1.300e+01 -1.300e+01 -1.300e+01 -1.300e+01 -1.300e+01 -1.300e+01 -1.300e+01 -1.300e+01 -1.300e+01 -1.300e+01 -1.300e+01 -1.300e+01 -1.300e+01 -1.300e+01 -1.300e+01 -1.300e+01 -1.300e+01 -1.300e+01 -1.300e+01 -1.300e+01 -1.300e+01 -1.300e+01 -1.300e+01 -1.300e+01 -1.300e+01 -1.300e+01 -1.300e+01 -1.300e+01 -1.300e+01 -1.300e+01 -1.300e+01 -1.300e+01 -1.300e+01 -1.300e+01 -1.300e+01 -1.300e+01 -1.300e+01 -1.300e+01 -1.300e+01 -1.300e+01 -1.300e+01 -1.300e+01 -1.300e+01 -1.300e+01 -1.300e+01 -1.300e+01 -1.300e+01 -1.300e+01 -1.300e+01 -1.300e+01 -1.300e+01 -1.300e+01 -1.300e+01 -1.300e+01 -1.300e+01 -1.300e+01 -1.300e+01 -1.300e+01 -1.300e+01 -1.300e+01 -1.300e+01 -1.300e+01 -1.300e+01 -1.300e+01 -1.300e+01 -1.300e+01 -1.300e+01 -1.300e+01 -1.300e+01 -1.300e+01 -1.300e+01 -1.300e+01 -1.300e+01 -1.300e+01 -1.300e+01 -1.300e+01 -1.300e+01 -1.300e+01 -1.300e+01 -1.300e+01 -1.300e+01 -1.300e+01 -1.300e+01 -1.300e+01 -1.300e+01 -1.300e+01 -1.300e+01 -1.300e+01 -1.300e+01 -1.300e+01 -1.300e+01 -1.300e+01 -1.300e+01 -1.300e+01 -1.300e+01 -1.300e+01 -1.300e+01 -1.300e+01 -1.300e+01 -1.300e+01 -1.300e+01 -1.300e+01 -1.300e+01 -1.300e+01 -1.300e+01 -1.300e+01 -1.300e+01 -1.300e+01 -1.300e+01 -1.300e+01 -1.300e+01 -1.300e+01 -1.300e+01 -1.300e+01 -1.300e+01 -1.300e+01 -1.300e+01 -1.300e+01 -1.300e+01 -1.300e+01 -1.300e+01 -1.300e+01 -1.300e+01 -1.300e+01 -1.300e+01 -1.300e+01 -1.300e+01 -1.300e+01 -1.300e+01 -1.300e+01 -1.300e+01 -1.300e+01 -1.300e+01 -1.300e+01 -1.300e+01 -1.300e+01 -1.300e+01 -1.300e+01 -1.300e+01 -1.300e+01 -1.300e+01 -1.300e+01 -1.300e+01 -5.000e+00 -5.000e+00 -5.000e+00 -5.000e+00 -5.000e+00 -5.000e+00 -5.000e+00 -5.000e+00 -5.000e+00 -5.000e+00 -5.000e+00 -5.000e+00