<?xml version="1.0"?>
<VTKFile type="UnstructuredGrid" version="0.1" byte_order="LittleEndian">
   <UnstructuredGrid>
      <Piece NumberOfPoints="13580" NumberOfCells="952">
         <Points>
            <DataArray type="Float32" Name="Position" NumberOfComponents="3" format="ascii">
-0.155	-5.023	0.003
-0.148	-5.018	0.001
-0.138	-5.019	-0.001
-0.131	-5.025	-0.002
-0.129	-5.034	-0.002
-0.132	-5.042	-0.000
-0.140	-5.047	0.002
-0.149	-5.047	0.004
-0.156	-5.041	0.005
-0.158	-5.032	0.005
-0.350	-5.101	-0.853
-0.342	-5.097	-0.855
-0.333	-5.098	-0.856
-0.327	-5.104	-0.856
-0.325	-5.113	-0.856
-0.329	-5.122	-0.855
-0.337	-5.126	-0.854
-0.346	-5.125	-0.853
-0.353	-5.119	-0.852
-0.354	-5.110	-0.852
-0.358	-5.120	-1.643
-0.350	-5.115	-1.643
-0.341	-5.117	-1.643
-0.334	-5.123	-1.643
-0.333	-5.133	-1.643
-0.337	-5.141	-1.643
-0.346	-5.145	-1.643
-0.355	-5.144	-1.643
-0.361	-5.137	-1.643
-0.363	-5.128	-1.643
-0.271	-5.105	0.000
-0.267	-5.098	0.004
-0.268	-5.089	0.005
-0.274	-5.082	0.004
-0.283	-5.079	0.000
-0.290	-5.082	-0.004
-0.294	-5.090	-0.008
-0.293	-5.099	-0.009
-0.287	-5.106	-0.008
-0.279	-5.109	-0.004
-0.648	-5.280	0.741
-0.645	-5.273	0.746
-0.647	-5.264	0.748
-0.652	-5.256	0.746
-0.659	-5.254	0.741
-0.666	-5.256	0.735
-0.668	-5.263	0.730
-0.667	-5.272	0.728
-0.661	-5.279	0.729
-0.654	-5.282	0.734
-1.014	-5.423	0.988
-1.006	-5.419	0.988
-0.997	-5.420	0.988
-0.990	-5.427	0.988
-0.989	-5.436	0.988
-0.993	-5.444	0.988
-1.001	-5.449	0.988
-1.010	-5.447	0.988
-1.017	-5.441	0.988
-1.018	-5.431	0.988
-1.231	-6.037	-0.053
-1.232	-6.029	-0.048
-1.233	-6.020	-0.049
-1.233	-6.013	-0.055
-1.234	-6.011	-0.064
-1.234	-6.014	-0.072
-1.233	-6.022	-0.077
-1.232	-6.032	-0.076
-1.231	-6.039	-0.070
-1.231	-6.041	-0.061
-2.088	-6.115	-0.032
-2.089	-6.107	-0.027
-2.090	-6.098	-0.028
-2.091	-6.091	-0.034
-2.092	-6.089	-0.043
-2.093	-6.092	-0.051
-2.092	-6.100	-0.056
-2.091	-6.109	-0.056
-2.090	-6.116	-0.050
-2.089	-6.118	-0.041
-2.304	-6.148	-0.001
-2.305	-6.140	0.004
-2.306	-6.131	0.004
-2.308	-6.124	-0.001
-2.310	-6.121	-0.010
-2.310	-6.124	-0.018
-2.310	-6.132	-0.024
-2.309	-6.141	-0.024
-2.307	-6.148	-0.018
-2.305	-6.151	-0.010
-1.315	-6.161	-0.054
-1.316	-6.153	-0.050
-1.316	-6.144	-0.051
-1.316	-6.137	-0.058
-1.316	-6.136	-0.067
-1.316	-6.140	-0.075
-1.315	-6.148	-0.080
-1.315	-6.157	-0.078
-1.315	-6.164	-0.072
-1.315	-6.165	-0.062
-2.147	-6.196	-0.079
-2.148	-6.188	-0.074
-2.149	-6.178	-0.075
-2.150	-6.172	-0.082
-2.150	-6.170	-0.091
-2.149	-6.174	-0.099
-2.148	-6.182	-0.104
-2.147	-6.191	-0.103
-2.147	-6.198	-0.096
-2.147	-6.199	-0.087
-2.618	-6.269	-0.092
-2.620	-6.261	-0.087
-2.621	-6.252	-0.088
-2.622	-6.245	-0.094
-2.622	-6.243	-0.103
-2.621	-6.247	-0.112
-2.620	-6.254	-0.117
-2.619	-6.263	-0.116
-2.618	-6.270	-0.110
-2.618	-6.273	-0.101
-1.391	-6.270	-0.078
-1.386	-6.267	-0.070
-1.385	-6.268	-0.061
-1.387	-6.273	-0.054
-1.393	-6.279	-0.051
-1.399	-6.285	-0.054
-1.404	-6.288	-0.061
-1.406	-6.287	-0.070
-1.403	-6.283	-0.077
-1.397	-6.276	-0.080
-0.796	-6.834	-0.236
-0.791	-6.831	-0.229
-0.789	-6.833	-0.220
-0.791	-6.838	-0.213
-0.795	-6.846	-0.210
-0.801	-6.853	-0.213
-0.806	-6.856	-0.220
-0.808	-6.854	-0.229
-0.806	-6.849	-0.236
-0.802	-6.841	-0.239
-0.609	-6.929	-0.318
-0.604	-6.926	-0.311
-0.601	-6.928	-0.302
-0.601	-6.934	-0.295
-0.605	-6.942	-0.293
-0.610	-6.950	-0.296
-0.614	-6.953	-0.303
-0.617	-6.951	-0.312
-0.617	-6.944	-0.319
-0.614	-6.936	-0.321
-1.458	-6.416	-0.067
-1.455	-6.407	-0.065
-1.458	-6.399	-0.062
-1.465	-6.394	-0.059
-1.474	-6.394	-0.058
-1.482	-6.400	-0.058
-1.484	-6.408	-0.061
-1.482	-6.417	-0.064
-1.474	-6.422	-0.066
-1.465	-6.421	-0.068
-1.340	-6.673	0.745
-1.337	-6.664	0.748
-1.340	-6.657	0.751
-1.348	-6.652	0.755
-1.357	-6.653	0.756
-1.364	-6.659	0.756
-1.366	-6.668	0.753
-1.363	-6.675	0.749
-1.356	-6.680	0.745
-1.347	-6.679	0.744
-1.290	-6.764	0.944
-1.290	-6.760	0.952
-1.290	-6.761	0.961
-1.290	-6.768	0.968
-1.290	-6.777	0.969
-1.290	-6.785	0.965
-1.290	-6.789	0.957
-1.290	-6.788	0.948
-1.290	-6.781	0.941
-1.290	-6.772	0.940
-1.542	-6.550	-0.051
-1.544	-6.542	-0.047
-1.546	-6.533	-0.048
-1.546	-6.526	-0.054
-1.545	-6.524	-0.063
-1.543	-6.528	-0.072
-1.541	-6.536	-0.076
-1.540	-6.545	-0.075
-1.539	-6.551	-0.069
-1.540	-6.553	-0.060
-2.378	-6.718	-0.173
-2.382	-6.711	-0.169
-2.384	-6.702	-0.170
-2.384	-6.695	-0.177
-2.382	-6.693	-0.186
-2.379	-6.697	-0.194
-2.376	-6.704	-0.198
-2.373	-6.713	-0.196
-2.373	-6.720	-0.190
-2.375	-6.722	-0.181
-2.472	-6.757	-0.212
-2.476	-6.750	-0.209
-2.479	-6.741	-0.211
-2.479	-6.735	-0.218
-2.476	-6.733	-0.226
-2.472	-6.736	-0.234
-2.467	-6.744	-0.237
-2.464	-6.752	-0.235
-2.464	-6.759	-0.228
-2.467	-6.761	-0.220
-1.624	-6.659	-0.063
-1.616	-6.656	-0.065
-1.607	-6.658	-0.066
-1.601	-6.665	-0.065
-1.600	-6.674	-0.062
-1.605	-6.682	-0.059
-1.613	-6.685	-0.057
-1.622	-6.682	-0.056
-1.628	-6.675	-0.057
-1.629	-6.666	-0.060
-1.769	-6.908	-0.897
-1.761	-6.905	-0.899
-1.752	-6.906	-0.901
-1.745	-6.913	-0.901
-1.744	-6.922	-0.899
-1.748	-6.930	-0.896
-1.756	-6.934	-0.893
-1.765	-6.932	-0.892
-1.771	-6.925	-0.892
-1.773	-6.916	-0.894
-1.810	-6.940	-1.069
-1.802	-6.936	-1.072
-1.793	-6.937	-1.074
-1.786	-6.943	-1.074
-1.784	-6.952	-1.073
-1.788	-6.961	-1.070
-1.796	-6.965	-1.068
-1.805	-6.964	-1.066
-1.811	-6.957	-1.066
-1.813	-6.948	-1.067
-1.672	-6.813	-0.064
-1.669	-6.804	-0.063
-1.671	-6.795	-0.062
-1.678	-6.790	-0.061
-1.687	-6.789	-0.060
-1.695	-6.794	-0.059
-1.698	-6.803	-0.060
-1.696	-6.812	-0.061
-1.689	-6.817	-0.062
-1.680	-6.818	-0.063
-1.583	-6.891	0.799
-1.580	-6.882	0.800
-1.583	-6.873	0.802
-1.590	-6.868	0.804
-1.599	-6.868	0.805
-1.607	-6.873	0.805
-1.610	-6.882	0.804
-1.607	-6.891	0.803
-1.600	-6.896	0.801
-1.591	-6.896	0.800
-1.563	-6.912	0.910
-1.560	-6.903	0.911
-1.563	-6.894	0.913
-1.570	-6.889	0.915
-1.579	-6.890	0.917
-1.587	-6.895	0.917
-1.590	-6.904	0.916
-1.587	-6.912	0.914
-1.579	-6.918	0.912
-1.570	-6.917	0.910
-1.760	-6.927	-0.065
-1.751	-6.924	-0.067
-1.742	-6.926	-0.067
-1.736	-6.933	-0.067
-1.735	-6.942	-0.065
-1.740	-6.949	-0.062
-1.748	-6.953	-0.060
-1.757	-6.950	-0.059
-1.763	-6.944	-0.060
-1.764	-6.935	-0.062
-1.873	-7.122	-0.885
-1.865	-7.118	-0.887
-1.856	-7.121	-0.888
-1.850	-7.128	-0.888
-1.849	-7.136	-0.885
-1.853	-7.144	-0.883
-1.862	-7.147	-0.880
-1.871	-7.145	-0.879
-1.877	-7.138	-0.880
-1.878	-7.129	-0.882
-1.911	-7.172	-1.058
-1.902	-7.168	-1.060
-1.894	-7.170	-1.062
-1.887	-7.177	-1.061
-1.886	-7.186	-1.059
-1.891	-7.194	-1.056
-1.899	-7.197	-1.053
-1.908	-7.195	-1.052
-1.914	-7.188	-1.052
-1.915	-7.179	-1.055
-1.802	-7.083	-0.069
-1.799	-7.076	-0.065
-1.801	-7.067	-0.062
-1.808	-7.061	-0.061
-1.817	-7.060	-0.062
-1.825	-7.064	-0.065
-1.828	-7.072	-0.068
-1.826	-7.081	-0.071
-1.819	-7.087	-0.072
-1.810	-7.088	-0.071
-1.935	-7.395	0.745
-1.932	-7.388	0.750
-1.935	-7.380	0.754
-1.942	-7.374	0.755
-1.951	-7.373	0.754
-1.959	-7.377	0.750
-1.962	-7.384	0.745
-1.959	-7.392	0.742
-1.952	-7.398	0.740
-1.943	-7.399	0.741
-1.980	-7.507	0.898
-1.978	-7.501	0.904
-1.980	-7.493	0.909
-1.988	-7.488	0.911
-1.997	-7.486	0.909
-2.004	-7.490	0.904
-2.007	-7.496	0.899
-2.004	-7.504	0.894
-1.997	-7.509	0.892
-1.988	-7.511	0.894
-1.872	-7.222	-0.056
-1.872	-7.215	-0.051
-1.873	-7.205	-0.052
-1.874	-7.198	-0.058
-1.875	-7.196	-0.067
-1.875	-7.200	-0.076
-1.875	-7.208	-0.080
-1.874	-7.217	-0.080
-1.873	-7.224	-0.074
-1.872	-7.226	-0.065
-2.720	-7.284	-0.000
-2.720	-7.277	0.005
-2.721	-7.267	0.004
-2.722	-7.260	-0.002
-2.723	-7.258	-0.011
-2.724	-7.262	-0.020
-2.724	-7.269	-0.024
-2.723	-7.279	-0.024
-2.722	-7.286	-0.018
-2.721	-7.288	-0.009
-2.911	-7.295	0.031
-2.911	-7.287	0.036
-2.912	-7.278	0.036
-2.913	-7.271	0.030
-2.914	-7.269	0.021
-2.916	-7.272	0.012
-2.916	-7.280	0.007
-2.915	-7.289	0.008
-2.914	-7.296	0.014
-2.913	-7.299	0.023
-0.398	-5.171	-0.023
-0.394	-5.169	-0.016
-0.395	-5.168	-0.006
-0.401	-5.169	0.001
-0.410	-5.171	0.003
-0.418	-5.173	-0.001
-0.422	-5.176	-0.009
-0.421	-5.176	-0.018
-0.415	-5.176	-0.025
-0.406	-5.173	-0.027
-0.164	-6.014	0.080
-0.160	-6.011	0.088
-0.162	-6.009	0.097
-0.168	-6.009	0.103
-0.177	-6.011	0.105
-0.185	-6.014	0.101
-0.189	-6.017	0.093
-0.187	-6.019	0.084
-0.181	-6.019	0.078
-0.172	-6.017	0.076
0.031	-6.763	0.413
0.034	-6.759	0.421
0.032	-6.755	0.429
0.025	-6.755	0.435
0.016	-6.756	0.437
0.008	-6.760	0.433
0.005	-6.764	0.425
0.007	-6.767	0.417
0.014	-6.768	0.411
0.023	-6.767	0.409
-1.932	-7.360	-0.053
-1.932	-7.352	-0.049
-1.932	-7.343	-0.050
-1.933	-7.336	-0.056
-1.933	-7.334	-0.065
-1.933	-7.338	-0.074
-1.933	-7.346	-0.078
-1.933	-7.355	-0.077
-1.932	-7.362	-0.071
-1.932	-7.364	-0.062
-2.822	-7.392	-0.029
-2.822	-7.384	-0.024
-2.822	-7.375	-0.025
-2.823	-7.368	-0.031
-2.825	-7.366	-0.039
-2.825	-7.370	-0.048
-2.826	-7.377	-0.053
-2.825	-7.387	-0.052
-2.824	-7.394	-0.046
-2.823	-7.396	-0.037
-2.880	-7.397	-0.017
-2.879	-7.389	-0.012
-2.880	-7.380	-0.012
-2.882	-7.373	-0.017
-2.884	-7.370	-0.026
-2.885	-7.373	-0.035
-2.886	-7.381	-0.040
-2.885	-7.390	-0.040
-2.883	-7.398	-0.034
-2.881	-7.400	-0.025
-1.981	-7.482	-0.075
-1.978	-7.478	-0.068
-1.979	-7.477	-0.059
-1.982	-7.481	-0.051
-1.987	-7.488	-0.048
-1.992	-7.496	-0.051
-1.995	-7.500	-0.058
-1.995	-7.501	-0.067
-1.991	-7.497	-0.075
-1.986	-7.490	-0.078
-1.288	-7.967	-0.016
-1.286	-7.962	-0.009
-1.286	-7.961	0.000
-1.290	-7.965	0.008
-1.295	-7.972	0.011
-1.300	-7.979	0.008
-1.303	-7.984	0.001
-1.302	-7.985	-0.008
-1.298	-7.981	-0.016
-1.293	-7.974	-0.019
-1.185	-8.038	0.001
-1.183	-8.033	0.008
-1.184	-8.032	0.017
-1.188	-8.036	0.025
-1.193	-8.043	0.028
-1.198	-8.050	0.025
-1.200	-8.055	0.018
-1.199	-8.056	0.009
-1.195	-8.052	0.001
-1.190	-8.045	-0.002
-2.037	-7.641	-0.054
-2.037	-7.633	-0.049
-2.039	-7.624	-0.049
-2.041	-7.617	-0.054
-2.042	-7.614	-0.063
-2.043	-7.617	-0.071
-2.043	-7.625	-0.077
-2.042	-7.634	-0.077
-2.040	-7.641	-0.071
-2.038	-7.644	-0.063
-2.890	-7.766	0.075
-2.890	-7.758	0.080
-2.892	-7.749	0.080
-2.894	-7.742	0.075
-2.895	-7.739	0.066
-2.896	-7.742	0.057
-2.896	-7.750	0.052
-2.895	-7.759	0.052
-2.893	-7.766	0.057
-2.891	-7.769	0.066
[...]
         <CellData>
           <DataArray type="Float32" Name="combinedRootClassID" NumberOfComponents="1" format="ascii">
 -1.300e+01 -1.300e+01 -1.300e+01 -1.300e+01 -1.300e+01 -1.300e+01 -1.300e+01 -1.300e+01 -1.300e+01 -1.300e+01 -1.300e+01 -1.300e+01 -1.300e+01 -1.300e+01 -1.300e+01 -1.300e+01 -1.300e+01 -1.300e+01 -1.300e+01 -1.300e+01 -1.300e+01 -1.300e+01 -1.300e+01 -1.300e+01 -1.300e+01 -1.300e+01 -1.300e+01 -1.300e+01 -1.300e+01 -1.300e+01 -1.300e+01 -1.300e+01 -1.300e+01 -1.300e+01 -1.300e+01 -1.300e+01 -1.300e+01 -1.300e+01 -1.300e+01 -1.300e+01 -1.300e+01 -1.300e+01 -1.300e+01 -1.300e+01 -1.300e+01 -1.300e+01 -1.300e+01 -1.300e+01 -1.300e+01 -1.300e+01 -1.300e+01 -1.300e+01 -1.300e+01 -1.300e+01 -1.300e+01 -1.300e+01 -1.300e+01 -1.300e+01 -1.300e+01 -1.300e+01 -1.300e+01 -1.300e+01 -1.300e+01 -1.300e+01 -1.300e+01 -1.300e+01 -1.300e+01 -1.300e+01 -1.300e+01 -1.300e+01 -1.300e+01 -1.300e+01 -1.300e+01 -1.300e+01 -1.300e+01 -1.300e+01 -1.300e+01 -1.300e+01 -1.300e+01 -1.300e+01 -1.300e+01 -1.300e+01 -1.300e+01 -1.300e+01 -1.300e+01 -1.300e+01 -1.300e+01 -5.000e+00 -5.000e+00 -5.000e+00 -5.000e+00 -5.000e+00 -5.000e+00 -5.000e+00 -5.000e+00 -5.000e+00 -5.000e+00 -5.000e+00 -5.000e+00 -5.000e+00 -5.000e+00 -5.000e+00 -5.000e+00 -5.000e+00 -5.000e+00 -5.000e+00 -5.000e+00 -5.000e+00 -5.000e+00 -5.000e+00 -1.300e+01 -1.300e+01 -1.300e+01 -1.300e+01 -1.300e+01 -1.300e+01 -1.300e+01 -1.300e+01 -1.300e+01 -1.300e+01 -1.300e+01 -1.300e+01 -1.300e+01 -1.300e+01 -1.300e+01 -1.300e+01 -1.300e+01 -1.300e+01 -1.300e+01 -1.300e+01 -1.300e+01 -1.300e+01 -1.300e+01 -1.300e+01 -1.300e+01 -1.300e+01 -1.300e+01 -1.300e+01 -1.300e+01 -1.300e+01 -1.300e+01 -1.300e+01 -1.300e+01 -1.300e+01 -1.300e+01 -1.300e+01 -1.300e+01 -1.300e+01 -1.300e+01 -1.300e+01 -1.300e+01 -1.300e+01 -1.300e+01 -1.300e+01 -1.300e+01 -1.300e+01 -1.300e+01 -1.300e+01 -1.300e+01 -1.300e+01 -1.300e+01 -1.300e+01 -1.300e+01 -1.300e+01 -1.300e+01 -1.300e+01 -1.300e+01 -1.300e+01 -1.300e+01 -1.300e+01 -1.300e+01 -1.300e+01 -1.300e+01 -1.300e+01 -1.300e+01 -1.300e+01 -1.300e+01 -1.300e+01 -1.300e+01 -1.300e+01 -1.300e+01 -1.300e+01 -1.300e+01 -1.300e+01 -1.300e+01 -1.300e+01 -1.300e+01 -1.300e+01 -1.300e+01 -1.300e+01 -1.300e+01 -1.300e+01 -1.300e+01 -1.300e+01 -1.300e+01 -5.000e+00 -5.000e+00 -5.000e+00 -5.000e+00 -5.000e+00 -5.000e+00 -5.000e+00 -5.000e+00 -5.000e+00 -5.000e+00 -5.000e+00 -5.000e+00 -5.000e+00 -5.000e+00 -5.000e+00 -5.000e+00 -5.000e+00 -5.000e+00 -5.000e+00 -5.000e+00 -5.000e+00 -5.000e+00 -5.000e+00 -1.300e+01 -1.300e+01 -1.300e+01 -1.300e+01 -1.300e+01 -1.300e+01 -1.300e+01 -1.300e+01 -1.300e+01 -1.300e+01 -1.300e+01 -1.300e+01 -1.300e+01 -1.300e+01 -1.300e+01 -1.300e+01 -1.300e+01 -1.300e+01 -1.300e+01 -1.300e+01 -1.300e+01 -1.300e+01 -1.300e+01 -1.300e+01 -1.300e+01 -1.300e+01 -1.300e+01 -1.300e+01 -1.300e+01 -1.300e+01 -1.300e+01 -1.300e+01 -1.300e+01 -1.300e+01 -1.300e+01 -1.300e+01 -1.300e+01 -1.300e+01 -1.300e+01 -1.300e+01 -1.300e+01 -1.300e+01 -1.300e+01 -1.300e+01 -1.300e+01 -1.300e+01 -1.300e+01 -1.300e+01 -1.300e+01 -1.300e+01 -1.300e+01 -1.300e+01 -1.300e+01 -1.300e+01 -1.300e+01 -1.300e+01 -1.300e+01 -1.300e+01 -1.300e+01 -1.300e+01 -1.300e+01 -1.300e+01 -1.300e+01 -1.300e+01 -1.300e+01 -1.300e+01 -1.300e+01 -1.300e+01 -1.300e+01 -1.300e+01 -1.300e+01 -1.300e+01 -1.300e+01 -1.300e+01 -1.300e+01 -1.300e+01 -1.300e+01 -1.300e+01 -1.300e+01 -1.300e+01 -1.300e+01 -1.300e+01 -1.300e+01 -1.300e+01 -1.300e+01 -1.300e+01 -1.300e+01 -1.300e+01 -5.000e+00 -5.000e+00 -5.000e+00 -5.000e+00 -5.000e+00 -5.000e+00 -5.000e+00 -5.000e+00 -5.000e+00 -5.000e+00 -5.000e+00 -5.000e+00 -5.000e+00 -5.000e+00 -5.000e+00 -5.000e+00 -5.000e+00 -5.000e+00 -5.000e+00 -5.000e+00 -5.000e+00 -5.000e+00 -5.000e+00 -1.300e+01 -1.300e+01 -1.300e+01 -1.300e+01 -1.300e+01 -1.300e+01 -1.300e+01 -1.300e+01 -1.300e+01 -1.300e+01 -1.300e+01 -1.300e+01 -1.300e+01 -1.300e+01 -1.300e+01 -1.300e+01 -1.300e+01 -1.300e+01 -1.300e+01 -1.300e+01 -1.300e+01 -1.300e+01 -1.300e+01 -1.300e+01 -1.300e+01 -1.300e+01 -1.300e+01 -1.300e+01 -1.300e+01 -1.300e+01 -1.300e+01 -1.300e+01 -1.300e+01 -1.300e+01 -1.300e+01 -1.300e+01 -1.300e+01 -1.300e+01 -1.300e+01 -1.300e+01 -1.300e+01 -1.300e+01 -1.300e+01 -1.300e+01 -1.300e+01 -1.300e+01 -1.300e+01 -1.300e+01 -1.300e+01 -1.300e+01 -1.300e+01 -1.300e+01 -1.300e+01 -1.300e+01 -1.300e+01 -1.300e+01 -1.300e+01 -1.300e+01 -1.300e+01 -1.300e+01 -1.300e+01 -1.300e+01 -1.300e+01 -1.300e+01 -1.300e+01 -1.300e+01 -1.300e+01 -1.300e+01 -1.300e+01 -1.300e+01 -1.300e+01 -1.300e+01 -1.300e+01 -1.300e+01 -1.300e+01 -1.300e+01 -1.300e+01 -1.300e+01 -1.300e+01 -1.300e+01 -1.300e+01 -1.300e+01 -1.300e+01 -5.000e+00 -5.000e+00 -5.000e+00 -5.000e+00 -5.000e+00 -5.000e+00 -5.000e+00 -5.000e+00 -5.000e+00 -5.000e+00 -5.000e+00 -5.000e+00 -5.000e+00 -5.000e+00 -5.000e+00 -5.000e+00 -5.000e+00 -5.000e+00 -5.000e+00 -5.000e+00 -5.000e+00 -5.000e+00 -5.000e+00 -1.100e+01 -1.100e+01 -1.100e+01 -1.100e+01 -1.100e+01 -1.100e+01 -1.100e+01 -1.100e+01 -1.100e+01 -1.100e+01 -1.100e+01 -1.100e+01 -1.100e+01 -1.100e+01 -1.100e+01 -1.100e+01 -1.100e+01 -1.100e+01 -1.100e+01 -1.100e+01 -1.100e+01 -1.100e+01 -1.100e+01 -1.100e+01 -1.100e+01 -1.100e+01 -1.100e+01 -1.100e+01 -1.100e+01 -1.100e+01 -1.100e+01 -1.100e+01 -1.100e+01 -1.100e+01 -1.100e+01 -1.100e+01 -1.100e+01 -1.100e+01 -1.100e+01 -1.100e+01 -1.100e+01 -1.100e+01 -1.100e+01 -1.100e+01 -1.100e+01 -1.100e+01 -1.100e+01 -1.100e+01 -2.000e+00 -2.000e+00 -2.000e+00 -2.000e+00 -2.000e+00 -2.000e+00 -2.000e+00 -2.000e+00 -2.000e+00 -2.000e+00 -1.500e+01 -7.000e+00 -7.000e+00 -7.000e+00 -7.000e+00 -7.000e+00 -7.000e+00 -1.500e+01 -7.000e+00 -7.000e+00 -7.000e+00 -7.000e+00 -7.000e+00 -7.000e+00 -7.000e+00 -7.000e+00 -7.000e+00 -7.000e+00 -7.000e+00 -7.000e+00 -7.000e+00 -7.000e+00 -7.000e+00 -7.000e+00 -7.000e+00 -7.000e+00 -7.000e+00 -7.000e+00 -7.000e+00 -7.000e+00 -7.000e+00 -7.000e+00 -7.000e+00 -7.000e+00 -7.000e+00 -7.000e+00 -7.000e+00 -7.000e+00 -7.000e+00 -7.000e+00 -7.000e+00 -7.000e+00 -7.000e+00 -7.000e+00 -7.000e+00 -7.000e+00 -7.000e+00 -7.000e+00 -7.000e+00 -7.000e+00 -7.000e+00 -7.000e+00 -7.000e+00 -7.000e+00 -7.000e+00 -7.000e+00 -7.000e+00 -7.000e+00 -7.000e+00 -7.000e+00 -7.000e+00 -7.000e+00 -7.000e+00 -7.000e+00 -7.000e+00 -7.000e+00 -7.000e+00 -7.000e+00 -7.000e+00 -7.000e+00 -7.000e+00 -7.000e+00 -7.000e+00 -7.000e+00 -7.000e+00 -7.000e+00 -7.000e+00 -7.000e+00 -7.000e+00 -1.500e+01 -7.000e+00 -7.000e+00 -7.000e+00 -7.000e+00 -7.000e+00 -7.000e+00 -7.000e+00 -7.000e+00 -7.000e+00 -7.000e+00 -7.000e+00 -7.000e+00 -7.000e+00 -7.000e+00 -7.000e+00 -7.000e+00 -7.000e+00 -7.000e+00 -7.000e+00 -7.000e+00 -7.000e+00 -7.000e+00 -7.000e+00 -7.000e+00 -7.000e+00 -7.000e+00 -7.000e+00 -7.000e+00 -7.000e+00 -7.000e+00 -7.000e+00 -7.000e+00 -7.000e+00 -7.000e+00 -7.000e+00 -7.000e+00 -7.000e+00 -7.000e+00 -7.000e+00 -7.000e+00 -7.000e+00 -7.000e+00 -7.000e+00 -7.000e+00 -7.000e+00 -7.000e+00 -7.000e+00 -7.000e+00 -7.000e+00 -7.000e+00 -7.000e+00 -7.000e+00 -7.000e+00 -7.000e+00 -7.000e+00 -7.000e+00 -7.000e+00 -7.000e+00 -7.000e+00 -7.000e+00 -7.000e+00 -7.000e+00 -7.000e+00 -7.000e+00 -7.000e+00 -7.000e+00 -7.000e+00 -7.000e+00 -7.000e+00 -7.000e+00 -7.000e+00 -7.000e+00 -7.000e+00 -7.000e+00 -7.000e+00 -7.000e+00 -7.000e+00 -7.000e+00 -7.000e+00 -7.000e+00 -7.000e+00 -7.000e+00 -7.000e+00 -7.000e+00 -7.000e+00 -7.000e+00 -7.000e+00 -7.000e+00 -7.000e+00 -7.000e+00 -7.000e+00 -7.000e+00 -7.000e+00 -7.000e+00 -7.000e+00 -7.000e+00 -7.000e+00 -7.000e+00 -7.000e+00 -7.000e+00 -7.000e+00 -7.000e+00 -7.000e+00 -7.000e+00 -7.000e+00 -7.000e+00 -7.000e+00 -7.000e+00 -7.000e+00 -7.000e+00 -7.000e+00 -7.000e+00 -7.000e+00 -7.000e+00 -7.000e+00 -7.000e+00 -7.000e+00 -7.000e+00 -7.000e+00 -7.000e+00 -7.000e+00 -7.000e+00 -7.000e+00 -7.000e+00 -7.000e+00 -7.000e+00 -7.000e+00 -7.000e+00 -7.000e+00 -7.000e+00 -7.000e+00 -7.000e+00 -7.000e+00 -7.000e+00 -7.000e+00 -7.000e+00 -7.000e+00 -7.000e+00 -7.000e+00 -7.000e+00 -7.000e+00 -7.000e+00 -7.000e+00 -7.000e+00 -7.000e+00 -7.000e+00 -7.000e+00 -7.000e+00 -7.000e+00 -7.000e+00 -7.000e+00 -7.000e+00 -7.000e+00 -7.000e+00 -7.000e+00 -7.000e+00 -7.000e+00 -7.000e+00 -7.000e+00 -7.000e+00 -7.000e+00 -7.000e+00 -7.000e+00 -7.000e+00 -7.000e+00 -7.000e+00 -7.000e+00 -7.000e+00 -1.500e+01 -7.000e+00 -7.000e+00 -7.000e+00 -7.000e+00 -7.000e+00 -7.000e+00 -7.000e+00 -7.000e+00 -7.000e+00 -7.000e+00 -7.000e+00 -7.000e+00 -7.000e+00 -7.000e+00 -7.000e+00 -7.000e+00 -7.000e+00 -7.000e+00 -7.000e+00 -7.000e+00 -7.000e+00 -7.000e+00 -7.000e+00 -7.000e+00 -7.000e+00 -7.000e+00 -7.000e+00 -7.000e+00 -7.000e+00 -7.000e+00 -7.000e+00 -7.000e+00 -7.000e+00 -7.000e+00 -7.000e+00 -7.000e+00 -7.000e+00 -7.000e+00 -7.000e+00 -7.000e+00 -7.000e+00 -7.000e+00 -7.000e+00 -7.000e+00 -7.000e+00 -7.000e+00 -7.000e+00 -7.000e+00 -7.000e+00 -7.000e+00 -7.000e+00 -7.000e+00 -7.000e+00 -7.000e+00 -7.000e+00 -7.000e+00 -7.000e+00 -7.000e+00 -7.000e+00 -7.000e+00 -7.000e+00 -7.000e+00 -7.000e+00 -7.000e+00 -7.000e+00 -7.000e+00 -7.000e+00 -7.000e+00 -7.000e+00 -7.000e+00 -7.000e+00 -7.000e+00 -7.000e+00 -7.000e+00 -7.000e+00 -7.000e+00 -7.000e+00 -7.000e+00 -7.000e+00 -7.000e+00 -7.000e+00 -7.000e+00 -7.000e+00 -7.000e+00 -7.000e+00 -7.000e+00 -7.000e+00 -7.000e+00 -7.000e+00 -7.000e+00 -7.000e+00 -7.000e+00 -7.000e+00 -7.000e+00 -7.000e+00 -7.000e+00 -7.000e+00 -7.000e+00 -7.000e+00 -7.000e+00 -7.000e+00 -7.000e+00 -7.000e+00 -7.000e+00 -7.000e+00 -7.000e+00 -7.000e+00 -7.000e+00 -7.000e+00 -7.000e+00 -7.000e+00 -7.000e+00 -7.000e+00 -7.000e+00 -7.000e+00 -7.000e+00 -7.000e+00 -7.000e+00 -7.000e+00 -7.000e+00 -7.000e+00 -7.000e+00 -7.000e+00 -7.000e+00 -7.000e+00 -7.000e+00 -7.000e+00 -7.000e+00 -7.000e+00 -7.000e+00 -7.000e+00 -7.000e+00 -7.000e+00 -7.000e+00 -7.000e+00 -7.000e+00 -7.000e+00 -7.000e+00 -7.000e+00 -7.000e+00 -7.000e+00 -7.000e+00 -7.000e+00 -7.000e+00 -7.000e+00 -7.000e+00 -7.000e+00 -7.000e+00 -7.000e+00 -7.000e+00 -7.000e+00 -7.000e+00 -7.000e+00 -7.000e+00 -7.000e+00 -7.000e+00 -7.000e+00 -7.000e+00 -7.000e+00 -7.000e+00 -7.000e+00 -7.000e+00 -1.700e+01 -9.000e+00 -9.000e+00 -9.000e+00 -9.000e+00 -9.000e+00 -9.000e+00 -9.000e+00 -9.000e+00 -9.000e+00 -9.000e+00 -9.000e+00 -9.000e+00 -9.000e+00 -9.000e+00 -4.000e+00 -4.000e+00 -4.000e+00 -4.000e+00 -4.000e+00 -4.000e+00 -4.000e+00 -4.000e+00 -4.000e+00 -4.000e+00 -4.000e+00 -4.000e+00 -4.000e+00 -4.000e+00 -4.000e+00 -4.000e+00 -4.000e+00 -4.000e+00 -4.000e+00 -4.000e+00 -4.000e+00 -4.000e+00 -4.000e+00 -4.000e+00 -4.000e+00 -4.000e+00 -4.000e+00 -4.000e+00 -4.000e+00 -4.000e+00 -4.000e+00 -4.000e+00 -4.000e+00
           </DataArray>
           <DataArray type="Float32" Name="nitrate/Cmin" NumberOfComponents="1" format="ascii">