<?xml version="1.0"?>
<VTKFile type="UnstructuredGrid" version="0.1" byte_order="LittleEndian">
   <UnstructuredGrid>
      <Piece NumberOfPoints="4590" NumberOfCells="323">
         <Points>
            <DataArray type="Float32" Name="Position" NumberOfComponents="3" format="ascii">
-0.155	-5.023	0.004
-0.148	-5.018	0.001
-0.139	-5.019	-0.001
-0.132	-5.025	-0.003
-0.129	-5.034	-0.002
-0.132	-5.042	-0.000
-0.140	-5.047	0.002
-0.149	-5.047	0.005
-0.156	-5.041	0.006
-0.158	-5.032	0.005
-0.206	-5.073	-0.216
-0.206	-5.065	-0.212
-0.206	-5.056	-0.213
-0.206	-5.049	-0.220
-0.206	-5.048	-0.229
-0.206	-5.052	-0.237
-0.206	-5.060	-0.242
-0.206	-5.070	-0.240
-0.206	-5.076	-0.234
-0.206	-5.078	-0.224
-0.270	-5.105	-0.001
-0.266	-5.097	0.001
-0.268	-5.088	0.003
-0.274	-5.081	0.002
-0.283	-5.079	0.000
-0.291	-5.083	-0.003
-0.295	-5.091	-0.005
-0.293	-5.100	-0.007
-0.287	-5.107	-0.006
-0.278	-5.109	-0.004
-0.312	-5.136	0.160
-0.308	-5.129	0.162
-0.310	-5.119	0.164
-0.316	-5.113	0.163
-0.325	-5.111	0.161
-0.333	-5.115	0.159
-0.337	-5.123	0.156
-0.335	-5.132	0.155
-0.329	-5.138	0.155
-0.320	-5.140	0.157
-0.399	-5.170	-0.024
-0.394	-5.169	-0.016
-0.394	-5.169	-0.007
-0.400	-5.171	0.000
-0.409	-5.173	0.003
-0.417	-5.175	-0.001
-0.422	-5.176	-0.008
-0.422	-5.175	-0.018
-0.416	-5.174	-0.025
-0.407	-5.171	-0.027
-0.354	-5.362	-0.030
-0.349	-5.361	-0.022
-0.350	-5.362	-0.013
-0.355	-5.363	-0.006
-0.364	-5.365	-0.003
-0.372	-5.367	-0.007
-0.377	-5.368	-0.015
-0.377	-5.368	-0.024
-0.371	-5.366	-0.031
-0.363	-5.364	-0.033
-0.530	-5.267	-0.015
-0.531	-5.259	-0.010
-0.532	-5.250	-0.011
-0.532	-5.243	-0.017
-0.533	-5.241	-0.026
-0.533	-5.245	-0.034
-0.532	-5.253	-0.039
-0.532	-5.262	-0.038
-0.531	-5.269	-0.032
-0.530	-5.271	-0.023
-0.652	-5.277	-0.010
-0.652	-5.269	-0.005
-0.653	-5.260	-0.006
-0.654	-5.253	-0.012
-0.655	-5.251	-0.021
-0.655	-5.255	-0.030
-0.654	-5.263	-0.034
-0.653	-5.272	-0.034
-0.652	-5.279	-0.027
-0.652	-5.281	-0.018
-0.643	-5.355	-0.035
-0.639	-5.347	-0.032
-0.640	-5.338	-0.031
-0.645	-5.331	-0.033
-0.654	-5.329	-0.035
-0.662	-5.333	-0.038
-0.667	-5.340	-0.040
-0.666	-5.350	-0.041
-0.660	-5.357	-0.040
-0.651	-5.359	-0.038
-0.680	-5.369	0.080
-0.675	-5.361	0.083
-0.676	-5.352	0.083
-0.682	-5.345	0.082
-0.691	-5.342	0.080
-0.699	-5.346	0.077
-0.703	-5.354	0.075
-0.702	-5.363	0.074
-0.696	-5.370	0.075
-0.688	-5.372	0.077
-0.776	-5.430	-0.047
-0.768	-5.426	-0.048
-0.759	-5.428	-0.049
-0.753	-5.435	-0.048
-0.752	-5.444	-0.047
-0.756	-5.452	-0.045
-0.765	-5.456	-0.043
-0.774	-5.454	-0.043
-0.780	-5.447	-0.043
-0.781	-5.438	-0.045
-0.786	-5.447	-0.140
-0.778	-5.444	-0.142
-0.769	-5.446	-0.143
-0.763	-5.452	-0.142
-0.762	-5.461	-0.140
-0.766	-5.469	-0.138
-0.775	-5.473	-0.137
-0.784	-5.471	-0.136
-0.790	-5.464	-0.137
-0.791	-5.455	-0.138
-0.874	-5.557	-0.044
-0.874	-5.548	-0.040
-0.874	-5.539	-0.042
-0.873	-5.533	-0.049
-0.872	-5.532	-0.058
-0.870	-5.537	-0.066
-0.870	-5.546	-0.070
-0.870	-5.555	-0.067
-0.871	-5.561	-0.060
-0.872	-5.561	-0.051
-0.938	-5.558	-0.054
-0.939	-5.549	-0.050
-0.939	-5.540	-0.052
-0.938	-5.534	-0.059
-0.936	-5.533	-0.068
-0.935	-5.538	-0.076
-0.934	-5.547	-0.080
-0.935	-5.556	-0.077
-0.936	-5.562	-0.070
-0.937	-5.562	-0.061
-0.963	-5.655	-0.073
-0.959	-5.651	-0.065
-0.959	-5.650	-0.056
-0.963	-5.654	-0.049
-0.970	-5.660	-0.046
-0.976	-5.667	-0.048
-0.979	-5.671	-0.056
-0.979	-5.671	-0.065
-0.975	-5.668	-0.073
-0.969	-5.662	-0.076
-0.941	-5.700	-0.047
-0.941	-5.692	-0.043
-0.941	-5.683	-0.045
-0.940	-5.677	-0.052
-0.939	-5.676	-0.061
-0.938	-5.681	-0.069
-0.937	-5.689	-0.073
-0.938	-5.698	-0.071
-0.938	-5.704	-0.064
-0.940	-5.705	-0.055
-1.058	-5.792	-0.053
-1.057	-5.784	-0.049
-1.058	-5.775	-0.049
-1.059	-5.768	-0.055
-1.061	-5.765	-0.064
-1.062	-5.769	-0.072
-1.062	-5.777	-0.077
-1.062	-5.786	-0.077
-1.060	-5.793	-0.071
-1.059	-5.795	-0.062
-1.075	-5.793	-0.051
-1.074	-5.785	-0.046
-1.075	-5.776	-0.046
-1.076	-5.769	-0.052
-1.078	-5.767	-0.061
-1.079	-5.770	-0.070
-1.079	-5.778	-0.075
-1.079	-5.787	-0.074
-1.077	-5.794	-0.068
-1.076	-5.796	-0.059
0.014	-5.018	0.013
0.007	-5.006	0.029
-0.003	-4.988	0.034
-0.012	-4.971	0.026
-0.017	-4.961	0.008
-0.015	-4.962	-0.013
-0.008	-4.974	-0.029
0.002	-4.992	-0.034
0.012	-5.009	-0.026
0.016	-5.019	-0.008
-0.668	-5.398	-0.035
-0.675	-5.392	-0.016
-0.687	-5.378	-0.006
-0.700	-5.362	-0.009
-0.709	-5.350	-0.024
-0.711	-5.346	-0.044
-0.705	-5.353	-0.063
-0.693	-5.367	-0.073
-0.679	-5.383	-0.070
-0.670	-5.395	-0.056
-1.224	-6.069	-0.050
-1.236	-6.062	-0.034
-1.252	-6.050	-0.028
-1.268	-6.039	-0.036
-1.277	-6.032	-0.054
-1.276	-6.033	-0.075
-1.265	-6.040	-0.091
-1.248	-6.052	-0.096
-1.232	-6.063	-0.088
-1.223	-6.070	-0.071
-1.570	-6.657	-0.053
-1.580	-6.652	-0.035
-1.597	-6.642	-0.027
-1.615	-6.633	-0.032
-1.627	-6.627	-0.048
-1.629	-6.626	-0.069
-1.619	-6.631	-0.087
-1.602	-6.640	-0.095
-1.584	-6.649	-0.090
-1.572	-6.656	-0.074
-1.909	-7.381	-0.059
-1.918	-7.377	-0.040
-1.935	-7.370	-0.030
-1.954	-7.363	-0.033
-1.968	-7.357	-0.047
-1.972	-7.355	-0.068
-1.964	-7.359	-0.087
-1.947	-7.366	-0.097
-1.927	-7.374	-0.094
-1.913	-7.379	-0.080
-2.105	-7.946	-0.060
-2.112	-7.943	-0.040
-2.129	-7.938	-0.029
-2.149	-7.931	-0.030
-2.164	-7.926	-0.044
-2.169	-7.925	-0.064
-2.162	-7.927	-0.084
-2.145	-7.933	-0.095
-2.125	-7.939	-0.094
-2.110	-7.944	-0.080
-2.294	-8.569	-0.050
-2.300	-8.567	-0.030
-2.317	-8.562	-0.019
-2.337	-8.556	-0.019
-2.353	-8.552	-0.032
-2.359	-8.550	-0.052
-2.352	-8.552	-0.072
-2.336	-8.557	-0.084
-2.316	-8.563	-0.083
-2.300	-8.567	-0.070
-2.471	-9.249	-0.057
-2.477	-9.248	-0.037
-2.493	-9.244	-0.024
-2.513	-9.239	-0.024
-2.530	-9.235	-0.036
-2.537	-9.233	-0.056
-2.531	-9.235	-0.076
-2.514	-9.238	-0.089
-2.494	-9.243	-0.089
-2.477	-9.248	-0.077
-2.634	-9.987	-0.066
-2.640	-9.986	-0.046
-2.656	-9.983	-0.033
-2.677	-9.978	-0.032
-2.694	-9.974	-0.044
-2.701	-9.973	-0.064
-2.695	-9.974	-0.084
-2.679	-9.977	-0.097
-2.658	-9.981	-0.098
-2.641	-9.985	-0.086
-2.801	-10.765	-0.082
-2.807	-10.764	-0.062
-2.823	-10.761	-0.049
-2.843	-10.757	-0.048
-2.861	-10.753	-0.059
-2.868	-10.751	-0.079
-2.862	-10.751	-0.099
-2.846	-10.754	-0.112
-2.826	-10.759	-0.113
-2.808	-10.762	-0.102
-2.959	-11.548	-0.116
-2.964	-11.548	-0.095
-2.980	-11.545	-0.082
-3.000	-11.541	-0.080
-3.018	-11.537	-0.091
-3.025	-11.535	-0.111
-3.020	-11.535	-0.131
-3.004	-11.537	-0.145
-2.984	-11.541	-0.146
-2.966	-11.545	-0.135
-3.107	-12.331	-0.168
-3.112	-12.332	-0.147
-3.128	-12.330	-0.134
-3.148	-12.326	-0.132
-3.166	-12.322	-0.143
-3.174	-12.320	-0.162
-3.169	-12.319	-0.182
-3.153	-12.322	-0.196
-3.132	-12.325	-0.198
-3.115	-12.329	-0.187
-3.241	-13.118	-0.205
-3.246	-13.118	-0.185
-3.262	-13.116	-0.171
-3.283	-13.112	-0.169
-3.300	-13.110	-0.180
-3.308	-13.108	-0.200
-3.303	-13.108	-0.220
-3.287	-13.111	-0.234
-3.267	-13.114	-0.235
-3.249	-13.117	-0.225
-3.327	-13.486	-0.222
-3.327	-13.476	-0.203
-3.327	-13.479	-0.183
-3.327	-13.494	-0.168
-3.327	-13.515	-0.164
-3.327	-13.534	-0.174
-3.327	-13.543	-0.193
-3.327	-13.540	-0.213
-3.327	-13.525	-0.228
-3.327	-13.504	-0.232
-0.009	-5.025	0.157
-0.009	-5.018	0.162
-0.009	-5.008	0.161
-0.011	-5.001	0.155
-0.012	-4.999	0.146
-0.013	-5.003	0.138
-0.013	-5.011	0.133
-0.013	-5.020	0.134
-0.012	-5.027	0.140
-0.010	-5.029	0.149
-0.187	-5.031	0.173
-0.182	-5.023	0.173
-0.184	-5.013	0.173
-0.190	-5.007	0.173
-0.199	-5.005	0.173
-0.208	-5.010	0.173
-0.212	-5.018	0.173
-0.211	-5.027	0.173
-0.204	-5.034	0.173
-0.195	-5.035	0.173
-0.020	-5.045	0.279
-0.022	-5.039	0.286
-0.024	-5.038	0.295
-0.027	-5.043	0.303
-0.029	-5.052	0.306
-0.029	-5.061	0.304
-0.028	-5.067	0.297
-0.026	-5.068	0.288
-0.023	-5.063	0.281
-0.021	-5.054	0.277
0.134	-5.064	0.326
0.133	-5.058	0.333
0.130	-5.057	0.342
0.128	-5.061	0.350
0.126	-5.070	0.353
0.125	-5.079	0.351
0.127	-5.085	0.344
0.129	-5.086	0.335
0.132	-5.081	0.327
0.134	-5.073	0.324
-0.042	-5.115	0.442
-0.043	-5.107	0.446
-0.044	-5.097	0.445
-0.044	-5.091	0.439
-0.044	-5.089	0.430
-0.044	-5.093	0.421
-0.043	-5.101	0.417
-0.042	-5.110	0.418
-0.041	-5.117	0.424
-0.042	-5.119	0.433
-0.177	-5.118	0.417
-0.173	-5.118	0.425
-0.174	-5.118	0.434
-0.181	-5.118	0.441
-0.190	-5.118	0.442
-0.198	-5.118	0.438
-0.202	-5.118	0.430
-0.201	-5.118	0.420
-0.194	-5.118	0.414
-0.185	-5.118	0.412
-0.059	-5.182	0.574
-0.059	-5.174	0.579
-0.060	-5.165	0.578
-0.061	-5.158	0.572
-0.061	-5.156	0.563
-0.062	-5.159	0.555
-0.061	-5.167	0.550
-0.060	-5.176	0.551
-0.059	-5.183	0.557
-0.059	-5.185	0.566
-0.203	-5.182	0.582
-0.195	-5.182	0.586
-0.186	-5.182	0.584
-0.179	-5.182	0.578
-0.178	-5.182	0.569
-0.182	-5.182	0.560
-0.190	-5.182	0.556
-0.199	-5.182	0.558
-0.206	-5.182	0.564
-0.207	-5.182	0.573
-0.064	-5.244	0.681
-0.059	-5.245	0.688
-0.059	-5.247	0.698
-0.065	-5.249	0.705
-0.073	-5.250	0.708
-0.082	-5.250	0.705
-0.088	-5.248	0.697
-0.088	-5.246	0.688
-0.082	-5.244	0.681
-0.073	-5.244	0.678
-0.061	-5.345	0.659
-0.056	-5.347	0.666
-0.056	-5.349	0.675
-0.061	-5.351	0.682
-0.070	-5.352	0.685
-0.079	-5.351	0.682
-0.084	-5.350	0.675
-0.084	-5.348	0.666
-0.079	-5.346	0.658
-0.070	-5.345	0.656
-0.079	-5.341	0.818
-0.074	-5.333	0.819
-0.075	-5.324	0.819
-0.082	-5.317	0.818
-0.091	-5.315	0.817
-0.099	-5.319	0.816
-0.104	-5.327	0.815
-0.103	-5.336	0.815
-0.096	-5.343	0.815
-0.087	-5.345	0.817
-0.092	-5.343	0.907
-0.087	-5.335	0.908
-0.088	-5.326	0.908
-0.094	-5.319	0.908
-0.103	-5.317	0.906
-0.112	-5.321	0.905
-0.116	-5.329	0.904
-0.115	-5.339	0.904
-0.109	-5.345	0.905
-0.100	-5.347	0.906
-0.105	-5.430	0.946
-0.106	-5.422	0.951
-0.107	-5.413	0.951
-0.108	-5.406	0.945
-0.110	-5.403	0.936
-0.111	-5.406	0.927
-0.110	-5.414	0.922
-0.109	-5.423	0.922
-0.107	-5.431	0.928
-0.106	-5.433	0.937
-0.177	-5.439	0.955
-0.178	-5.431	0.960
-0.179	-5.422	0.960
-0.181	-5.415	0.954
-0.182	-5.412	0.945
-0.183	-5.416	0.936
-0.182	-5.423	0.931
-0.181	-5.432	0.931
-0.180	-5.440	0.937
-0.178	-5.442	0.946
-0.128	-5.522	1.062
-0.130	-5.514	1.067
-0.132	-5.505	1.066
-0.133	-5.498	1.060
-0.132	-5.496	1.051
-0.131	-5.499	1.043
-0.129	-5.507	1.038
-0.127	-5.516	1.039
-0.126	-5.523	1.045
[...]
         <CellData>
           <DataArray type="Float32" Name="combinedRootClassID" NumberOfComponents="1" format="ascii">
 -1.300e+01 -1.300e+01 -1.300e+01 -1.300e+01 -1.300e+01 -1.300e+01 -1.300e+01 -1.300e+01 -1.300e+01 -5.000e+00 -5.000e+00 -5.000e+00 -5.000e+00 -5.000e+00 -5.000e+00 -5.000e+00 -5.000e+00 -5.000e+00 -5.000e+00 -5.000e+00 -5.000e+00 -5.000e+00 -1.300e+01 -1.300e+01 -1.300e+01 -1.300e+01 -1.300e+01 -1.300e+01 -1.300e+01 -1.300e+01 -1.300e+01 -5.000e+00 -5.000e+00 -5.000e+00 -5.000e+00 -5.000e+00 -5.000e+00 -5.000e+00 -5.000e+00 -5.000e+00 -5.000e+00 -5.000e+00 -5.000e+00 -5.000e+00 -1.300e+01 -1.300e+01 -1.300e+01 -1.300e+01 -1.300e+01 -1.300e+01 -1.300e+01 -1.300e+01 -1.300e+01 -5.000e+00 -5.000e+00 -5.000e+00 -5.000e+00 -5.000e+00 -5.000e+00 -5.000e+00 -5.000e+00 -5.000e+00 -5.000e+00 -5.000e+00 -5.000e+00 -5.000e+00 -1.300e+01 -1.300e+01 -1.300e+01 -1.300e+01 -1.300e+01 -1.300e+01 -1.300e+01 -1.300e+01 -1.300e+01 -5.000e+00 -5.000e+00 -5.000e+00 -5.000e+00 -5.000e+00 -5.000e+00 -5.000e+00 -5.000e+00 -5.000e+00 -5.000e+00 -5.000e+00 -5.000e+00 -5.000e+00 -1.100e+01 -1.100e+01 -1.100e+01 -1.100e+01 -1.100e+01 -1.100e+01 -1.100e+01 -1.100e+01 -1.100e+01 -1.100e+01 -1.100e+01 -1.100e+01 -2.000e+00 -2.000e+00 -2.000e+00 -2.000e+00 -2.000e+00 -2.000e+00 -2.000e+00 -2.000e+00 -2.000e+00 -2.000e+00 -7.000e+00 -7.000e+00 -7.000e+00 -7.000e+00 -7.000e+00 -7.000e+00 -7.000e+00 -7.000e+00 -7.000e+00 -7.000e+00 -7.000e+00 -7.000e+00 -7.000e+00 -7.000e+00 -7.000e+00 -7.000e+00 -7.000e+00 -7.000e+00 -7.000e+00 -7.000e+00 -7.000e+00 -7.000e+00 -7.000e+00 -7.000e+00 -7.000e+00 -7.000e+00 -7.000e+00 -7.000e+00 -7.000e+00 -7.000e+00 -7.000e+00 -7.000e+00 -7.000e+00 -7.000e+00 -7.000e+00 -7.000e+00 -7.000e+00 -7.000e+00 -7.000e+00 -7.000e+00 -7.000e+00 -7.000e+00 -7.000e+00 -7.000e+00 -7.000e+00 -7.000e+00 -7.000e+00 -7.000e+00 -7.000e+00 -7.000e+00 -7.000e+00 -7.000e+00 -7.000e+00 -7.000e+00 -7.000e+00 -7.000e+00 -7.000e+00 -7.000e+00 -7.000e+00 -7.000e+00 -7.000e+00 -7.000e+00 -7.000e+00 -7.000e+00 -7.000e+00 -7.000e+00 -7.000e+00 -7.000e+00 -7.000e+00 -7.000e+00 -7.000e+00 -7.000e+00 -7.000e+00 -7.000e+00 -7.000e+00 -7.000e+00 -7.000e+00 -7.000e+00 -7.000e+00 -7.000e+00 -7.000e+00 -7.000e+00 -7.000e+00 -7.000e+00 -7.000e+00 -7.000e+00 -7.000e+00 -7.000e+00 -7.000e+00 -7.000e+00 -7.000e+00 -7.000e+00 -7.000e+00 -7.000e+00 -7.000e+00 -7.000e+00 -7.000e+00 -7.000e+00 -7.000e+00 -7.000e+00 -7.000e+00 -7.000e+00 -7.000e+00 -7.000e+00 -7.000e+00 -7.000e+00 -7.000e+00 -7.000e+00 -7.000e+00 -7.000e+00 -7.000e+00 -7.000e+00 -7.000e+00 -7.000e+00 -7.000e+00 -7.000e+00 -7.000e+00 -7.000e+00 -7.000e+00 -7.000e+00 -7.000e+00 -7.000e+00 -7.000e+00 -7.000e+00 -7.000e+00 -7.000e+00 -7.000e+00 -7.000e+00 -7.000e+00 -7.000e+00 -7.000e+00 -7.000e+00 -7.000e+00 -7.000e+00 -7.000e+00 -7.000e+00 -7.000e+00 -7.000e+00 -7.000e+00 -7.000e+00 -7.000e+00 -7.000e+00 -7.000e+00 -7.000e+00 -7.000e+00 -7.000e+00 -7.000e+00 -7.000e+00 -7.000e+00 -7.000e+00 -7.000e+00 -7.000e+00 -7.000e+00 -7.000e+00 -7.000e+00 -7.000e+00 -7.000e+00 -7.000e+00 -7.000e+00 -7.000e+00 -7.000e+00 -7.000e+00 -7.000e+00 -7.000e+00 -7.000e+00 -7.000e+00 -7.000e+00 -7.000e+00 -7.000e+00 -7.000e+00 -7.000e+00 -7.000e+00 -7.000e+00 -7.000e+00 -7.000e+00 -7.000e+00 -7.000e+00 -7.000e+00 -7.000e+00 -7.000e+00 -7.000e+00 -7.000e+00 -9.000e+00 -9.000e+00 -9.000e+00 -9.000e+00 -4.000e+00 -4.000e+00 -4.000e+00 -4.000e+00 -4.000e+00 -4.000e+00 -4.000e+00 -4.000e+00 -4.000e+00 -4.000e+00 -4.000e+00 -4.000e+00 -4.000e+00 -4.000e+00 -4.000e+00 -4.000e+00 -4.000e+00 -4.000e+00 -4.000e+00 -4.000e+00 -4.000e+00 -4.000e+00 -4.000e+00 -4.000e+00 -4.000e+00 -4.000e+00 -4.000e+00
           </DataArray>
           <DataArray type="Float32" Name="nitrate/Cmin" NumberOfComponents="1" format="ascii">
 1.000e-03 1.000e-03 1.000e-03 1.000e-03 1.000e-03 1.000e-03 1.000e-03 1.000e-03 1.000e-03 1.000e-03 1.000e-03 1.000e-03 1.000e-03 1.000e-03 1.000e-03 1.000e-03 1.000e-03 1.000e-03 1.000e-03 1.000e-03 1.000e-03 1.000e-03 1.000e-03 1.000e-03 1.000e-03 1.000e-03 1.000e-03 1.000e-03 1.000e-03 1.000e-03 1.000e-03 1.000e-03 1.000e-03 1.000e-03 1.000e-03 1.000e-03 1.000e-03 1.000e-03 1.000e-03 1.000e-03 1.000e-03 1.000e-03 1.000e-03 1.000e-03 1.000e-03 1.000e-03 1.000e-03 1.000e-03 1.000e-03 1.000e-03 1.000e-03 1.000e-03 1.000e-03 1.000e-03 1.000e-03 1.000e-03 1.000e-03 1.000e-03 1.000e-03 1.000e-03 1.000e-03 1.000e-03 1.000e-03 1.000e-03 1.000e-03 1.000e-03 1.000e-03 1.000e-03 1.000e-03 1.000e-03 1.000e-03 1.000e-03 1.000e-03 1.000e-03 1.000e-03 1.000e-03 1.000e-03 1.000e-03 1.000e-03 1.000e-03 1.000e-03 1.000e-03 1.000e-03 1.000e-03 1.000e-03 1.000e-03 1.000e-03 1.000e-03 1.000e-03 1.000e-03 1.000e-03 1.000e-03 1.000e-03 1.000e-03 1.000e-03 1.000e-03 1.000e-03 1.000e-03 1.000e-03 1.000e-03 1.000e-03 1.000e-03 1.000e-03 1.000e-03 1.000e-03 1.000e-03 1.000e-03 1.000e-03 1.000e-03 1.000e-03 1.000e-03 1.000e-03 1.000e-03 1.000e-03 1.000e-03 1.000e-03 1.000e-03 1.000e-03 1.000e-03 1.000e-03 1.000e-03 1.000e-03 1.000e-03 1.000e-03 1.000e-03 1.000e-03 1.000e-03 1.000e-03 1.000e-03 1.000e-03 1.000e-03 1.000e-03 1.000e-03 1.000e-03 1.000e-03 1.000e-03 1.000e-03 1.000e-03 1.000e-03 1.000e-03 1.000e-03 1.000e-03 1.000e-03 1.000e-03 1.000e-03 1.000e-03 1.000e-03 1.000e-03 1.000e-03 1.000e-03 1.000e-03 1.000e-03 1.000e-03 1.000e-03 1.000e-03 1.000e-03 1.000e-03 1.000e-03 1.000e-03 1.000e-03 1.000e-03 1.000e-03 1.000e-03 1.000e-03 1.000e-03 1.000e-03 1.000e-03 1.000e-03 1.000e-03 1.000e-03 1.000e-03 1.000e-03 1.000e-03 1.000e-03 1.000e-03 1.000e-03 1.000e-03 1.000e-03 1.000e-03 1.000e-03 1.000e-03 1.000e-03 1.000e-03 1.000e-03 1.000e-03 1.000e-03 1.000e-03 1.000e-03 1.000e-03 1.000e-03 1.000e-03 1.000e-03 1.000e-03 1.000e-03 1.000e-03 1.000e-03 1.000e-03 1.000e-03 1.000e-03 1.000e-03 1.000e-03 1.000e-03 1.000e-03 1.000e-03 1.000e-03 1.000e-03 1.000e-03 1.000e-03 1.000e-03 1.000e-03 1.000e-03 1.000e-03 1.000e-03 1.000e-03 1.000e-03 1.000e-03 1.000e-03 1.000e-03 1.000e-03 1.000e-03 1.000e-03 1.000e-03 1.000e-03 1.000e-03 1.000e-03 1.000e-03 1.000e-03 1.000e-03 1.000e-03 1.000e-03 1.000e-03 1.000e-03 1.000e-03 1.000e-03 1.000e-03 1.000e-03 1.000e-03 1.000e-03 1.000e-03 1.000e-03 1.000e-03 1.000e-03 1.000e-03 1.000e-03 1.000e-03 1.000e-03 1.000e-03 1.000e-03 1.000e-03 1.000e-03 1.000e-03 1.000e-03 1.000e-03 1.000e-03 1.000e-03 1.000e-03 1.000e-03 1.000e-03 1.000e-03 1.000e-03 1.000e-03 1.000e-03 1.000e-03 1.000e-03 1.000e-03 1.000e-03 1.000e-03 1.000e-03 1.000e-03 1.000e-03 1.000e-03 1.000e-03 1.000e-03 1.000e-03 1.000e-03 1.000e-03 1.000e-03 1.000e-03 1.000e-03 1.000e-03 1.000e-03 1.000e-03 1.000e-03 1.000e-03 1.000e-03 1.000e-03 1.000e-03 1.000e-03 1.000e-03 1.000e-03 1.000e-03 1.000e-03 1.000e-03 1.000e-03 1.000e-03 1.000e-03 1.000e-03 1.000e-03 1.000e-03 1.000e-03 1.000e-03 1.000e-03 1.000e-03 1.000e-03 1.000e-03 1.000e-03 1.000e-03 1.000e-03 1.000e-03 1.000e-03 1.000e-03 1.000e-03 1.000e-03 1.000e-03 1.000e-03 1.000e-03 1.000e-03 1.000e-03 1.000e-03 1.000e-03 1.000e-03 1.000e-03 1.000e-03
           </DataArray>
           <DataArray type="Float32" Name="nitrate/Imax" NumberOfComponents="1" format="ascii">
 1.900e+00 1.900e+00 1.900e+00 1.900e+00 1.900e+00 1.900e+00 1.900e+00 1.900e+00 1.900e+00 1.900e+00 1.900e+00 1.900e+00 1.900e+00 1.900e+00 1.900e+00 1.900e+00 1.900e+00 1.900e+00 1.900e+00 1.900e+00 1.900e+00 1.900e+00 1.900e+00 1.900e+00 1.900e+00 1.900e+00 1.900e+00 1.900e+00 1.900e+00 1.900e+00 1.900e+00 1.900e+00 1.900e+00 1.900e+00 1.900e+00 1.900e+00 1.900e+00 1.900e+00 1.900e+00 1.900e+00 1.900e+00 1.900e+00 1.900e+00 1.900e+00 1.900e+00 1.900e+00 1.900e+00 1.900e+00 1.900e+00 1.900e+00 1.900e+00 1.900e+00 1.900e+00 1.900e+00 1.900e+00 1.900e+00 1.900e+00 1.900e+00 1.900e+00 1.900e+00 1.900e+00 1.900e+00 1.900e+00 1.900e+00 1.900e+00 1.900e+00 1.900e+00 1.900e+00 1.900e+00 1.900e+00 1.900e+00 1.900e+00 1.900e+00 1.900e+00 1.900e+00 1.900e+00 1.900e+00 1.900e+00 1.900e+00 1.900e+00 1.900e+00 1.900e+00 1.900e+00 1.900e+00 1.900e+00 1.900e+00 1.900e+00 1.900e+00 1.900e+00 1.900e+00 1.900e+00 1.900e+00 1.900e+00 1.900e+00 1.900e+00 1.900e+00 1.900e+00 1.900e+00 1.900e+00 1.900e+00 1.900e+00 1.900e+00 1.900e+00 1.900e+00 1.900e+00 1.900e+00 1.900e+00 1.900e+00 1.900e+00 1.900e+00 1.900e+00 1.900e+00 1.900e+00 1.900e+00 1.900e+00 1.900e+00 1.900e+00 1.900e+00 1.900e+00 1.900e+00 1.900e+00 1.900e+00 1.900e+00 1.900e+00 1.900e+00 1.900e+00 1.900e+00 1.900e+00 1.900e+00 1.900e+00 1.900e+00 1.900e+00 1.900e+00 1.900e+00 1.900e+00 1.900e+00 1.900e+00 1.900e+00 1.900e+00 1.900e+00 1.900e+00 1.900e+00 1.900e+00 1.900e+00 1.900e+00 1.900e+00 1.900e+00 1.900e+00 1.900e+00 1.900e+00 1.900e+00 1.900e+00 1.900e+00 1.900e+00 1.900e+00 1.900e+00 1.900e+00 1.900e+00 1.900e+00 1.900e+00 1.900e+00 1.900e+00 1.900e+00 1.900e+00 1.900e+00 1.900e+00 1.900e+00 1.900e+00 1.900e+00 1.900e+00 1.900e+00 1.900e+00 1.900e+00 1.900e+00 1.900e+00 1.900e+00 1.900e+00 1.900e+00 1.900e+00 1.900e+00 1.900e+00 1.900e+00 1.900e+00 1.900e+00 1.900e+00 1.900e+00 1.900e+00 1.900e+00 1.900e+00 1.900e+00 1.900e+00 1.900e+00 1.900e+00 1.900e+00 1.900e+00 1.900e+00 1.900e+00 1.900e+00 1.900e+00 1.900e+00 1.900e+00 1.900e+00 1.900e+00 1.900e+00 1.900e+00 1.900e+00 1.900e+00 1.900e+00 1.900e+00 1.900e+00 1.900e+00 1.900e+00 1.900e+00 1.900e+00 1.900e+00 1.900e+00 1.900e+00 1.900e+00 1.900e+00 1.900e+00 1.900e+00 1.900e+00 1.900e+00 1.900e+00 1.900e+00 1.900e+00 1.900e+00 1.900e+00 1.900e+00 1.900e+00 1.900e+00 1.900e+00 1.900e+00 1.900e+00 1.900e+00 1.900e+00 1.900e+00 1.900e+00 1.900e+00 1.900e+00 1.900e+00 1.900e+00 1.900e+00 1.900e+00 1.900e+00 1.900e+00 1.900e+00 1.900e+00 1.900e+00 1.900e+00 1.900e+00 1.900e+00 1.900e+00 1.900e+00 1.900e+00 1.900e+00 1.900e+00 1.900e+00 1.900e+00 1.900e+00 1.900e+00 1.900e+00 1.900e+00 1.900e+00 1.900e+00 1.900e+00 1.900e+00 1.900e+00 1.900e+00 1.900e+00 1.900e+00 1.900e+00 1.900e+00 1.900e+00 1.900e+00 1.900e+00 1.900e+00 1.900e+00 1.900e+00 1.900e+00 1.900e+00 1.900e+00 1.900e+00 1.900e+00 1.900e+00 1.900e+00 1.900e+00 1.900e+00 1.900e+00 1.900e+00 1.900e+00 1.900e+00 1.900e+00 1.900e+00 1.900e+00 1.900e+00 1.900e+00 1.900e+00 1.900e+00 1.900e+00 1.900e+00 1.900e+00 1.900e+00 1.900e+00 1.900e+00 1.900e+00 1.900e+00 1.900e+00 1.900e+00 1.900e+00 1.900e+00 1.900e+00 1.900e+00 1.900e+00 1.900e+00 1.900e+00 1.900e+00 1.900e+00 1.900e+00 1.900e+00 1.900e+00 1.900e+00 1.900e+00
           </DataArray>
           <DataArray type="Float32" Name="nitrate/Km" NumberOfComponents="1" format="ascii">
 1.610e-02 1.610e-02 1.610e-02 1.610e-02 1.610e-02 1.610e-02 1.610e-02 1.610e-02 1.610e-02 1.610e-02 1.610e-02 1.610e-02 1.610e-02 1.610e-02 1.610e-02 1.610e-02 1.610e-02 1.610e-02 1.610e-02 1.610e-02 1.610e-02 1.610e-02 1.610e-02 1.610e-02 1.610e-02 1.610e-02 1.610e-02 1.610e-02 1.610e-02 1.610e-02 1.610e-02 1.610e-02 1.610e-02 1.610e-02 1.610e-02 1.610e-02 1.610e-02 1.610e-02 1.610e-02 1.610e-02 1.610e-02 1.610e-02 1.610e-02 1.610e-02 1.610e-02 1.610e-02 1.610e-02 1.610e-02 1.610e-02 1.610e-02 1.610e-02 1.610e-02 1.610e-02 1.610e-02 1.610e-02 1.610e-02 1.610e-02 1.610e-02 1.610e-02 1.610e-02 1.610e-02 1.610e-02 1.610e-02 1.610e-02 1.610e-02 1.610e-02 1.610e-02 1.610e-02 1.610e-02 1.610e-02 1.610e-02 1.610e-02 1.610e-02 1.610e-02 1.610e-02 1.610e-02 1.610e-02 1.610e-02 1.610e-02 1.610e-02 1.610e-02 1.610e-02 1.610e-02 1.610e-02 1.610e-02 1.610e-02 1.610e-02 1.610e-02 1.610e-02 1.610e-02 1.610e-02 1.610e-02 1.610e-02 1.610e-02 1.610e-02 1.610e-02 1.610e-02 1.610e-02 1.610e-02 1.610e-02 1.610e-02 1.610e-02 1.610e-02 1.610e-02 1.610e-02 1.610e-02 1.610e-02 1.610e-02 1.610e-02 1.610e-02 1.610e-02 1.610e-02 1.610e-02 1.610e-02 1.610e-02 1.610e-02 1.610e-02 1.610e-02 1.610e-02 1.610e-02 1.610e-02 1.610e-02 1.610e-02 1.610e-02 1.610e-02 1.610e-02 1.610e-02 1.610e-02 1.610e-02 1.610e-02 1.610e-02 1.610e-02 1.610e-02 1.610e-02 1.610e-02 1.610e-02 1.610e-02 1.610e-02 1.610e-02 1.610e-02 1.610e-02 1.610e-02 1.610e-02 1.610e-02 1.610e-02 1.610e-02 1.610e-02 1.610e-02 1.610e-02 1.610e-02 1.610e-02 1.610e-02 1.610e-02 1.610e-02 1.610e-02 1.610e-02 1.610e-02 1.610e-02 1.610e-02 1.610e-02 1.610e-02 1.610e-02 1.610e-02 1.610e-02 1.610e-02 1.610e-02 1.610e-02 1.610e-02 1.610e-02 1.610e-02 1.610e-02 1.610e-02 1.610e-02 1.610e-02 1.610e-02 1.610e-02 1.610e-02 1.610e-02 1.610e-02 1.610e-02 1.610e-02 1.610e-02 1.610e-02 1.610e-02 1.610e-02 1.610e-02 1.610e-02 1.610e-02 1.610e-02 1.610e-02 1.610e-02 1.610e-02 1.610e-02 1.610e-02 1.610e-02 1.610e-02 1.610e-02 1.610e-02 1.610e-02 1.610e-02 1.610e-02 1.610e-02 1.610e-02 1.610e-02 1.610e-02 1.610e-02 1.610e-02 1.610e-02 1.610e-02 1.610e-02 1.610e-02 1.610e-02 1.610e-02 1.610e-02 1.610e-02 1.610e-02 1.610e-02 1.610e-02 1.610e-02 1.610e-02 1.610e-02 1.610e-02 1.610e-02 1.610e-02 1.610e-02 1.610e-02 1.610e-02 1.610e-02 1.610e-02 1.610e-02 1.610e-02 1.610e-02 1.610e-02 1.610e-02 1.610e-02 1.610e-02 1.610e-02 1.610e-02 1.610e-02 1.610e-02 1.610e-02 1.610e-02 1.610e-02 1.610e-02 1.610e-02 1.610e-02 1.610e-02 1.610e-02 1.610e-02 1.610e-02 1.610e-02 1.610e-02 1.610e-02 1.610e-02 1.610e-02 1.610e-02 1.610e-02 1.610e-02 1.610e-02 1.610e-02 1.610e-02 1.610e-02 1.610e-02 1.610e-02 1.610e-02 1.610e-02 1.610e-02 1.610e-02 1.610e-02 1.610e-02 1.610e-02 1.610e-02 1.610e-02 1.610e-02 1.610e-02 1.610e-02 1.610e-02 1.610e-02 1.610e-02 1.610e-02 1.610e-02 1.610e-02 1.610e-02 1.610e-02 1.610e-02 1.610e-02 1.610e-02 1.610e-02 1.610e-02 1.610e-02 1.610e-02 1.610e-02 1.610e-02 1.610e-02 1.610e-02 1.610e-02 1.610e-02 1.610e-02 1.610e-02 1.610e-02 1.610e-02 1.610e-02 1.610e-02 1.610e-02 1.610e-02 1.610e-02 1.610e-02 1.610e-02 1.610e-02 1.610e-02 1.610e-02 1.610e-02 1.610e-02 1.610e-02 1.610e-02 1.610e-02 1.610e-02 1.610e-02 1.610e-02 1.610e-02 1.610e-02 1.610e-02 1.610e-02
           </DataArray>
           <DataArray type="Float32" Name="nitrate/minimalNutrientConcentration" NumberOfComponents="1" format="ascii">
 6.000e+02 6.000e+02 6.000e+02 6.000e+02 6.000e+02 6.000e+02 6.000e+02 6.000e+02 6.000e+02 6.000e+02 6.000e+02 6.000e+02 6.000e+02 6.000e+02 6.000e+02 6.000e+02 6.000e+02 6.000e+02 6.000e+02 6.000e+02 6.000e+02 6.000e+02 6.000e+02 6.000e+02 6.000e+02 6.000e+02 6.000e+02 6.000e+02 6.000e+02 6.000e+02 6.000e+02 6.000e+02 6.000e+02 6.000e+02 6.000e+02 6.000e+02 6.000e+02 6.000e+02 6.000e+02 6.000e+02 6.000e+02 6.000e+02 6.000e+02 6.000e+02 6.000e+02 6.000e+02 6.000e+02 6.000e+02 6.000e+02 6.000e+02 6.000e+02 6.000e+02 6.000e+02 6.000e+02 6.000e+02 6.000e+02 6.000e+02 6.000e+02 6.000e+02 6.000e+02 6.000e+02 6.000e+02 6.000e+02 6.000e+02 6.000e+02 6.000e+02 6.000e+02 6.000e+02 6.000e+02 6.000e+02 6.000e+02 6.000e+02 6.000e+02 6.000e+02 6.000e+02 6.000e+02 6.000e+02 6.000e+02 6.000e+02 6.000e+02 6.000e+02 6.000e+02 6.000e+02 6.000e+02 6.000e+02 6.000e+02 6.000e+02 6.000e+02 6.000e+02 6.000e+02 6.000e+02 6.000e+02 6.000e+02 6.000e+02 6.000e+02 6.000e+02 6.000e+02 6.000e+02 6.000e+02 6.000e+02 6.000e+02 6.000e+02 6.000e+02 6.000e+02 6.000e+02 6.000e+02 6.000e+02 6.000e+02 6.000e+02 6.000e+02 6.000e+02 6.000e+02 6.000e+02 6.000e+02 6.000e+02 6.000e+02 6.000e+02 6.000e+02 6.000e+02 6.000e+02 6.000e+02 6.000e+02 6.000e+02 6.000e+02 6.000e+02 6.000e+02 6.000e+02 6.000e+02 6.000e+02 6.000e+02 6.000e+02 6.000e+02 6.000e+02 6.000e+02 6.000e+02 6.000e+02 6.000e+02 6.000e+02 6.000e+02 6.000e+02 6.000e+02 6.000e+02 6.000e+02 6.000e+02 6.000e+02 6.000e+02 6.000e+02 6.000e+02 6.000e+02 6.000e+02 6.000e+02 6.000e+02 6.000e+02 6.000e+02 6.000e+02 6.000e+02 6.000e+02 6.000e+02 6.000e+02 6.000e+02 6.000e+02 6.000e+02 6.000e+02 6.000e+02 6.000e+02 6.000e+02 6.000e+02 6.000e+02 6.000e+02 6.000e+02 6.000e+02 6.000e+02 6.000e+02 6.000e+02 6.000e+02 6.000e+02 6.000e+02 6.000e+02 6.000e+02 6.000e+02 6.000e+02 6.000e+02 6.000e+02 6.000e+02 6.000e+02 6.000e+02 6.000e+02 6.000e+02 6.000e+02 6.000e+02 6.000e+02 6.000e+02 6.000e+02 6.000e+02 6.000e+02 6.000e+02 6.000e+02 6.000e+02 6.000e+02 6.000e+02 6.000e+02 6.000e+02 6.000e+02 6.000e+02 6.000e+02 6.000e+02 6.000e+02 6.000e+02 6.000e+02 6.000e+02 6.000e+02 6.000e+02 6.000e+02 6.000e+02 6.000e+02 6.000e+02 6.000e+02 6.000e+02 6.000e+02 6.000e+02 6.000e+02 6.000e+02 6.000e+02 6.000e+02 6.000e+02 6.000e+02 6.000e+02 6.000e+02 6.000e+02 6.000e+02 6.000e+02 6.000e+02 6.000e+02 6.000e+02 6.000e+02 6.000e+02 6.000e+02 6.000e+02 6.000e+02 6.000e+02 6.000e+02 6.000e+02 6.000e+02 6.000e+02 6.000e+02 6.000e+02 6.000e+02 6.000e+02 6.000e+02 6.000e+02 6.000e+02 6.000e+02 6.000e+02 6.000e+02 6.000e+02 6.000e+02 6.000e+02 6.000e+02 6.000e+02 6.000e+02 6.000e+02 6.000e+02 6.000e+02 6.000e+02 6.000e+02 6.000e+02 6.000e+02 6.000e+02 6.000e+02 6.000e+02 6.000e+02 6.000e+02 6.000e+02 6.000e+02 6.000e+02 6.000e+02 6.000e+02 6.000e+02 6.000e+02 6.000e+02 6.000e+02 6.000e+02 6.000e+02 6.000e+02 6.000e+02 6.000e+02 6.000e+02 6.000e+02 6.000e+02 6.000e+02 6.000e+02 6.000e+02 6.000e+02 6.000e+02 6.000e+02 6.000e+02 6.000e+02 6.000e+02 6.000e+02 6.000e+02 6.000e+02 6.000e+02 6.000e+02 6.000e+02 6.000e+02 6.000e+02 6.000e+02 6.000e+02 6.000e+02 6.000e+02 6.000e+02 6.000e+02 6.000e+02 6.000e+02 6.000e+02 6.000e+02 6.000e+02 6.000e+02 6.000e+02 6.000e+02 6.000e+02 6.000e+02 6.000e+02
           </DataArray>
           <DataArray type="Float32" Name="nitrate/nutrientConcentrationAtTheRootSurface" NumberOfComponents="1" format="ascii">