<?xml version="1.0"?>
<VTKFile type="UnstructuredGrid" version="0.1" byte_order="LittleEndian">
   <UnstructuredGrid>
      <Piece NumberOfPoints="45180" NumberOfCells="3240">
         <Points>
            <DataArray type="Float32" Name="Position" NumberOfComponents="3" format="ascii">
-0.155	-5.023	0.003
-0.148	-5.018	0.001
-0.138	-5.019	-0.001
-0.131	-5.025	-0.002
-0.129	-5.034	-0.002
-0.132	-5.042	-0.000
-0.140	-5.047	0.002
-0.149	-5.047	0.004
-0.156	-5.041	0.005
-0.158	-5.032	0.005
-0.351	-5.101	-0.853
-0.342	-5.097	-0.855
-0.333	-5.098	-0.856
-0.327	-5.104	-0.856
-0.325	-5.113	-0.856
-0.329	-5.122	-0.855
-0.337	-5.126	-0.854
-0.346	-5.125	-0.853
-0.353	-5.119	-0.852
-0.354	-5.110	-0.852
-0.366	-5.121	-1.714
-0.358	-5.117	-1.716
-0.349	-5.118	-1.717
-0.342	-5.124	-1.718
-0.340	-5.133	-1.717
-0.344	-5.141	-1.715
-0.352	-5.146	-1.713
-0.361	-5.145	-1.712
-0.367	-5.138	-1.711
-0.369	-5.129	-1.712
-0.647	-5.282	-2.502
-0.640	-5.278	-2.507
-0.632	-5.278	-2.511
-0.625	-5.284	-2.512
-0.621	-5.293	-2.511
-0.623	-5.301	-2.507
-0.630	-5.305	-2.502
-0.638	-5.305	-2.498
-0.645	-5.299	-2.496
-0.649	-5.290	-2.498
-1.081	-5.662	-3.137
-1.075	-5.659	-3.143
-1.067	-5.662	-3.147
-1.060	-5.669	-3.147
-1.057	-5.677	-3.143
-1.060	-5.683	-3.137
-1.066	-5.685	-3.130
-1.074	-5.683	-3.126
-1.080	-5.676	-3.126
-1.083	-5.668	-3.130
-1.138	-5.731	-3.220
-1.130	-5.734	-3.224
-1.123	-5.740	-3.223
-1.120	-5.748	-3.219
-1.122	-5.753	-3.212
-1.128	-5.755	-3.205
-1.136	-5.752	-3.201
-1.143	-5.746	-3.201
-1.146	-5.738	-3.206
-1.144	-5.733	-3.213
-0.271	-5.105	0.000
-0.267	-5.098	0.004
-0.268	-5.089	0.005
-0.274	-5.082	0.004
-0.283	-5.079	0.000
-0.290	-5.082	-0.004
-0.294	-5.090	-0.008
-0.293	-5.099	-0.009
-0.287	-5.106	-0.008
-0.279	-5.109	-0.004
-0.648	-5.280	0.741
-0.645	-5.273	0.746
-0.647	-5.264	0.748
-0.652	-5.257	0.747
-0.660	-5.254	0.742
-0.666	-5.256	0.735
-0.668	-5.263	0.730
-0.667	-5.272	0.728
-0.661	-5.279	0.729
-0.654	-5.282	0.734
-1.294	-5.626	1.186
-1.292	-5.620	1.193
-1.295	-5.611	1.197
-1.301	-5.605	1.196
-1.308	-5.601	1.191
-1.313	-5.603	1.183
-1.315	-5.609	1.177
-1.312	-5.617	1.173
-1.306	-5.624	1.174
-1.299	-5.627	1.179
-1.757	-6.106	1.746
-1.755	-6.100	1.753
-1.757	-6.093	1.757
-1.764	-6.087	1.758
-1.773	-6.084	1.755
-1.779	-6.087	1.749
-1.782	-6.093	1.742
-1.779	-6.100	1.738
-1.772	-6.106	1.737
-1.764	-6.109	1.740
-1.836	-6.271	1.930
-1.834	-6.264	1.937
-1.837	-6.257	1.942
-1.844	-6.252	1.944
-1.853	-6.250	1.941
-1.860	-6.253	1.936
-1.862	-6.259	1.929
-1.859	-6.266	1.924
-1.852	-6.272	1.923
-1.843	-6.273	1.925
-1.231	-6.037	-0.053
-1.232	-6.029	-0.048
-1.233	-6.020	-0.049
-1.233	-6.013	-0.055
-1.234	-6.011	-0.064
-1.234	-6.014	-0.072
-1.233	-6.022	-0.077
-1.232	-6.032	-0.076
-1.231	-6.039	-0.070
-1.231	-6.041	-0.061
-2.088	-6.115	-0.033
-2.088	-6.107	-0.027
-2.089	-6.098	-0.028
-2.091	-6.091	-0.034
-2.092	-6.089	-0.043
-2.093	-6.092	-0.051
-2.093	-6.100	-0.056
-2.092	-6.109	-0.056
-2.091	-6.116	-0.050
-2.089	-6.119	-0.041
-2.942	-6.188	0.166
-2.941	-6.181	0.172
-2.943	-6.172	0.173
-2.946	-6.164	0.168
-2.950	-6.161	0.161
-2.952	-6.164	0.152
-2.953	-6.171	0.146
-2.951	-6.180	0.145
-2.948	-6.187	0.150
-2.945	-6.191	0.158
-3.670	-6.442	0.537
-3.669	-6.435	0.543
-3.671	-6.426	0.545
-3.676	-6.419	0.542
-3.681	-6.415	0.535
-3.684	-6.417	0.527
-3.685	-6.424	0.521
-3.683	-6.433	0.519
-3.679	-6.440	0.522
-3.674	-6.444	0.529
-3.699	-6.454	0.554
-3.698	-6.448	0.560
-3.701	-6.439	0.563
-3.705	-6.431	0.560
-3.711	-6.428	0.553
-3.715	-6.430	0.545
-3.716	-6.437	0.539
-3.713	-6.445	0.536
-3.709	-6.453	0.539
-3.703	-6.456	0.546
-3.659	-19.149	-0.265
-3.652	-19.147	-0.260
-3.646	-19.150	-0.254
-3.643	-19.157	-0.249
-3.644	-19.166	-0.247
-3.650	-19.173	-0.250
-3.657	-19.176	-0.255
-3.663	-19.173	-0.261
-3.666	-19.165	-0.266
-3.665	-19.156	-0.267
-3.125	-19.357	-0.912
-3.118	-19.355	-0.907
-3.112	-19.358	-0.900
-3.110	-19.365	-0.895
-3.112	-19.374	-0.894
-3.118	-19.381	-0.896
-3.125	-19.384	-0.901
-3.131	-19.380	-0.908
-3.133	-19.373	-0.913
-3.131	-19.364	-0.914
-2.996	-19.424	-1.054
-2.989	-19.422	-1.048
-2.983	-19.425	-1.042
-2.981	-19.432	-1.036
-2.984	-19.441	-1.034
-2.990	-19.448	-1.036
-2.997	-19.450	-1.042
-3.002	-19.447	-1.049
-3.004	-19.440	-1.054
-3.002	-19.431	-1.056
-3.651	-19.308	-0.274
-3.649	-19.302	-0.267
-3.652	-19.298	-0.259
-3.658	-19.300	-0.252
-3.664	-19.306	-0.248
-3.669	-19.314	-0.250
-3.670	-19.321	-0.256
-3.667	-19.324	-0.265
-3.662	-19.322	-0.272
-3.655	-19.316	-0.275
-3.042	-19.749	0.091
-3.041	-19.743	0.098
-3.043	-19.741	0.106
-3.048	-19.743	0.114
-3.054	-19.749	0.117
-3.059	-19.757	0.115
-3.060	-19.763	0.108
-3.058	-19.766	0.100
-3.053	-19.763	0.092
-3.047	-19.757	0.089
-2.811	-19.914	0.166
-2.809	-19.908	0.173
-2.811	-19.906	0.182
-2.815	-19.909	0.190
-2.821	-19.916	0.193
-2.826	-19.923	0.191
-2.828	-19.929	0.184
-2.826	-19.931	0.175
-2.821	-19.928	0.167
-2.816	-19.922	0.164
-3.677	-19.453	-0.262
-3.671	-19.447	-0.268
-3.663	-19.447	-0.272
-3.656	-19.452	-0.275
-3.652	-19.460	-0.274
-3.653	-19.469	-0.271
-3.658	-19.474	-0.265
-3.666	-19.475	-0.261
-3.674	-19.470	-0.258
-3.678	-19.461	-0.259
-4.073	-19.705	-0.945
-4.066	-19.701	-0.950
-4.058	-19.702	-0.954
-4.051	-19.709	-0.954
-4.048	-19.717	-0.952
-4.051	-19.725	-0.947
-4.058	-19.729	-0.942
-4.067	-19.727	-0.939
-4.073	-19.721	-0.938
-4.076	-19.712	-0.941
-4.137	-19.788	-1.127
-4.129	-19.786	-1.131
-4.120	-19.789	-1.133
-4.114	-19.796	-1.131
-4.113	-19.805	-1.128
-4.118	-19.811	-1.123
-4.126	-19.814	-1.119
-4.134	-19.811	-1.117
-4.140	-19.803	-1.119
-4.141	-19.795	-1.122
-3.661	-19.623	-0.263
-3.660	-19.616	-0.257
-3.661	-19.607	-0.256
-3.664	-19.599	-0.261
-3.669	-19.596	-0.268
-3.672	-19.599	-0.276
-3.674	-19.606	-0.282
-3.673	-19.615	-0.283
-3.669	-19.623	-0.279
-3.665	-19.626	-0.271
-4.305	-19.723	0.060
-4.296	-19.723	0.065
-4.287	-19.723	0.063
-4.281	-19.723	0.057
-4.279	-19.723	0.047
-4.283	-19.723	0.039
-4.292	-19.723	0.035
-4.301	-19.723	0.036
-4.307	-19.723	0.043
-4.309	-19.723	0.052
-3.667	-19.751	-0.283
-3.662	-19.747	-0.276
-3.660	-19.749	-0.267
-3.660	-19.756	-0.261
-3.663	-19.764	-0.258
-3.669	-19.771	-0.261
-3.674	-19.774	-0.268
-3.677	-19.772	-0.277
-3.676	-19.766	-0.284
-3.673	-19.758	-0.286
-3.001	-20.119	-0.592
-2.996	-20.116	-0.585
-2.993	-20.118	-0.576
-2.993	-20.124	-0.569
-2.997	-20.133	-0.567
-3.002	-20.140	-0.570
-3.007	-20.143	-0.577
-3.010	-20.141	-0.586
-3.009	-20.134	-0.593
-3.006	-20.126	-0.595
-3.678	-19.899	-0.278
-3.669	-19.896	-0.277
-3.660	-19.898	-0.275
-3.655	-19.906	-0.273
-3.655	-19.915	-0.272
-3.660	-19.923	-0.273
-3.669	-19.926	-0.274
-3.677	-19.923	-0.276
-3.683	-19.916	-0.277
-3.683	-19.907	-0.278
-3.529	-19.990	-1.088
-3.521	-19.987	-1.087
-3.512	-19.989	-1.085
-3.507	-19.997	-1.083
-3.506	-20.006	-1.082
-3.512	-20.014	-1.083
-3.520	-20.017	-1.084
-3.529	-20.014	-1.086
-3.535	-20.007	-1.087
-3.535	-19.998	-1.088
-3.673	-20.048	-0.288
-3.664	-20.046	-0.286
-3.656	-20.050	-0.283
-3.652	-20.057	-0.280
-3.653	-20.066	-0.278
-3.659	-20.073	-0.277
-3.668	-20.075	-0.279
-3.677	-20.072	-0.281
-3.681	-20.064	-0.285
-3.680	-20.055	-0.287
-3.512	-20.272	-0.980
-3.504	-20.272	-0.976
-3.495	-20.272	-0.977
-3.488	-20.272	-0.984
-3.487	-20.272	-0.993
-3.491	-20.272	-1.001
-3.499	-20.272	-1.006
-3.508	-20.272	-1.004
-3.515	-20.272	-0.998
-3.516	-20.272	-0.988
-3.669	-20.198	-0.296
-3.661	-20.196	-0.292
-3.654	-20.199	-0.287
-3.651	-20.207	-0.283
-3.653	-20.216	-0.281
-3.659	-20.223	-0.282
-3.667	-20.225	-0.286
-3.674	-20.221	-0.291
-3.677	-20.214	-0.296
-3.675	-20.205	-0.298
-3.261	-20.433	-1.000
-3.253	-20.431	-0.996
-3.246	-20.434	-0.991
-3.243	-20.442	-0.987
-3.244	-20.450	-0.985
-3.251	-20.457	-0.986
-3.259	-20.459	-0.990
-3.266	-20.456	-0.995
-3.269	-20.449	-0.999
-3.267	-20.440	-1.001
-3.228	-20.453	-1.058
-3.219	-20.451	-1.054
-3.213	-20.455	-1.049
-3.209	-20.462	-1.044
-3.211	-20.471	-1.042
-3.218	-20.478	-1.043
-3.226	-20.480	-1.047
-3.233	-20.477	-1.053
-3.236	-20.469	-1.057
-3.234	-20.460	-1.059
-3.654	-20.355	-0.309
-3.654	-20.348	-0.302
-3.655	-20.347	-0.293
-3.660	-20.350	-0.286
-3.664	-20.357	-0.282
-3.668	-20.366	-0.285
-3.669	-20.372	-0.291
-3.667	-20.374	-0.300
-3.663	-20.370	-0.308
-3.658	-20.363	-0.311
-2.984	-20.697	-0.095
-2.983	-20.691	-0.088
-2.985	-20.689	-0.080
-2.989	-20.693	-0.072
-2.994	-20.700	-0.069
-2.998	-20.708	-0.071
-2.999	-20.714	-0.078
-2.997	-20.716	-0.087
-2.992	-20.713	-0.094
-2.988	-20.706	-0.097
-3.665	-20.498	-0.311
-3.656	-20.496	-0.309
-3.648	-20.499	-0.306
-3.644	-20.507	-0.302
-3.645	-20.515	-0.300
-3.652	-20.522	-0.299
-3.660	-20.524	-0.301
-3.668	-20.521	-0.305
-3.672	-20.513	-0.308
-3.671	-20.504	-0.310
-3.457	-20.744	-1.001
-3.457	-20.736	-0.997
-3.457	-20.726	-0.998
-3.457	-20.720	-1.005
-3.457	-20.718	-1.014
-3.457	-20.723	-1.022
-3.457	-20.731	-1.026
-3.457	-20.740	-1.025
-3.457	-20.747	-1.018
-3.457	-20.748	-1.009
-1.315	-6.161	-0.054
-1.316	-6.153	-0.050
-1.316	-6.144	-0.051
-1.316	-6.137	-0.058
-1.316	-6.136	-0.067
-1.316	-6.140	-0.075
-1.315	-6.148	-0.080
-1.315	-6.157	-0.078
-1.315	-6.164	-0.072
-1.315	-6.165	-0.062
-2.147	-6.196	-0.079
-2.148	-6.188	-0.074
-2.149	-6.179	-0.075
-2.150	-6.172	-0.081
-2.150	-6.170	-0.090
-2.149	-6.174	-0.099
-2.148	-6.181	-0.104
-2.147	-6.191	-0.103
-2.146	-6.197	-0.096
-2.146	-6.199	-0.087
-3.008	-6.391	-0.126
-3.011	-6.384	-0.120
-3.014	-6.375	-0.121
-3.016	-6.368	-0.126
-3.015	-6.365	-0.135
-3.013	-6.368	-0.144
-3.010	-6.375	-0.149
-3.008	-6.384	-0.149
-3.006	-6.391	-0.143
-3.006	-6.394	-0.134
-3.807	-6.719	-0.298
-3.812	-6.714	-0.292
-3.817	-6.707	-0.291
-3.820	-6.699	-0.295
-3.821	-6.695	-0.303
-3.818	-6.695	-0.312
-3.813	-6.699	-0.318
-3.808	-6.707	-0.319
-3.805	-6.715	-0.315
-3.804	-6.719	-0.307
-4.265	-7.123	-0.503
-4.270	-7.122	-0.495
-4.276	-7.116	-0.491
-4.282	-7.109	-0.493
-4.284	-7.103	-0.499
-4.283	-7.100	-0.508
-4.278	-7.101	-0.516
-4.272	-7.107	-0.520
-4.266	-7.114	-0.518
-4.263	-7.120	-0.512
-3.649	-20.653	-0.325
-3.650	-20.647	-0.319
-3.652	-20.645	-0.310
-3.656	-20.649	-0.302
-3.659	-20.657	-0.299
-3.661	-20.666	-0.301
[...]
         <CellData>
           <DataArray type="Float32" Name="combinedRootClassID" NumberOfComponents="1" format="ascii">
 -1.300e+01 -1.300e+01 -1.300e+01 -1.300e+01 -1.300e+01 -1.300e+01 -1.300e+01 -1.300e+01 -1.300e+01 -1.300e+01 -1.300e+01 -1.300e+01 -1.300e+01 -1.300e+01 -1.300e+01 -1.300e+01 -1.300e+01 -1.300e+01 -1.300e+01 -1.300e+01 -1.300e+01 -1.300e+01 -1.300e+01 -1.300e+01 -1.300e+01 -1.300e+01 -1.300e+01 -1.300e+01 -1.300e+01 -1.300e+01 -1.300e+01 -1.300e+01 -1.300e+01 -1.300e+01 -1.300e+01 -1.300e+01 -1.300e+01 -1.300e+01 -1.300e+01 -1.300e+01 -1.300e+01 -1.300e+01 -1.300e+01 -1.300e+01 -1.300e+01 -1.300e+01 -1.300e+01 -1.300e+01 -1.300e+01 -1.300e+01 -1.300e+01 -1.300e+01 -1.300e+01 -1.300e+01 -1.300e+01 -1.300e+01 -1.300e+01 -1.300e+01 -1.300e+01 -1.300e+01 -1.300e+01 -1.300e+01 -1.300e+01 -1.300e+01 -1.300e+01 -1.300e+01 -1.300e+01 -1.300e+01 -1.300e+01 -1.300e+01 -1.300e+01 -1.300e+01 -1.300e+01 -1.300e+01 -1.300e+01 -1.300e+01 -1.300e+01 -1.300e+01 -1.300e+01 -1.300e+01 -1.300e+01 -1.300e+01 -1.300e+01 -1.300e+01 -1.300e+01 -1.300e+01 -1.300e+01 -1.300e+01 -1.300e+01 -1.300e+01 -1.300e+01 -1.300e+01 -1.300e+01 -1.300e+01 -1.300e+01 -1.300e+01 -1.300e+01 -1.300e+01 -1.300e+01 -1.300e+01 -1.300e+01 -1.300e+01 -1.300e+01 -1.300e+01 -1.300e+01 -1.300e+01 -1.300e+01 -1.300e+01 -1.300e+01 -1.300e+01 -1.300e+01 -1.300e+01 -1.300e+01 -1.300e+01 -1.300e+01 -1.300e+01 -1.300e+01 -1.300e+01 -1.300e+01 -1.300e+01 -1.300e+01 -1.300e+01 -1.300e+01 -1.300e+01 -1.300e+01 -1.300e+01 -1.300e+01 -1.300e+01 -1.300e+01 -1.300e+01 -1.300e+01 -1.300e+01 -1.300e+01 -1.300e+01 -1.300e+01 -1.300e+01 -1.300e+01 -1.300e+01 -1.300e+01 -1.300e+01 -1.300e+01 -1.300e+01 -1.300e+01 -1.300e+01 -1.300e+01 -1.300e+01 -1.300e+01 -1.300e+01 -1.300e+01 -1.300e+01 -1.300e+01 -1.300e+01 -1.300e+01 -1.300e+01 -1.300e+01 -1.300e+01 -1.300e+01 -1.300e+01 -1.300e+01 -1.300e+01 -1.300e+01 -1.300e+01 -1.300e+01 -1.300e+01 -1.300e+01 -1.300e+01 -1.300e+01 -1.300e+01 -1.300e+01 -1.300e+01 -1.300e+01 -1.300e+01 -1.300e+01 -1.300e+01 -1.300e+01 -1.300e+01 -1.300e+01 -1.300e+01 -1.300e+01 -1.300e+01 -1.300e+01 -1.300e+01 -1.300e+01 -1.300e+01 -1.300e+01 -1.300e+01 -1.300e+01 -1.300e+01 -1.300e+01 -1.300e+01 -1.300e+01 -1.300e+01 -1.300e+01 -1.300e+01 -1.300e+01 -1.300e+01 -1.300e+01 -1.300e+01 -1.300e+01 -1.300e+01 -1.300e+01 -1.300e+01 -1.300e+01 -1.300e+01 -1.300e+01 -1.300e+01 -1.300e+01 -1.300e+01 -1.300e+01 -1.300e+01 -1.300e+01 -1.300e+01 -1.300e+01 -1.300e+01 -1.300e+01 -1.300e+01 -1.300e+01 -1.300e+01 -1.300e+01 -1.300e+01 -1.300e+01 -1.300e+01 -1.300e+01 -1.300e+01 -1.300e+01 -1.300e+01 -1.300e+01 -1.300e+01 -1.300e+01 -1.300e+01 -1.300e+01 -1.300e+01 -1.300e+01 -1.300e+01 -1.300e+01 -1.300e+01 -1.300e+01 -1.300e+01 -1.300e+01 -1.300e+01 -1.300e+01 -1.300e+01 -1.300e+01 -1.300e+01 -1.300e+01 -1.300e+01 -1.300e+01 -1.300e+01 -1.300e+01 -1.300e+01 -1.300e+01 -1.300e+01 -1.300e+01 -1.300e+01 -1.300e+01 -1.300e+01 -1.300e+01 -1.300e+01 -1.300e+01 -1.300e+01 -1.300e+01 -1.300e+01 -1.300e+01 -1.300e+01 -1.300e+01 -1.300e+01 -1.300e+01 -1.300e+01 -1.300e+01 -1.300e+01 -1.300e+01 -1.300e+01 -1.300e+01 -1.300e+01 -1.300e+01 -1.300e+01 -1.300e+01 -1.300e+01 -1.300e+01 -1.300e+01 -1.300e+01 -1.300e+01 -1.300e+01 -1.300e+01 -1.300e+01 -1.300e+01 -1.300e+01 -1.300e+01 -1.300e+01 -1.300e+01 -1.300e+01 -1.300e+01 -1.300e+01 -1.300e+01 -1.300e+01 -1.300e+01 -1.300e+01 -1.300e+01 -1.300e+01 -1.300e+01 -1.300e+01 -1.300e+01 -1.300e+01 -1.300e+01 -1.300e+01 -1.300e+01 -1.300e+01 -1.300e+01 -1.300e+01 -1.300e+01 -1.300e+01 -1.300e+01 -1.300e+01 -1.300e+01 -1.300e+01 -1.300e+01 -1.300e+01 -1.300e+01 -1.300e+01 -1.300e+01 -1.300e+01 -1.300e+01 -1.300e+01 -1.300e+01 -1.300e+01 -1.300e+01 -1.300e+01 -1.300e+01 -1.300e+01 -1.300e+01 -1.300e+01 -1.300e+01 -1.300e+01 -1.300e+01 -1.300e+01 -1.300e+01 -1.300e+01 -1.300e+01 -1.300e+01 -5.000e+00 -5.000e+00 -5.000e+00 -5.000e+00 -5.000e+00 -5.000e+00 -5.000e+00 -5.000e+00 -5.000e+00 -5.000e+00 -5.000e+00 -5.000e+00 -5.000e+00 -5.000e+00 -5.000e+00 -5.000e+00 -5.000e+00 -5.000e+00 -5.000e+00 -5.000e+00 -5.000e+00 -5.000e+00 -5.000e+00 -5.000e+00 -5.000e+00 -5.000e+00 -5.000e+00 -5.000e+00 -5.000e+00 -5.000e+00 -5.000e+00 -5.000e+00 -5.000e+00 -5.000e+00 -5.000e+00 -5.000e+00 -5.000e+00 -5.000e+00 -1.300e+01 -1.300e+01 -1.300e+01 -1.300e+01 -1.300e+01 -1.300e+01 -1.300e+01 -1.300e+01 -1.300e+01 -1.300e+01 -1.300e+01 -1.300e+01 -1.300e+01 -1.300e+01 -1.300e+01 -1.300e+01 -1.300e+01 -1.300e+01 -1.300e+01 -1.300e+01 -1.300e+01 -1.300e+01 -1.300e+01 -1.300e+01 -1.300e+01 -1.300e+01 -1.300e+01 -1.300e+01 -1.300e+01 -1.300e+01 -1.300e+01 -1.300e+01 -1.300e+01 -1.300e+01 -1.300e+01 -1.300e+01 -1.300e+01 -1.300e+01 -1.300e+01 -1.300e+01 -1.300e+01 -1.300e+01 -1.300e+01 -1.300e+01 -1.300e+01 -1.300e+01 -1.300e+01 -1.300e+01 -1.300e+01 -1.300e+01 -1.300e+01 -1.300e+01 -1.300e+01 -1.300e+01 -1.300e+01 -1.300e+01 -1.300e+01 -1.300e+01 -1.300e+01 -1.300e+01 -1.300e+01 -1.300e+01 -1.300e+01 -1.300e+01 -1.300e+01 -1.300e+01 -1.300e+01 -1.300e+01 -1.300e+01 -1.300e+01 -1.300e+01 -1.300e+01 -1.300e+01 -1.300e+01 -1.300e+01 -1.300e+01 -1.300e+01 -1.300e+01 -1.300e+01 -1.300e+01 -1.300e+01 -1.300e+01 -1.300e+01 -1.300e+01 -1.300e+01 -1.300e+01 -1.300e+01 -1.300e+01 -1.300e+01 -1.300e+01 -1.300e+01 -1.300e+01 -1.300e+01 -1.300e+01 -1.300e+01 -1.300e+01 -1.300e+01 -1.300e+01 -1.300e+01 -1.300e+01 -1.300e+01 -1.300e+01 -1.300e+01 -1.300e+01 -1.300e+01 -1.300e+01 -1.300e+01 -1.300e+01 -1.300e+01 -1.300e+01 -1.300e+01 -1.300e+01 -1.300e+01 -1.300e+01 -1.300e+01 -1.300e+01 -1.300e+01 -1.300e+01 -1.300e+01 -1.300e+01 -1.300e+01 -1.300e+01 -1.300e+01 -1.300e+01 -1.300e+01 -1.300e+01 -1.300e+01 -1.300e+01 -1.300e+01 -1.300e+01 -1.300e+01 -1.300e+01 -1.300e+01 -1.300e+01 -1.300e+01 -1.300e+01 -1.300e+01 -1.300e+01 -1.300e+01 -1.300e+01 -1.300e+01 -1.300e+01 -1.300e+01 -1.300e+01 -1.300e+01 -1.300e+01 -1.300e+01 -1.300e+01 -1.300e+01 -1.300e+01 -1.300e+01 -1.300e+01 -1.300e+01 -1.300e+01 -1.300e+01 -1.300e+01 -1.300e+01 -1.300e+01 -1.300e+01 -1.300e+01 -1.300e+01 -1.300e+01 -1.300e+01 -1.300e+01 -1.300e+01 -1.300e+01 -1.300e+01 -1.300e+01 -1.300e+01 -1.300e+01 -1.300e+01 -1.300e+01 -1.300e+01 -1.300e+01 -1.300e+01 -1.300e+01 -1.300e+01 -1.300e+01 -1.300e+01 -1.300e+01 -1.300e+01 -1.300e+01 -1.300e+01 -1.300e+01 -1.300e+01 -1.300e+01 -1.300e+01 -1.300e+01 -1.300e+01 -1.300e+01 -1.300e+01 -1.300e+01 -1.300e+01 -1.300e+01 -1.300e+01 -1.300e+01 -1.300e+01 -1.300e+01 -1.300e+01 -1.300e+01 -1.300e+01 -1.300e+01 -1.300e+01 -1.300e+01 -1.300e+01 -1.300e+01 -1.300e+01 -1.300e+01 -1.300e+01 -1.300e+01 -1.300e+01 -1.300e+01 -1.300e+01 -1.300e+01 -1.300e+01 -1.300e+01 -1.300e+01 -1.300e+01 -1.300e+01 -1.300e+01 -1.300e+01 -1.300e+01 -1.300e+01 -1.300e+01 -1.300e+01 -1.300e+01 -1.300e+01 -1.300e+01 -1.300e+01 -1.300e+01 -1.300e+01 -1.300e+01 -1.300e+01 -1.300e+01 -1.300e+01 -1.300e+01 -1.300e+01 -1.300e+01 -1.300e+01 -1.300e+01 -1.300e+01 -1.300e+01 -1.300e+01 -1.300e+01 -1.300e+01 -1.300e+01 -1.300e+01 -1.300e+01 -1.300e+01 -1.300e+01 -1.300e+01 -1.300e+01 -1.300e+01 -1.300e+01 -1.300e+01 -1.300e+01 -1.300e+01 -1.300e+01 -1.300e+01 -1.300e+01 -1.300e+01 -1.300e+01 -1.300e+01 -1.300e+01 -1.300e+01 -1.300e+01 -1.300e+01 -1.300e+01 -1.300e+01 -1.300e+01 -1.300e+01 -1.300e+01 -1.300e+01 -1.300e+01 -1.300e+01 -1.300e+01 -1.300e+01 -1.300e+01 -1.300e+01 -1.300e+01 -1.300e+01 -1.300e+01 -1.300e+01 -1.300e+01 -1.300e+01 -1.300e+01 -1.300e+01 -1.300e+01 -1.300e+01 -1.300e+01 -1.300e+01 -1.300e+01 -1.300e+01 -1.300e+01 -1.300e+01 -1.300e+01 -1.300e+01 -1.300e+01 -1.300e+01 -1.300e+01 -1.300e+01 -1.300e+01 -1.300e+01 -1.300e+01 -1.300e+01 -1.300e+01 -1.300e+01 -1.300e+01 -1.300e+01 -1.300e+01 -1.300e+01 -1.300e+01 -1.300e+01 -1.300e+01 -1.300e+01 -1.300e+01 -1.300e+01 -1.300e+01 -1.300e+01 -1.300e+01 -1.300e+01 -1.300e+01 -1.300e+01 -1.300e+01 -1.300e+01 -1.300e+01 -1.300e+01 -1.300e+01 -1.300e+01 -1.300e+01 -1.300e+01 -1.300e+01 -1.300e+01 -1.300e+01 -1.300e+01 -1.300e+01 -1.300e+01 -1.300e+01 -1.300e+01 -1.300e+01 -1.300e+01 -1.300e+01 -1.300e+01 -5.000e+00 -5.000e+00 -5.000e+00 -5.000e+00 -5.000e+00 -5.000e+00 -5.000e+00 -5.000e+00 -5.000e+00 -5.000e+00 -5.000e+00 -5.000e+00 -5.000e+00 -5.000e+00 -5.000e+00 -5.000e+00 -5.000e+00 -5.000e+00 -5.000e+00 -5.000e+00 -5.000e+00 -5.000e+00 -5.000e+00 -5.000e+00 -5.000e+00 -5.000e+00 -5.000e+00 -5.000e+00 -5.000e+00 -5.000e+00 -5.000e+00 -5.000e+00 -5.000e+00 -5.000e+00 -5.000e+00 -5.000e+00 -5.000e+00 -5.000e+00 -1.300e+01 -1.300e+01 -1.300e+01 -1.300e+01 -1.300e+01 -1.300e+01 -1.300e+01 -1.300e+01 -1.300e+01 -1.300e+01 -1.300e+01 -1.300e+01 -1.300e+01 -1.300e+01 -1.300e+01 -1.300e+01 -1.300e+01 -1.300e+01 -1.300e+01 -1.300e+01 -1.300e+01 -1.300e+01 -1.300e+01 -1.300e+01 -1.300e+01 -1.300e+01 -1.300e+01 -1.300e+01 -1.300e+01 -1.300e+01 -1.300e+01 -1.300e+01 -1.300e+01 -1.300e+01 -1.300e+01 -1.300e+01 -1.300e+01 -1.300e+01 -1.300e+01 -1.300e+01 -1.300e+01 -1.300e+01 -1.300e+01 -1.300e+01 -1.300e+01 -1.300e+01 -1.300e+01 -1.300e+01 -1.300e+01 -1.300e+01 -1.300e+01 -1.300e+01 -1.300e+01 -1.300e+01 -1.300e+01 -1.300e+01 -1.300e+01 -1.300e+01 -1.300e+01 -1.300e+01 -1.300e+01 -1.300e+01 -1.300e+01 -1.300e+01 -1.300e+01 -1.300e+01 -1.300e+01 -1.300e+01 -1.300e+01 -1.300e+01 -1.300e+01 -1.300e+01 -1.300e+01 -1.300e+01 -1.300e+01 -1.300e+01 -1.300e+01 -1.300e+01 -1.300e+01 -1.300e+01 -1.300e+01 -1.300e+01 -1.300e+01 -1.300e+01 -1.300e+01 -1.300e+01 -1.300e+01 -1.300e+01 -1.300e+01 -1.300e+01 -1.300e+01 -1.300e+01 -1.300e+01 -1.300e+01 -1.300e+01 -1.300e+01 -1.300e+01 -1.300e+01 -1.300e+01 -1.300e+01 -1.300e+01 -1.300e+01 -1.300e+01 -1.300e+01 -1.300e+01 -1.300e+01 -1.300e+01 -1.300e+01 -1.300e+01 -1.300e+01 -1.300e+01 -1.300e+01 -1.300e+01 -1.300e+01 -1.300e+01 -1.300e+01 -1.300e+01 -1.300e+01 -1.300e+01 -1.300e+01 -1.300e+01 -1.300e+01 -1.300e+01 -1.300e+01 -1.300e+01 -1.300e+01 -1.300e+01 -1.300e+01 -1.300e+01 -1.300e+01 -1.300e+01 -1.300e+01 -1.300e+01 -1.300e+01 -1.300e+01 -1.300e+01 -1.300e+01 -1.300e+01 -1.300e+01 -1.300e+01 -1.300e+01 -1.300e+01 -1.300e+01 -1.300e+01 -1.300e+01 -1.300e+01 -1.300e+01 -1.300e+01 -1.300e+01 -1.300e+01 -1.300e+01 -1.300e+01 -1.300e+01 -1.300e+01 -1.300e+01 -1.300e+01 -1.300e+01 -1.300e+01 -1.300e+01 -1.300e+01 -1.300e+01 -1.300e+01 -1.300e+01 -1.300e+01 -1.300e+01 -1.300e+01 -1.300e+01 -1.300e+01 -1.300e+01 -1.300e+01 -1.300e+01 -1.300e+01 -1.300e+01 -1.300e+01 -1.300e+01 -1.300e+01 -1.300e+01 -1.300e+01 -1.300e+01 -1.300e+01 -1.300e+01 -1.300e+01 -1.300e+01 -1.300e+01 -1.300e+01 -1.300e+01 -1.300e+01 -1.300e+01 -1.300e+01 -1.300e+01 -1.300e+01 -1.300e+01 -1.300e+01 -1.300e+01 -1.300e+01 -1.300e+01 -1.300e+01 -1.300e+01 -1.300e+01 -1.300e+01 -1.300e+01 -1.300e+01 -1.300e+01 -1.300e+01 -1.300e+01 -1.300e+01 -1.300e+01 -1.300e+01 -1.300e+01 -1.300e+01 -1.300e+01 -1.300e+01 -1.300e+01 -1.300e+01 -1.300e+01 -1.300e+01 -1.300e+01 -1.300e+01 -1.300e+01 -1.300e+01 -1.300e+01 -1.300e+01 -1.300e+01 -1.300e+01 -1.300e+01 -1.300e+01 -1.300e+01 -1.300e+01 -1.300e+01 -1.300e+01 -1.300e+01 -1.300e+01 -1.300e+01 -1.300e+01 -1.300e+01 -1.300e+01 -1.300e+01 -1.300e+01 -1.300e+01 -1.300e+01 -1.300e+01 -1.300e+01 -1.300e+01 -1.300e+01 -1.300e+01 -1.300e+01 -1.300e+01 -1.300e+01 -1.300e+01 -1.300e+01 -1.300e+01 -1.300e+01 -1.300e+01 -1.300e+01 -1.300e+01 -1.300e+01 -1.300e+01 -1.300e+01 -1.300e+01 -1.300e+01 -1.300e+01 -1.300e+01 -1.300e+01 -1.300e+01 -1.300e+01 -1.300e+01 -1.300e+01 -1.300e+01 -1.300e+01 -1.300e+01 -1.300e+01 -1.300e+01 -1.300e+01 -1.300e+01 -1.300e+01 -1.300e+01 -1.300e+01 -1.300e+01 -1.300e+01 -1.300e+01 -1.300e+01 -1.300e+01 -1.300e+01 -1.300e+01 -1.300e+01 -1.300e+01 -1.300e+01 -1.300e+01 -1.300e+01 -1.300e+01 -1.300e+01 -1.300e+01 -1.300e+01 -1.300e+01 -1.300e+01 -1.300e+01 -1.300e+01 -1.300e+01 -1.300e+01 -1.300e+01 -1.300e+01 -1.300e+01 -1.300e+01 -1.300e+01 -1.300e+01 -1.300e+01 -1.300e+01 -1.300e+01 -1.300e+01 -1.300e+01 -1.300e+01 -1.300e+01 -1.300e+01 -1.300e+01 -1.300e+01 -1.300e+01 -1.300e+01 -1.300e+01 -1.300e+01 -1.300e+01 -1.300e+01 -1.300e+01 -1.300e+01 -1.300e+01 -1.300e+01 -1.300e+01 -1.300e+01 -1.300e+01 -1.300e+01 -1.300e+01 -1.300e+01 -1.300e+01 -1.300e+01 -1.300e+01 -1.300e+01 -1.300e+01 -1.300e+01 -1.300e+01 -5.000e+00 -5.000e+00 -5.000e+00 -5.000e+00 -5.000e+00 -5.000e+00 -5.000e+00 -5.000e+00 -5.000e+00 -5.000e+00 -5.000e+00 -5.000e+00 -5.000e+00 -5.000e+00 -5.000e+00 -5.000e+00 -5.000e+00 -5.000e+00 -5.000e+00 -5.000e+00 -5.000e+00 -5.000e+00 -5.000e+00 -5.000e+00 -5.000e+00 -5.000e+00 -5.000e+00 -5.000e+00 -5.000e+00 -5.000e+00 -5.000e+00 -5.000e+00 -5.000e+00 -5.000e+00 -5.000e+00 -5.000e+00 -5.000e+00 -5.000e+00 -1.300e+01 -1.300e+01 -1.300e+01 -1.300e+01 -1.300e+01 -1.300e+01 -1.300e+01 -1.300e+01 -1.300e+01 -1.300e+01 -1.300e+01 -1.300e+01 -1.300e+01 -1.300e+01 -1.300e+01 -1.300e+01 -1.300e+01 -1.300e+01 -1.300e+01 -1.300e+01 -1.300e+01 -1.300e+01 -1.300e+01 -1.300e+01 -1.300e+01 -1.300e+01 -1.300e+01 -1.300e+01 -1.300e+01 -1.300e+01 -1.300e+01 -1.300e+01 -1.300e+01 -1.300e+01 -1.300e+01 -1.300e+01 -1.300e+01 -1.300e+01 -1.300e+01 -1.300e+01 -1.300e+01 -1.300e+01 -1.300e+01 -1.300e+01 -1.300e+01 -1.300e+01 -1.300e+01 -1.300e+01 -1.300e+01 -1.300e+01 -1.300e+01 -1.300e+01 -1.300e+01 -1.300e+01 -1.300e+01 -1.300e+01 -1.300e+01 -1.300e+01 -1.300e+01 -1.300e+01 -1.300e+01 -1.300e+01 -1.300e+01 -1.300e+01 -1.300e+01 -1.300e+01 -1.300e+01 -1.300e+01 -1.300e+01 -1.300e+01 -1.300e+01 -1.300e+01 -1.300e+01 -1.300e+01 -1.300e+01 -1.300e+01 -1.300e+01 -1.300e+01 -1.300e+01 -1.300e+01 -1.300e+01 -1.300e+01 -1.300e+01 -1.300e+01 -1.300e+01 -1.300e+01 -1.300e+01 -1.300e+01 -1.300e+01 -1.300e+01 -1.300e+01 -1.300e+01 -1.300e+01 -1.300e+01 -1.300e+01 -1.300e+01 -1.300e+01 -1.300e+01 -1.300e+01 -1.300e+01 -1.300e+01 -1.300e+01 -1.300e+01 -1.300e+01 -1.300e+01 -1.300e+01 -1.300e+01 -1.300e+01 -1.300e+01 -1.300e+01 -1.300e+01 -1.300e+01 -1.300e+01 -1.300e+01 -1.300e+01 -1.300e+01 -1.300e+01 -1.300e+01 -1.300e+01 -1.300e+01 -1.300e+01 -1.300e+01 -1.300e+01 -1.300e+01 -1.300e+01 -1.300e+01 -1.300e+01 -1.300e+01 -1.300e+01 -1.300e+01 -1.300e+01 -1.300e+01 -1.300e+01 -1.300e+01 -1.300e+01 -1.300e+01 -1.300e+01 -1.300e+01 -1.300e+01 -1.300e+01 -1.300e+01 -1.300e+01 -1.300e+01 -1.300e+01 -1.300e+01 -1.300e+01 -1.300e+01 -1.300e+01 -1.300e+01 -1.300e+01 -1.300e+01 -1.300e+01 -1.300e+01 -1.300e+01 -1.300e+01 -1.300e+01 -1.300e+01 -1.300e+01 -1.300e+01 -1.300e+01 -1.300e+01 -1.300e+01 -1.300e+01 -1.300e+01 -1.300e+01 -1.300e+01 -1.300e+01 -1.300e+01 -1.300e+01 -1.300e+01 -1.300e+01 -1.300e+01 -1.300e+01 -1.300e+01 -1.300e+01 -1.300e+01 -1.300e+01 -1.300e+01 -1.300e+01 -1.300e+01 -1.300e+01 -1.300e+01 -1.300e+01 -1.300e+01 -1.300e+01 -1.300e+01 -1.300e+01 -1.300e+01 -1.300e+01 -1.300e+01 -1.300e+01 -1.300e+01 -1.300e+01 -1.300e+01 -1.300e+01 -1.300e+01 -1.300e+01 -1.300e+01 -1.300e+01 -1.300e+01 -1.300e+01 -1.300e+01 -1.300e+01 -1.300e+01 -1.300e+01 -1.300e+01 -1.300e+01 -1.300e+01 -1.300e+01 -1.300e+01 -1.300e+01 -1.300e+01 -1.300e+01 -1.300e+01 -1.300e+01 -1.300e+01 -1.300e+01 -1.300e+01 -1.300e+01 -1.300e+01 -1.300e+01 -1.300e+01 -1.300e+01 -1.300e+01 -1.300e+01 -1.300e+01 -1.300e+01 -1.300e+01 -1.300e+01 -1.300e+01 -1.300e+01 -1.300e+01 -1.300e+01 -1.300e+01 -1.300e+01 -1.300e+01 -1.300e+01 -1.300e+01 -1.300e+01 -1.300e+01 -1.300e+01 -1.300e+01 -1.300e+01 -1.300e+01 -1.300e+01 -1.300e+01 -1.300e+01 -1.300e+01 -1.300e+01 -1.300e+01 -1.300e+01 -1.300e+01 -1.300e+01 -1.300e+01 -1.300e+01 -1.300e+01 -1.300e+01 -1.300e+01 -1.300e+01 -1.300e+01 -1.300e+01 -1.300e+01 -1.300e+01 -1.300e+01 -1.300e+01 -1.300e+01 -1.300e+01 -1.300e+01 -1.300e+01 -1.300e+01 -1.300e+01 -1.300e+01 -1.300e+01 -1.300e+01 -1.300e+01 -1.300e+01 -1.300e+01 -1.300e+01 -1.300e+01 -1.300e+01 -1.300e+01 -1.300e+01 -1.300e+01 -1.300e+01 -1.300e+01 -1.300e+01 -1.300e+01 -1.300e+01 -1.300e+01 -1.300e+01 -1.300e+01 -1.300e+01 -1.300e+01 -1.300e+01 -1.300e+01 -1.300e+01 -1.300e+01 -1.300e+01 -1.300e+01 -1.300e+01 -1.300e+01 -1.300e+01 -1.300e+01 -1.300e+01 -1.300e+01 -1.300e+01 -1.300e+01 -1.300e+01 -1.300e+01 -1.300e+01 -1.300e+01 -1.300e+01 -1.300e+01 -1.300e+01 -1.300e+01 -1.300e+01 -1.300e+01 -1.300e+01 -1.300e+01 -1.300e+01 -1.300e+01 -1.300e+01 -1.300e+01 -1.300e+01 -1.300e+01 -1.300e+01 -1.300e+01 -1.300e+01 -1.300e+01 -1.300e+01 -1.300e+01 -1.300e+01 -1.300e+01 -1.300e+01 -1.300e+01 -5.000e+00 -5.000e+00 -5.000e+00 -5.000e+00 -5.000e+00 -5.000e+00 -5.000e+00 -5.000e+00 -5.000e+00 -5.000e+00 -5.000e+00 -5.000e+00 -5.000e+00 -5.000e+00 -5.000e+00 -5.000e+00 -5.000e+00 -5.000e+00 -5.000e+00 -5.000e+00 -5.000e+00 -5.000e+00 -5.000e+00 -5.000e+00 -5.000e+00 -5.000e+00 -5.000e+00 -5.000e+00 -5.000e+00 -5.000e+00 -5.000e+00 -5.000e+00 -5.000e+00 -5.000e+00 -5.000e+00 -5.000e+00 -5.000e+00 -5.000e+00 -1.900e+01 -1.900e+01 -1.900e+01 -1.900e+01 -1.900e+01 -1.900e+01 -1.900e+01 -1.900e+01 -1.900e+01 -1.900e+01 -1.900e+01 -1.900e+01 -1.900e+01 -1.900e+01 -1.900e+01 -1.900e+01 -1.900e+01 -1.900e+01 -1.900e+01 -1.900e+01 -1.900e+01 -1.900e+01 -1.900e+01 -1.900e+01 -1.900e+01 -1.900e+01 -1.900e+01 -1.900e+01 -1.900e+01 -1.900e+01 -1.900e+01 -1.900e+01 -1.900e+01 -1.900e+01 -1.900e+01 -1.900e+01 -1.900e+01 -1.900e+01 -1.900e+01 -1.900e+01 -1.900e+01 -1.900e+01 -1.900e+01 -1.900e+01 -1.900e+01 -1.900e+01 -1.900e+01 -1.900e+01 -1.900e+01 -1.900e+01 -1.900e+01 -1.900e+01 -1.900e+01 -1.900e+01 -1.900e+01 -1.900e+01 -1.900e+01 -1.900e+01 -1.900e+01 -1.900e+01 -1.900e+01 -1.900e+01 -1.900e+01 -1.900e+01 -1.900e+01 -1.900e+01 -1.900e+01 -1.900e+01 -1.900e+01 -1.900e+01 -1.900e+01 -1.900e+01 -1.900e+01 -1.900e+01 -1.900e+01 -1.900e+01 -1.900e+01 -1.900e+01 -1.900e+01 -1.900e+01 -1.900e+01 -1.900e+01 -1.900e+01 -1.900e+01 -1.900e+01 -1.900e+01 -1.900e+01 -1.900e+01 -1.900e+01 -1.900e+01 -1.900e+01 -1.900e+01 -1.900e+01 -1.900e+01 -1.900e+01 -1.900e+01 -1.900e+01 -1.900e+01 -1.900e+01 -1.900e+01 -1.900e+01 -1.900e+01 -1.900e+01 -1.900e+01 -1.900e+01 -1.900e+01 -1.900e+01 -1.900e+01 -1.900e+01 -1.900e+01 -1.900e+01 -1.900e+01 -1.900e+01 -1.900e+01 -1.100e+01 -1.100e+01 -1.100e+01 -1.100e+01 -1.100e+01 -1.100e+01 -1.100e+01 -1.100e+01 -1.100e+01 -1.100e+01 -1.100e+01 -1.100e+01 -1.100e+01 -1.100e+01 -1.100e+01 -1.100e+01 -1.100e+01 -1.100e+01 -1.100e+01 -1.100e+01 -1.100e+01 -1.100e+01 -1.100e+01 -1.100e+01 -1.100e+01 -1.100e+01 -1.100e+01 -1.900e+01 -1.900e+01 -1.900e+01 -1.900e+01 -1.900e+01 -1.900e+01 -1.900e+01 -1.900e+01 -1.900e+01 -1.900e+01 -1.900e+01 -1.900e+01 -1.900e+01 -1.900e+01 -1.900e+01 -1.900e+01 -1.900e+01 -1.900e+01 -1.900e+01 -1.900e+01 -1.900e+01 -1.900e+01 -1.900e+01 -1.900e+01 -1.900e+01 -1.900e+01 -1.900e+01 -1.900e+01 -1.900e+01 -1.900e+01 -1.900e+01 -1.900e+01 -1.900e+01 -1.900e+01 -1.900e+01 -1.900e+01 -1.900e+01 -1.900e+01 -1.900e+01 -1.900e+01 -1.900e+01 -1.900e+01 -1.900e+01 -1.900e+01 -1.900e+01 -1.900e+01 -1.900e+01 -1.900e+01 -1.900e+01 -1.900e+01 -1.900e+01 -1.900e+01 -1.900e+01 -1.900e+01 -1.900e+01 -1.900e+01 -1.900e+01 -1.900e+01 -1.900e+01 -1.900e+01 -1.900e+01 -1.900e+01 -1.900e+01 -1.900e+01 -1.900e+01 -1.900e+01 -1.900e+01 -1.900e+01 -1.900e+01 -1.900e+01 -1.900e+01 -1.900e+01 -1.900e+01 -1.900e+01 -1.900e+01 -1.900e+01 -1.900e+01 -1.900e+01 -1.900e+01 -1.900e+01 -1.900e+01 -1.900e+01 -1.900e+01 -1.900e+01 -1.900e+01 -1.900e+01 -1.900e+01 -1.900e+01 -1.900e+01 -1.900e+01 -1.900e+01 -1.900e+01 -1.900e+01 -1.900e+01 -1.900e+01 -1.900e+01 -1.900e+01 -1.900e+01 -1.900e+01 -1.900e+01 -1.900e+01 -1.900e+01 -1.900e+01 -1.900e+01 -1.900e+01 -1.900e+01 -1.900e+01 -1.900e+01 -1.900e+01 -1.900e+01 -1.900e+01 -1.900e+01 -1.900e+01 -1.900e+01 -1.100e+01 -1.100e+01 -1.100e+01 -1.100e+01 -1.100e+01 -1.100e+01 -1.100e+01 -1.100e+01 -1.100e+01 -1.100e+01 -1.100e+01 -1.100e+01 -1.100e+01 -1.100e+01 -1.100e+01 -1.100e+01 -1.100e+01 -1.100e+01 -1.100e+01 -1.100e+01 -1.100e+01 -1.100e+01 -1.100e+01 -1.100e+01 -1.100e+01 -1.100e+01 -1.100e+01 -1.900e+01 -1.900e+01 -1.900e+01 -1.900e+01 -1.900e+01 -1.900e+01 -1.900e+01 -1.900e+01 -1.900e+01 -1.900e+01 -1.900e+01 -1.900e+01 -1.900e+01 -1.900e+01 -1.900e+01 -1.900e+01 -1.900e+01 -1.900e+01