<?xml version="1.0"?>
<VTKFile type="UnstructuredGrid" version="0.1" byte_order="LittleEndian">
   <UnstructuredGrid>
      <Piece NumberOfPoints="1450" NumberOfCells="97">
         <Points>
            <DataArray type="Float32" Name="Position" NumberOfComponents="3" format="ascii">
0.014	-5.018	0.013
0.007	-5.006	0.029
-0.003	-4.988	0.034
-0.012	-4.971	0.026
-0.017	-4.961	0.008
-0.015	-4.962	-0.013
-0.008	-4.974	-0.029
0.002	-4.992	-0.034
0.012	-5.009	-0.026
0.016	-5.019	-0.008
-0.668	-5.398	-0.035
-0.675	-5.392	-0.016
-0.687	-5.378	-0.006
-0.700	-5.362	-0.009
-0.709	-5.350	-0.024
-0.711	-5.346	-0.044
-0.705	-5.353	-0.063
-0.693	-5.367	-0.073
-0.679	-5.383	-0.070
-0.670	-5.395	-0.056
-1.224	-6.069	-0.050
-1.236	-6.062	-0.034
-1.252	-6.050	-0.028
-1.268	-6.039	-0.036
-1.277	-6.032	-0.054
-1.276	-6.033	-0.075
-1.265	-6.040	-0.091
-1.248	-6.052	-0.096
-1.232	-6.063	-0.088
-1.223	-6.070	-0.071
-1.572	-6.658	-0.072
-1.572	-6.658	-0.051
-1.582	-6.652	-0.034
-1.599	-6.642	-0.027
-1.616	-6.631	-0.033
-1.627	-6.625	-0.050
-1.628	-6.625	-0.071
-1.617	-6.631	-0.088
-1.600	-6.641	-0.095
-1.583	-6.651	-0.089
0.026	-5.011	-0.005
0.033	-4.993	0.002
0.028	-4.974	0.009
0.012	-4.961	0.012
-0.009	-4.959	0.011
-0.027	-4.969	0.005
-0.034	-4.987	-0.002
-0.029	-5.006	-0.009
-0.013	-5.019	-0.013
0.008	-5.021	-0.011
-0.050	-5.291	0.725
-0.043	-5.275	0.735
-0.050	-5.257	0.745
-0.066	-5.245	0.750
-0.087	-5.244	0.748
-0.104	-5.253	0.740
-0.111	-5.269	0.729
-0.105	-5.287	0.719
-0.088	-5.299	0.715
-0.067	-5.300	0.717
-0.171	-5.863	1.377
-0.165	-5.850	1.392
-0.172	-5.835	1.406
-0.189	-5.825	1.413
-0.210	-5.823	1.410
-0.226	-5.830	1.399
-0.232	-5.843	1.384
-0.226	-5.858	1.371
-0.209	-5.868	1.364
-0.188	-5.870	1.366
-0.281	-6.391	1.799
-0.275	-6.379	1.816
-0.282	-6.366	1.830
-0.299	-6.356	1.838
-0.320	-6.354	1.835
-0.336	-6.360	1.824
-0.342	-6.372	1.807
-0.335	-6.385	1.793
-0.318	-6.395	1.785
-0.297	-6.397	1.788
0.008	-4.971	-0.027
0.014	-4.961	-0.010
0.014	-4.961	0.011
0.009	-4.973	0.028
-0.000	-4.991	0.034
-0.009	-5.009	0.027
-0.014	-5.019	0.010
-0.015	-5.019	-0.011
-0.009	-5.007	-0.028
-0.001	-4.989	-0.034
0.720	-5.317	-0.042
0.727	-5.308	-0.025
0.728	-5.308	-0.004
0.722	-5.319	0.013
0.711	-5.336	0.020
0.700	-5.353	0.013
0.693	-5.363	-0.004
0.692	-5.362	-0.025
0.698	-5.351	-0.042
0.709	-5.334	-0.048
1.407	-5.872	-0.102
1.416	-5.864	-0.085
1.418	-5.865	-0.064
1.411	-5.875	-0.047
1.398	-5.890	-0.040
1.383	-5.904	-0.046
1.373	-5.912	-0.063
1.372	-5.911	-0.084
1.379	-5.901	-0.101
1.392	-5.886	-0.108
1.843	-6.377	-0.180
1.843	-6.367	-0.161
1.843	-6.370	-0.141
1.843	-6.385	-0.126
1.843	-6.406	-0.122
1.843	-6.425	-0.132
1.843	-6.434	-0.151
1.843	-6.431	-0.171
1.843	-6.416	-0.186
1.843	-6.395	-0.190
-0.012	-4.962	-0.016
0.009	-4.962	-0.017
0.026	-4.973	-0.012
0.034	-4.990	-0.002
0.028	-5.007	0.008
0.011	-5.018	0.016
-0.009	-5.018	0.017
-0.027	-5.007	0.012
-0.034	-4.990	0.002
-0.029	-4.973	-0.008
-0.049	-5.368	-0.696
-0.028	-5.372	-0.694
-0.014	-5.385	-0.685
-0.012	-5.401	-0.671
-0.022	-5.414	-0.659
-0.041	-5.420	-0.652
-0.062	-5.415	-0.654
-0.076	-5.403	-0.663
-0.078	-5.387	-0.677
-0.068	-5.374	-0.689
-0.128	-6.058	-1.252
-0.107	-6.058	-1.254
-0.089	-6.066	-1.245
-0.082	-6.078	-1.230
-0.087	-6.089	-1.213
-0.103	-6.096	-1.201
-0.124	-6.095	-1.199
-0.142	-6.088	-1.208
-0.149	-6.076	-1.223
-0.144	-6.064	-1.240
-0.140	-6.682	-1.588
-0.131	-6.663	-1.588
-0.134	-6.642	-1.588
-0.149	-6.627	-1.588
-0.170	-6.624	-1.588
-0.189	-6.633	-1.588
-0.198	-6.652	-1.588
-0.195	-6.673	-1.588
-0.180	-6.688	-1.588
-0.159	-6.691	-1.588
-0.147	-5.003	0.150
-0.031	-5.001	0.208
0.097	-4.998	0.186
0.188	-4.997	0.094
0.207	-4.996	-0.035
0.147	-4.997	-0.150
0.031	-4.999	-0.208
-0.097	-5.002	-0.186
-0.188	-5.003	-0.094
-0.207	-5.004	0.035
-0.160	-4.252	0.149
-0.045	-4.250	0.207
0.082	-4.248	0.186
0.172	-4.248	0.094
0.191	-4.248	-0.033
0.133	-4.249	-0.147
0.018	-4.250	-0.205
-0.109	-4.252	-0.184
-0.200	-4.253	-0.093
-0.219	-4.253	0.034
-0.165	-3.560	0.143
-0.051	-3.560	0.201
0.075	-3.560	0.181
0.166	-3.560	0.090
0.186	-3.560	-0.036
0.128	-3.560	-0.150
0.014	-3.561	-0.208
-0.112	-3.561	-0.188
-0.203	-3.561	-0.098
-0.223	-3.560	0.029
-0.160	-2.400	0.143
-0.047	-2.400	0.201
0.079	-2.401	0.181
0.168	-2.401	0.091
0.189	-2.401	-0.034
0.131	-2.401	-0.147
0.018	-2.400	-0.205
-0.107	-2.399	-0.185
-0.197	-2.399	-0.096
-0.217	-2.399	0.030
-0.156	-1.800	0.144
-0.043	-1.800	0.202
0.082	-1.801	0.182
0.172	-1.801	0.093
0.192	-1.801	-0.032
0.135	-1.801	-0.145
0.022	-1.800	-0.203
-0.103	-1.799	-0.183
-0.193	-1.799	-0.094
-0.213	-1.799	0.031
-0.153	-1.200	0.144
-0.041	-1.200	0.202
0.084	-1.200	0.182
0.173	-1.200	0.093
0.193	-1.200	-0.032
0.136	-1.200	-0.145
0.023	-1.200	-0.202
-0.102	-1.200	-0.182
-0.191	-1.200	-0.093
-0.211	-1.200	0.032
-0.153	-0.301	0.144
-0.041	-0.300	0.201
0.084	-0.300	0.181
0.173	-0.300	0.092
0.192	-0.300	-0.033
0.135	-0.300	-0.145
0.022	-0.300	-0.202
-0.102	-0.300	-0.182
-0.191	-0.301	-0.093
-0.210	-0.301	0.032
-0.157	0.560	0.145
-0.045	0.560	0.202
0.079	0.560	0.182
0.167	0.560	0.093
0.187	0.560	-0.031
0.130	0.560	-0.143
0.018	0.560	-0.199
-0.106	0.559	-0.180
-0.195	0.559	-0.091
-0.214	0.559	0.033
-0.156	1.440	0.141
-0.045	1.440	0.198
0.079	1.440	0.178
0.167	1.440	0.090
0.187	1.439	-0.034
0.131	1.439	-0.145
0.019	1.439	-0.202
-0.105	1.439	-0.183
-0.193	1.440	-0.095
-0.213	1.440	0.029
-0.154	2.316	0.139
-0.043	2.316	0.195
0.080	2.316	0.176
0.168	2.316	0.088
0.187	2.316	-0.035
0.131	2.316	-0.146
0.020	2.316	-0.202
-0.103	2.316	-0.183
-0.191	2.316	-0.095
-0.210	2.316	0.028
-0.153	2.570	0.137
-0.043	2.570	0.194
0.079	2.570	0.174
0.166	2.570	0.087
0.186	2.570	-0.035
0.130	2.570	-0.145
0.020	2.569	-0.201
-0.103	2.569	-0.182
-0.190	2.569	-0.095
-0.209	2.569	0.027
-0.014	-5.093	-0.003
-0.007	-5.087	-0.002
0.002	-5.086	-0.003
0.010	-5.090	-0.007
0.013	-5.098	-0.011
0.010	-5.106	-0.014
0.003	-5.112	-0.015
-0.006	-5.113	-0.014
-0.014	-5.109	-0.010
-0.017	-5.101	-0.006
-0.177	-4.734	-0.801
-0.170	-4.728	-0.799
-0.161	-4.726	-0.801
-0.154	-4.729	-0.806
-0.150	-4.735	-0.811
-0.153	-4.743	-0.816
-0.160	-4.749	-0.818
-0.169	-4.751	-0.816
-0.176	-4.748	-0.812
-0.179	-4.741	-0.806
-0.340	-4.392	-1.121
-0.333	-4.386	-1.118
-0.324	-4.384	-1.120
-0.317	-4.385	-1.126
-0.314	-4.391	-1.133
-0.316	-4.397	-1.139
-0.323	-4.403	-1.141
-0.332	-4.405	-1.139
-0.339	-4.404	-1.134
-0.342	-4.398	-1.127
0.005	-5.211	-0.014
0.004	-5.206	-0.006
0.000	-5.198	-0.003
-0.005	-5.191	-0.005
-0.010	-5.187	-0.011
-0.013	-5.187	-0.020
-0.012	-5.193	-0.028
-0.008	-5.200	-0.032
-0.003	-5.208	-0.030
0.002	-5.212	-0.023
-0.667	-5.649	0.214
-0.665	-5.643	0.221
-0.668	-5.636	0.225
-0.675	-5.629	0.225
-0.683	-5.626	0.221
-0.689	-5.628	0.214
-0.691	-5.634	0.207
-0.688	-5.642	0.203
-0.681	-5.648	0.203
-0.673	-5.651	0.207
-0.729	-5.874	0.610
-0.726	-5.866	0.615
-0.729	-5.858	0.619
-0.736	-5.853	0.621
-0.745	-5.852	0.620
-0.753	-5.856	0.616
-0.756	-5.864	0.612
-0.753	-5.872	0.608
-0.746	-5.877	0.606
-0.737	-5.878	0.607
0.033	-6.089	-0.041
0.030	-6.083	-0.034
0.027	-6.082	-0.026
0.024	-6.087	-0.018
0.023	-6.096	-0.015
0.024	-6.105	-0.017
0.027	-6.111	-0.023
0.031	-6.112	-0.032
0.033	-6.107	-0.039
0.034	-6.098	-0.043
0.850	-6.043	0.273
0.847	-6.037	0.280
0.844	-6.036	0.288
0.841	-6.041	0.296
0.841	-6.050	0.299
0.842	-6.059	0.297
0.845	-6.065	0.291
0.848	-6.066	0.282
0.851	-6.061	0.275
0.851	-6.052	0.271
0.050	-6.198	-0.034
0.052	-6.191	-0.028
0.049	-6.186	-0.021
0.042	-6.185	-0.015
0.034	-6.188	-0.012
0.028	-6.195	-0.014
0.026	-6.202	-0.020
0.029	-6.207	-0.027
0.036	-6.208	-0.033
0.044	-6.204	-0.036
0.426	-6.713	0.473
0.429	-6.707	0.479
0.426	-6.702	0.486
0.418	-6.700	0.491
0.409	-6.701	0.493
0.402	-6.706	0.490
0.399	-6.713	0.484
0.402	-6.718	0.476
0.410	-6.720	0.471
0.419	-6.718	0.470
0.425	-6.845	0.576
0.428	-6.839	0.583
0.425	-6.834	0.590
0.418	-6.831	0.594
0.408	-6.831	0.594
0.401	-6.834	0.589
0.398	-6.839	0.582
0.401	-6.845	0.575
0.409	-6.848	0.571
0.418	-6.848	0.571
0.062	-6.306	-0.021
0.066	-6.297	-0.020
0.065	-6.288	-0.020
0.058	-6.282	-0.019
0.049	-6.281	-0.019
0.041	-6.285	-0.019
0.037	-6.294	-0.019
0.038	-6.303	-0.020
0.045	-6.309	-0.020
0.054	-6.310	-0.021
0.082	-6.345	0.824
0.086	-6.337	0.825
0.085	-6.328	0.826
0.078	-6.321	0.827
0.069	-6.320	0.826
0.061	-6.324	0.824
0.057	-6.332	0.823
0.058	-6.341	0.822
0.065	-6.348	0.821
0.074	-6.349	0.822
0.064	-6.363	0.899
0.068	-6.355	0.902
0.066	-6.346	0.903
0.059	-6.339	0.903
0.050	-6.338	0.902
0.043	-6.341	0.899
0.039	-6.349	0.896
0.040	-6.358	0.894
0.047	-6.365	0.894
0.056	-6.367	0.896
0.071	-6.389	-0.028
0.069	-6.382	-0.022
0.066	-6.380	-0.014
0.062	-6.383	-0.006
0.058	-6.391	-0.002
0.057	-6.400	-0.004
0.058	-6.407	-0.009
0.062	-6.409	-0.018
0.066	-6.406	-0.025
0.070	-6.398	-0.029
0.826	-6.536	0.331
0.824	-6.530	0.338
0.822	-6.529	0.347
0.820	-6.534	0.355
0.818	-6.543	0.358
0.818	-6.552	0.355
0.819	-6.558	0.348
0.821	-6.558	0.339
0.823	-6.553	0.332
0.825	-6.545	0.329
0.913	-6.547	0.338
0.918	-6.547	0.346
0.916	-6.547	0.356
0.910	-6.547	0.362
0.901	-6.547	0.364
0.892	-6.547	0.359
0.888	-6.547	0.351
0.890	-6.547	0.342
0.896	-6.547	0.335
0.905	-6.547	0.334
0.079	-6.486	-0.027
0.081	-6.481	-0.019
0.081	-6.481	-0.010
0.078	-6.486	-0.003
0.075	-6.494	0.000
0.072	-6.502	-0.003
0.070	-6.507	-0.010
0.070	-6.507	-0.020
0.073	-6.502	-0.027
0.076	-6.494	-0.030
0.845	-6.795	0.000
0.846	-6.789	0.007
0.844	-6.788	0.016
0.840	-6.791	0.024
0.835	-6.798	0.027
0.832	-6.807	0.025
0.831	-6.813	0.018
0.833	-6.815	0.009
0.837	-6.811	0.002
0.841	-6.804	-0.002
0.982	-6.879	0.088
0.983	-6.872	0.094
0.980	-6.869	0.102
0.974	-6.870	0.109
0.968	-6.876	0.113
0.964	-6.884	0.111
0.963	-6.892	0.105
0.966	-6.895	0.097
0.972	-6.894	0.090
0.978	-6.887	0.087
0.090	-6.605	-0.006
0.092	-6.597	-0.001
0.091	-6.588	-0.001
0.089	-6.581	-0.006
0.086	-6.578	-0.015
0.084	-6.581	-0.023
0.082	-6.589	-0.028
0.082	-6.598	-0.028
0.084	-6.606	-0.022
0.087	-6.608	-0.014
-0.706	-6.621	0.265
-0.704	-6.614	0.270
-0.704	-6.604	0.270
-0.707	-6.597	0.265
-0.712	-6.594	0.258
-0.716	-6.597	0.250
-0.719	-6.604	0.246
[...]
         <CellData>
           <DataArray type="Float32" Name="combinedRootClassID" NumberOfComponents="1" format="ascii">
 -5.000e+00 -5.000e+00 -5.000e+00 -5.000e+00 -5.000e+00 -5.000e+00 -5.000e+00 -5.000e+00 -5.000e+00 -5.000e+00 -5.000e+00 -5.000e+00 -2.000e+00 -2.000e+00 -2.000e+00 -2.000e+00 -2.000e+00 -2.000e+00 -2.000e+00 -2.000e+00 -2.000e+00 -2.000e+00 -7.000e+00 -7.000e+00 -7.000e+00 -7.000e+00 -7.000e+00 -7.000e+00 -7.000e+00 -7.000e+00 -7.000e+00 -7.000e+00 -7.000e+00 -7.000e+00 -7.000e+00 -7.000e+00 -7.000e+00 -7.000e+00 -7.000e+00 -7.000e+00 -7.000e+00 -7.000e+00 -7.000e+00 -7.000e+00 -7.000e+00 -7.000e+00 -7.000e+00 -7.000e+00 -7.000e+00 -7.000e+00 -7.000e+00 -7.000e+00 -7.000e+00 -7.000e+00 -7.000e+00 -7.000e+00 -7.000e+00 -7.000e+00 -7.000e+00 -7.000e+00 -7.000e+00 -7.000e+00 -7.000e+00 -7.000e+00 -7.000e+00 -7.000e+00 -7.000e+00 -7.000e+00 -7.000e+00 -7.000e+00 -7.000e+00 -7.000e+00 -7.000e+00 -7.000e+00 -7.000e+00 -7.000e+00 -9.000e+00 -4.000e+00 -4.000e+00 -4.000e+00 -4.000e+00 -4.000e+00 -4.000e+00 -4.000e+00 -4.000e+00 -4.000e+00 -4.000e+00 -4.000e+00 -4.000e+00 -4.000e+00 -4.000e+00 -4.000e+00 -4.000e+00 -4.000e+00 -4.000e+00 -4.000e+00 -4.000e+00
           </DataArray>
           <DataArray type="Float32" Name="nitrate/Cmin" NumberOfComponents="1" format="ascii">
 1.000e-03 1.000e-03 1.000e-03 1.000e-03 1.000e-03 1.000e-03 1.000e-03 1.000e-03 1.000e-03 1.000e-03 1.000e-03 1.000e-03 1.000e-03 1.000e-03 1.000e-03 1.000e-03 1.000e-03 1.000e-03 1.000e-03 1.000e-03 1.000e-03 1.000e-03 1.000e-03 1.000e-03 1.000e-03 1.000e-03 1.000e-03 1.000e-03 1.000e-03 1.000e-03 1.000e-03 1.000e-03 1.000e-03 1.000e-03 1.000e-03 1.000e-03 1.000e-03 1.000e-03 1.000e-03 1.000e-03 1.000e-03 1.000e-03 1.000e-03 1.000e-03 1.000e-03 1.000e-03 1.000e-03 1.000e-03 1.000e-03 1.000e-03 1.000e-03 1.000e-03 1.000e-03 1.000e-03 1.000e-03 1.000e-03 1.000e-03 1.000e-03 1.000e-03 1.000e-03 1.000e-03 1.000e-03 1.000e-03 1.000e-03 1.000e-03 1.000e-03 1.000e-03 1.000e-03 1.000e-03 1.000e-03 1.000e-03 1.000e-03 1.000e-03 1.000e-03 1.000e-03 1.000e-03 1.000e-03 1.000e-03 1.000e-03 1.000e-03 1.000e-03 1.000e-03 1.000e-03 1.000e-03 1.000e-03 1.000e-03 1.000e-03 1.000e-03 1.000e-03 1.000e-03 1.000e-03 1.000e-03 1.000e-03 1.000e-03 1.000e-03 1.000e-03 1.000e-03
           </DataArray>
           <DataArray type="Float32" Name="nitrate/Imax" NumberOfComponents="1" format="ascii">
 1.900e+00 1.900e+00 1.900e+00 1.900e+00 1.900e+00 1.900e+00 1.900e+00 1.900e+00 1.900e+00 1.900e+00 1.900e+00 1.900e+00 1.900e+00 1.900e+00 1.900e+00 1.900e+00 1.900e+00 1.900e+00 1.900e+00 1.900e+00 1.900e+00 1.900e+00 1.900e+00 1.900e+00 1.900e+00 1.900e+00 1.900e+00 1.900e+00 1.900e+00 1.900e+00 1.900e+00 1.900e+00 1.900e+00 1.900e+00 1.900e+00 1.900e+00 1.900e+00 1.900e+00 1.900e+00 1.900e+00 1.900e+00 1.900e+00 1.900e+00 1.900e+00 1.900e+00 1.900e+00 1.900e+00 1.900e+00 1.900e+00 1.900e+00 1.900e+00 1.900e+00 1.900e+00 1.900e+00 1.900e+00 1.900e+00 1.900e+00 1.900e+00 1.900e+00 1.900e+00 1.900e+00 1.900e+00 1.900e+00 1.900e+00 1.900e+00 1.900e+00 1.900e+00 1.900e+00 1.900e+00 1.900e+00 1.900e+00 1.900e+00 1.900e+00 1.900e+00 1.900e+00 1.900e+00 1.900e+00 1.900e+00 1.900e+00 1.900e+00 1.900e+00 1.900e+00 1.900e+00 1.900e+00 1.900e+00 1.900e+00 1.900e+00 1.900e+00 1.900e+00 1.900e+00 1.900e+00 1.900e+00 1.900e+00 1.900e+00 1.900e+00 1.900e+00 1.900e+00
           </DataArray>
           <DataArray type="Float32" Name="nitrate/Km" NumberOfComponents="1" format="ascii">
 1.610e-02 1.610e-02 1.610e-02 1.610e-02 1.610e-02 1.610e-02 1.610e-02 1.610e-02 1.610e-02 1.610e-02 1.610e-02 1.610e-02 1.610e-02 1.610e-02 1.610e-02 1.610e-02 1.610e-02 1.610e-02 1.610e-02 1.610e-02 1.610e-02 1.610e-02 1.610e-02 1.610e-02 1.610e-02 1.610e-02 1.610e-02 1.610e-02 1.610e-02 1.610e-02 1.610e-02 1.610e-02 1.610e-02 1.610e-02 1.610e-02 1.610e-02 1.610e-02 1.610e-02 1.610e-02 1.610e-02 1.610e-02 1.610e-02 1.610e-02 1.610e-02 1.610e-02 1.610e-02 1.610e-02 1.610e-02 1.610e-02 1.610e-02 1.610e-02 1.610e-02 1.610e-02 1.610e-02 1.610e-02 1.610e-02 1.610e-02 1.610e-02 1.610e-02 1.610e-02 1.610e-02 1.610e-02 1.610e-02 1.610e-02 1.610e-02 1.610e-02 1.610e-02 1.610e-02 1.610e-02 1.610e-02 1.610e-02 1.610e-02 1.610e-02 1.610e-02 1.610e-02 1.610e-02 1.610e-02 1.610e-02 1.610e-02 1.610e-02 1.610e-02 1.610e-02 1.610e-02 1.610e-02 1.610e-02 1.610e-02 1.610e-02 1.610e-02 1.610e-02 1.610e-02 1.610e-02 1.610e-02 1.610e-02 1.610e-02 1.610e-02 1.610e-02 1.610e-02
           </DataArray>
           <DataArray type="Float32" Name="nitrate/minimalNutrientConcentration" NumberOfComponents="1" format="ascii">
 6.000e+02 6.000e+02 6.000e+02 6.000e+02 6.000e+02 6.000e+02 6.000e+02 6.000e+02 6.000e+02 6.000e+02 6.000e+02 6.000e+02 6.000e+02 6.000e+02 6.000e+02 6.000e+02 6.000e+02 6.000e+02 6.000e+02 6.000e+02 6.000e+02 6.000e+02 6.000e+02 6.000e+02 6.000e+02 6.000e+02 6.000e+02 6.000e+02 6.000e+02 6.000e+02 6.000e+02 6.000e+02 6.000e+02 6.000e+02 6.000e+02 6.000e+02 6.000e+02 6.000e+02 6.000e+02 6.000e+02 6.000e+02 6.000e+02 6.000e+02 6.000e+02 6.000e+02 6.000e+02 6.000e+02 6.000e+02 6.000e+02 6.000e+02 6.000e+02 6.000e+02 6.000e+02 6.000e+02 6.000e+02 6.000e+02 6.000e+02 6.000e+02 6.000e+02 6.000e+02 6.000e+02 6.000e+02 6.000e+02 6.000e+02 6.000e+02 6.000e+02 6.000e+02 6.000e+02 6.000e+02 6.000e+02 6.000e+02 6.000e+02 6.000e+02 6.000e+02 6.000e+02 6.000e+02 6.000e+02 6.000e+02 6.000e+02 6.000e+02 6.000e+02 6.000e+02 6.000e+02 6.000e+02 6.000e+02 6.000e+02 6.000e+02 6.000e+02 6.000e+02 6.000e+02 6.000e+02 6.000e+02 6.000e+02 6.000e+02 6.000e+02 6.000e+02 6.000e+02
           </DataArray>
           <DataArray type="Float32" Name="nitrate/nutrientConcentrationAtTheRootSurface" NumberOfComponents="1" format="ascii">
 3.840e-01 4.242e-01 5.174e-01 3.840e-01 4.202e-01 5.390e-01 3.840e-01 4.431e-01 5.192e-01 3.840e-01 4.003e-01 5.111e-01 3.840e-01 3.760e-01 3.621e-01 3.098e-01 2.774e-01 2.529e-01 2.068e-01 0.000e+00 0.000e+00 0.000e+00 3.844e-01 4.112e-01 3.866e-01 4.389e-01 4.063e-01 4.114e-01 4.848e-01 4.217e-01 4.679e-01 4.344e-01 5.188e-01 4.432e-01 5.236e-01 4.510e-01 5.189e-01 4.648e-01 4.677e-01 4.696e-01 4.699e-01 3.933e-01 4.229e-01 4.706e-01 4.761e-01 4.783e-01 4.830e-01 4.922e-01 4.868e-01 4.854e-01 4.801e-01 4.765e-01 4.762e-01 3.962e-01 4.289e-01 4.770e-01 4.778e-01 4.842e-01 4.944e-01 4.995e-01 5.020e-01 5.018e-01 5.003e-01 4.957e-01 4.973e-01 3.988e-01 4.416e-01 4.961e-01 4.006e-01 4.337e-01 4.014e-01 3.912e-01 3.998e-01 4.851e-01 4.034e-01 4.042e-01 5.000e-01 3.840e-01 4.014e-01 4.356e-01 4.709e-01 4.791e-01 5.007e-01 5.096e-01 5.078e-01 5.002e-01 4.587e-01 4.816e-01 5.471e-01 5.372e-01 4.623e-01 4.913e-01 4.715e-01 5.066e-01 5.848e-01 6.276e-01 6.698e-01
           </DataArray>
           <DataArray type="Float32" Name="nitrate/optimalNutrientConcentration" NumberOfComponents="1" format="ascii">
 1.200e+03 1.200e+03 1.200e+03 1.200e+03 1.200e+03 1.200e+03 1.200e+03 1.200e+03 1.200e+03 1.200e+03 1.200e+03 1.200e+03 1.200e+03 1.200e+03 1.200e+03 1.200e+03 1.200e+03 1.200e+03 1.200e+03 1.200e+03 1.200e+03 1.200e+03 1.200e+03 1.200e+03 1.200e+03 1.200e+03 1.200e+03 1.200e+03 1.200e+03 1.200e+03 1.200e+03 1.200e+03 1.200e+03 1.200e+03 1.200e+03 1.200e+03 1.200e+03 1.200e+03 1.200e+03 1.200e+03 1.200e+03 1.200e+03 1.200e+03 1.200e+03 1.200e+03 1.200e+03 1.200e+03 1.200e+03 1.200e+03 1.200e+03 1.200e+03 1.200e+03 1.200e+03 1.200e+03 1.200e+03 1.200e+03 1.200e+03 1.200e+03 1.200e+03 1.200e+03 1.200e+03 1.200e+03 1.200e+03 1.200e+03 1.200e+03 1.200e+03 1.200e+03 1.200e+03 1.200e+03 1.200e+03 1.200e+03 1.200e+03 1.200e+03 1.200e+03 1.200e+03 1.200e+03 1.200e+03 1.200e+03 1.200e+03 1.200e+03 1.200e+03 1.200e+03 1.200e+03 1.200e+03 1.200e+03 1.200e+03 1.200e+03 1.200e+03 1.200e+03 1.200e+03 1.200e+03 1.200e+03 1.200e+03 1.200e+03 1.200e+03 1.200e+03 1.200e+03
           </DataArray>
           <DataArray type="Float32" Name="nitrate/rootSegmentMinimalNutrientContent" NumberOfComponents="1" format="ascii">
 1.632e-01 1.811e-01 1.406e-01 1.632e-01 1.811e-01 1.406e-01 1.632e-01 1.811e-01 1.406e-01 1.632e-01 1.811e-01 1.406e-01 5.806e+00 5.260e+00 8.735e+00 4.488e+00 4.462e+00 6.659e+00 6.322e+00 6.436e+00 6.333e+00 1.809e+00 3.719e-02 1.999e-02 3.541e-02 1.979e-02 3.646e-02 3.448e-02 6.575e-03 3.488e-02 3.152e-03 3.459e-02 3.251e-03 3.330e-02 7.229e-03 3.434e-02 3.508e-03 3.053e-02 3.530e-02 3.110e-02 3.009e-02 3.581e-02 1.163e-02 3.030e-02 2.493e-02 2.191e-02 2.597e-02 1.986e-02 1.885e-02 1.499e-02 1.796e-02 1.502e-02 1.359e-02 3.327e-02 1.119e-02 1.264e-02 1.137e-02 1.129e-02 9.620e-03 8.868e-03 6.906e-03 5.514e-03 4.620e-03 3.200e-03 1.992e-03 3.448e-02 5.122e-03 5.631e-04 3.709e-02 1.344e-02 3.364e-02 1.268e-02 3.458e-02 5.674e-03 3.430e-02 3.680e-02 6.658e-03 3.227e-01 3.135e-01 3.050e-01 2.972e-01 2.901e-01 2.842e-01 2.794e-01 2.756e-01 2.723e-01 2.693e-01 2.666e-01 2.641e-01 2.619e-01 2.600e-01 2.583e-01 2.569e-01 2.557e-01 2.549e-01 2.542e-01 2.538e-01
           </DataArray>
           <DataArray type="Float32" Name="nitrate/rootSegmentNutrientUptake" NumberOfComponents="1" format="ascii">
 0.000e+00 1.126e-01 4.412e-02 0.000e+00 1.104e-01 4.486e-02 0.000e+00 1.156e-01 4.422e-02 0.000e+00 1.081e-01 4.377e-02 0.000e+00 6.972e-01 6.131e-01 4.665e-01 3.889e-01 3.113e-01 2.045e-01 0.000e+00 0.000e+00 0.000e+00 0.000e+00 3.026e-02 0.000e+00 3.004e-02 0.000e+00 0.000e+00 4.282e-03 0.000e+00 1.365e-03 0.000e+00 1.409e-03 0.000e+00 4.718e-03 0.000e+00 1.521e-03 0.000e+00 0.000e+00 0.000e+00 0.000e+00 0.000e+00 1.259e-02 0.000e+00 0.000e+00 0.000e+00 0.000e+00 0.000e+00 0.000e+00 0.000e+00 0.000e+00 0.000e+00 0.000e+00 0.000e+00 1.212e-02 0.000e+00 0.000e+00 0.000e+00 0.000e+00 0.000e+00 0.000e+00 0.000e+00 0.000e+00 0.000e+00 0.000e+00 0.000e+00 3.326e-03 0.000e+00 0.000e+00 1.456e-02 0.000e+00 1.369e-02 0.000e+00 3.694e-03 0.000e+00 0.000e+00 0.000e+00 0.000e+00 8.111e-01 8.026e-01 7.868e-01 7.752e-01 7.781e-01 7.622e-01 7.244e-01 6.721e-01 5.853e-01 5.517e-01 5.457e-01 4.817e-01 3.833e-01 3.453e-01 2.729e-01 2.322e-01 1.913e-01 1.284e-01 6.055e-02
           </DataArray>
           <DataArray type="Float32" Name="nitrate/rootSegmentOptimalNutrientContent" NumberOfComponents="1" format="ascii">
 3.265e-01 3.621e-01 2.812e-01 3.265e-01 3.621e-01 2.812e-01 3.265e-01 3.621e-01 2.812e-01 3.265e-01 3.621e-01 2.812e-01 1.161e+01 1.052e+01 1.747e+01 8.976e+00 8.924e+00 1.332e+01 1.264e+01 1.287e+01 1.267e+01 3.619e+00 7.437e-02 3.998e-02 7.082e-02 3.958e-02 7.292e-02 6.896e-02 1.315e-02 6.976e-02 6.305e-03 6.918e-02 6.502e-03 6.661e-02 1.446e-02 6.867e-02 7.015e-03 6.106e-02 7.059e-02 6.220e-02 6.018e-02 7.162e-02 2.327e-02 6.059e-02 4.987e-02 4.383e-02 5.193e-02 3.972e-02 3.770e-02 2.998e-02 3.592e-02 3.004e-02 2.717e-02 6.654e-02 2.239e-02 2.529e-02 2.273e-02 2.258e-02 1.924e-02 1.774e-02 1.381e-02 1.103e-02 9.241e-03 6.400e-03 3.984e-03 6.896e-02 1.024e-02 1.126e-03 7.418e-02 2.688e-02 6.728e-02 2.536e-02 6.916e-02 1.135e-02 6.859e-02 7.359e-02 1.332e-02 6.454e-01 6.270e-01 6.100e-01 5.944e-01 5.802e-01 5.683e-01 5.587e-01 5.512e-01 5.446e-01 5.386e-01 5.331e-01 5.282e-01 5.238e-01 5.199e-01 5.166e-01 5.138e-01 5.115e-01 5.097e-01 5.084e-01 5.077e-01
           </DataArray>
           <DataArray type="Float32" Name="parentRootClassID" NumberOfComponents="1" format="ascii">
 -2.000e+00 -2.000e+00 -2.000e+00 -2.000e+00 -2.000e+00 -2.000e+00 -2.000e+00 -2.000e+00 -2.000e+00 -2.000e+00 -2.000e+00 -2.000e+00 -3.000e+00 -3.000e+00 -3.000e+00 -3.000e+00 -3.000e+00 -3.000e+00 -3.000e+00 -3.000e+00 -3.000e+00 -3.000e+00 -4.000e+00 -4.000e+00 -4.000e+00 -4.000e+00 -4.000e+00 -4.000e+00 -4.000e+00 -4.000e+00 -4.000e+00 -4.000e+00 -4.000e+00 -4.000e+00 -4.000e+00 -4.000e+00 -4.000e+00 -4.000e+00 -4.000e+00 -4.000e+00 -4.000e+00 -4.000e+00 -4.000e+00 -4.000e+00 -4.000e+00 -4.000e+00 -4.000e+00 -4.000e+00 -4.000e+00 -4.000e+00 -4.000e+00 -4.000e+00 -4.000e+00 -4.000e+00 -4.000e+00 -4.000e+00 -4.000e+00 -4.000e+00 -4.000e+00 -4.000e+00 -4.000e+00 -4.000e+00 -4.000e+00 -4.000e+00 -4.000e+00 -4.000e+00 -4.000e+00 -4.000e+00 -4.000e+00 -4.000e+00 -4.000e+00 -4.000e+00 -4.000e+00 -4.000e+00 -4.000e+00 -4.000e+00 -4.000e+00 -3.000e+00 -3.000e+00 -3.000e+00 -3.000e+00 -3.000e+00 -3.000e+00 -3.000e+00 -3.000e+00 -3.000e+00 -3.000e+00 -3.000e+00 -3.000e+00 -3.000e+00 -3.000e+00 -3.000e+00 -3.000e+00 -3.000e+00 -3.000e+00 -3.000e+00 -3.000e+00
           </DataArray>
           <DataArray type="Float32" Name="plantID" NumberOfComponents="1" format="ascii">
 7.000e+00 7.000e+00 7.000e+00 7.000e+00 7.000e+00 7.000e+00 7.000e+00 7.000e+00 7.000e+00 7.000e+00 7.000e+00 7.000e+00 7.000e+00 7.000e+00 7.000e+00 7.000e+00 7.000e+00 7.000e+00 7.000e+00 7.000e+00 7.000e+00 7.000e+00 7.000e+00 7.000e+00 7.000e+00 7.000e+00 7.000e+00 7.000e+00 7.000e+00 7.000e+00 7.000e+00 7.000e+00 7.000e+00 7.000e+00 7.000e+00 7.000e+00 7.000e+00 7.000e+00 7.000e+00 7.000e+00 7.000e+00 7.000e+00 7.000e+00 7.000e+00 7.000e+00 7.000e+00 7.000e+00 7.000e+00 7.000e+00 7.000e+00 7.000e+00 7.000e+00 7.000e+00 7.000e+00 7.000e+00 7.000e+00 7.000e+00 7.000e+00 7.000e+00 7.000e+00 7.000e+00 7.000e+00 7.000e+00 7.000e+00 7.000e+00 7.000e+00 7.000e+00 7.000e+00 7.000e+00 7.000e+00 7.000e+00 7.000e+00 7.000e+00 7.000e+00 7.000e+00 7.000e+00 7.000e+00 7.000e+00 7.000e+00 7.000e+00 7.000e+00 7.000e+00 7.000e+00 7.000e+00 7.000e+00 7.000e+00 7.000e+00 7.000e+00 7.000e+00 7.000e+00 7.000e+00 7.000e+00 7.000e+00 7.000e+00 7.000e+00 7.000e+00 7.000e+00
           </DataArray>
           <DataArray type="Float32" Name="plantTypeID" NumberOfComponents="1" format="ascii">
 0.000e+00 0.000e+00 0.000e+00 0.000e+00 0.000e+00 0.000e+00 0.000e+00 0.000e+00 0.000e+00 0.000e+00 0.000e+00 0.000e+00 0.000e+00 0.000e+00 0.000e+00 0.000e+00 0.000e+00 0.000e+00 0.000e+00 0.000e+00 0.000e+00 0.000e+00 0.000e+00 0.000e+00 0.000e+00 0.000e+00 0.000e+00 0.000e+00 0.000e+00 0.000e+00 0.000e+00 0.000e+00 0.000e+00 0.000e+00 0.000e+00 0.000e+00 0.000e+00 0.000e+00 0.000e+00 0.000e+00 0.000e+00 0.000e+00 0.000e+00 0.000e+00 0.000e+00 0.000e+00 0.000e+00 0.000e+00 0.000e+00 0.000e+00 0.000e+00 0.000e+00 0.000e+00 0.000e+00 0.000e+00 0.000e+00 0.000e+00 0.000e+00 0.000e+00 0.000e+00 0.000e+00 0.000e+00 0.000e+00 0.000e+00 0.000e+00 0.000e+00 0.000e+00 0.000e+00 0.000e+00 0.000e+00 0.000e+00 0.000e+00 0.000e+00 0.000e+00 0.000e+00 0.000e+00 0.000e+00 0.000e+00 0.000e+00 0.000e+00 0.000e+00 0.000e+00 0.000e+00 0.000e+00 0.000e+00 0.000e+00 0.000e+00 0.000e+00 0.000e+00 0.000e+00 0.000e+00 0.000e+00 0.000e+00 0.000e+00 0.000e+00 0.000e+00 0.000e+00
           </DataArray>
           <DataArray type="Float32" Name="rootCircumference" NumberOfComponents="1" format="ascii">
 2.136e-01 2.136e-01 2.136e-01 2.136e-01 2.136e-01 2.136e-01 2.136e-01 2.136e-01 2.136e-01 2.136e-01 2.136e-01 2.136e-01 1.320e+00 1.307e+00 1.300e+00 1.291e+00 1.287e+00 1.284e+00 1.280e+00 1.276e+00 1.273e+00 1.265e+00 9.431e-02 9.425e-02 9.430e-02 9.425e-02 9.428e-02 9.428e-02 9.425e-02 9.428e-02 9.425e-02 9.427e-02 9.425e-02 9.427e-02 9.425e-02 9.427e-02 9.425e-02 9.427e-02 9.427e-02 9.427e-02 9.426e-02 9.430e-02 9.425e-02 9.426e-02 9.426e-02 9.426e-02 9.426e-02 9.426e-02 9.426e-02 9.426e-02 9.425e-02 9.425e-02 9.425e-02 9.430e-02 9.425e-02 9.425e-02 9.425e-02 9.425e-02 9.425e-02 9.425e-02 9.425e-02 9.425e-02 9.425e-02 9.425e-02 9.425e-02 9.429e-02 9.425e-02 9.425e-02 9.429e-02 9.425e-02 9.429e-02 9.425e-02 9.429e-02 9.425e-02 9.428e-02 9.428e-02 9.425e-02 3.189e-01 3.143e-01 3.100e-01 3.060e-01 3.023e-01 2.992e-01 2.967e-01 2.947e-01 2.929e-01 2.913e-01 2.898e-01 2.885e-01 2.873e-01 2.862e-01 2.853e-01 2.845e-01 2.839e-01 2.834e-01 2.830e-01 2.828e-01
           </DataArray>
           <DataArray type="Float32" Name="rootClassID" NumberOfComponents="1" format="ascii">
 9.900e+01 9.900e+01 9.900e+01 9.900e+01 9.900e+01 9.900e+01 9.900e+01 9.900e+01 9.900e+01 9.900e+01 9.900e+01 9.900e+01 -2.000e+00 -2.000e+00 -2.000e+00 -2.000e+00 -2.000e+00 -2.000e+00 -2.000e+00 -2.000e+00 -2.000e+00 -2.000e+00 9.700e+01 9.700e+01 9.700e+01 9.700e+01 9.700e+01 9.700e+01 9.700e+01 9.700e+01 9.700e+01 9.700e+01 9.700e+01 9.700e+01 9.700e+01 9.700e+01 9.700e+01 9.700e+01 9.700e+01 9.700e+01 9.700e+01 9.700e+01 9.700e+01 9.700e+01 9.700e+01 9.700e+01 9.700e+01 9.700e+01 9.700e+01 9.700e+01 9.700e+01 9.700e+01 9.700e+01 9.700e+01 9.700e+01 9.700e+01 9.700e+01 9.700e+01 9.700e+01 9.700e+01 9.700e+01 9.700e+01 9.700e+01 9.700e+01 9.700e+01 9.700e+01 9.700e+01 9.700e+01 9.700e+01 9.700e+01 9.700e+01 9.700e+01 9.700e+01 9.700e+01 9.700e+01 9.700e+01 9.700e+01 -4.000e+00 -4.000e+00 -4.000e+00 -4.000e+00 -4.000e+00 -4.000e+00 -4.000e+00 -4.000e+00 -4.000e+00 -4.000e+00 -4.000e+00 -4.000e+00 -4.000e+00 -4.000e+00 -4.000e+00 -4.000e+00 -4.000e+00 -4.000e+00 -4.000e+00 -4.000e+00
           </DataArray>
           <DataArray type="Float32" Name="rootDiameter" NumberOfComponents="1" format="ascii">
 6.800e-02 6.800e-02 6.800e-02 6.800e-02 6.800e-02 6.800e-02 6.800e-02 6.800e-02 6.800e-02 6.800e-02 6.800e-02 6.800e-02 4.201e-01 4.160e-01 4.137e-01 4.109e-01 4.097e-01 4.087e-01 4.074e-01 4.063e-01 4.051e-01 4.027e-01 3.002e-02 3.000e-02 3.002e-02 3.000e-02 3.001e-02 3.001e-02 3.000e-02 3.001e-02 3.000e-02 3.001e-02 3.000e-02 3.001e-02 3.000e-02 3.001e-02 3.000e-02 3.001e-02 3.001e-02 3.001e-02 3.001e-02 3.002e-02 3.000e-02 3.000e-02 3.000e-02 3.000e-02 3.000e-02 3.000e-02 3.000e-02 3.000e-02 3.000e-02 3.000e-02 3.000e-02 3.002e-02 3.000e-02 3.000e-02 3.000e-02 3.000e-02 3.000e-02 3.000e-02 3.000e-02 3.000e-02 3.000e-02 3.000e-02 3.000e-02 3.001e-02 3.000e-02 3.000e-02 3.001e-02 3.000e-02 3.001e-02 3.000e-02 3.001e-02 3.000e-02 3.001e-02 3.001e-02 3.000e-02 1.015e-01 1.000e-01 9.868e-02 9.741e-02 9.624e-02 9.525e-02 9.444e-02 9.380e-02 9.324e-02 9.272e-02 9.225e-02 9.182e-02 9.144e-02 9.110e-02 9.081e-02 9.056e-02 9.036e-02 9.020e-02 9.009e-02 9.002e-02
           </DataArray>
           <DataArray type="Float32" Name="rootHairDensity" NumberOfComponents="1" format="ascii">
 2.000e+03 2.000e+03 2.000e+03 2.000e+03 2.000e+03 2.000e+03 2.000e+03 2.000e+03 2.000e+03 2.000e+03 2.000e+03 2.000e+03 0.000e+00 0.000e+00 0.000e+00 0.000e+00 0.000e+00 0.000e+00 0.000e+00 0.000e+00 0.000e+00 0.000e+00 2.000e+03 2.000e+03 2.000e+03 2.000e+03 2.000e+03 2.000e+03 2.000e+03 2.000e+03 2.000e+03 2.000e+03 2.000e+03 2.000e+03 2.000e+03 2.000e+03 2.000e+03 2.000e+03 2.000e+03 2.000e+03 2.000e+03 2.000e+03 2.000e+03 2.000e+03 2.000e+03 2.000e+03 2.000e+03 2.000e+03 2.000e+03 2.000e+03 2.000e+03 2.000e+03 2.000e+03 2.000e+03 2.000e+03 2.000e+03 2.000e+03 2.000e+03 2.000e+03 2.000e+03 2.000e+03 2.000e+03 2.000e+03 2.000e+03 2.000e+03 2.000e+03 2.000e+03 2.000e+03 2.000e+03 2.000e+03 2.000e+03 2.000e+03 2.000e+03 2.000e+03 2.000e+03 2.000e+03 3.000e+03 2.000e+03 2.000e+03 2.000e+03 2.000e+03 2.000e+03 2.000e+03 2.000e+03 2.000e+03 2.000e+03 2.000e+03 2.000e+03 2.000e+03 2.000e+03 2.000e+03 2.000e+03 2.000e+03 2.000e+03 2.000e+03 2.000e+03 2.000e+03
           </DataArray>
           <DataArray type="Float32" Name="rootHairDiameter" NumberOfComponents="1" format="ascii">