<?xml version="1.0"?>
<VTKFile type="UnstructuredGrid" version="0.1" byte_order="LittleEndian">
   <UnstructuredGrid>
      <Piece NumberOfPoints="21720" NumberOfCells="1519">
         <Points>
            <DataArray type="Float32" Name="Position" NumberOfComponents="3" format="ascii">
-0.155	-5.023	0.003
-0.148	-5.018	0.001
-0.138	-5.019	-0.001
-0.131	-5.025	-0.002
-0.129	-5.034	-0.002
-0.132	-5.042	-0.000
-0.140	-5.047	0.002
-0.149	-5.047	0.004
-0.156	-5.041	0.005
-0.158	-5.032	0.005
-0.351	-5.101	-0.853
-0.342	-5.097	-0.855
-0.333	-5.098	-0.856
-0.327	-5.104	-0.856
-0.325	-5.113	-0.856
-0.329	-5.122	-0.855
-0.337	-5.126	-0.854
-0.346	-5.125	-0.853
-0.353	-5.119	-0.852
-0.354	-5.110	-0.852
-0.366	-5.121	-1.714
-0.358	-5.117	-1.715
-0.348	-5.118	-1.717
-0.342	-5.124	-1.717
-0.340	-5.133	-1.717
-0.344	-5.141	-1.715
-0.352	-5.146	-1.714
-0.361	-5.145	-1.712
-0.368	-5.138	-1.712
-0.369	-5.129	-1.712
-0.520	-5.233	-2.336
-0.516	-5.233	-2.328
-0.517	-5.233	-2.318
-0.524	-5.233	-2.312
-0.533	-5.233	-2.310
-0.541	-5.233	-2.315
-0.545	-5.233	-2.323
-0.544	-5.233	-2.332
-0.537	-5.233	-2.339
-0.528	-5.233	-2.340
-0.271	-5.105	0.000
-0.267	-5.098	0.004
-0.268	-5.089	0.005
-0.274	-5.082	0.004
-0.283	-5.079	0.000
-0.290	-5.082	-0.004
-0.294	-5.090	-0.008
-0.293	-5.099	-0.009
-0.287	-5.106	-0.008
-0.279	-5.109	-0.004
-0.648	-5.280	0.741
-0.645	-5.273	0.746
-0.647	-5.264	0.748
-0.652	-5.257	0.747
-0.660	-5.254	0.742
-0.666	-5.256	0.735
-0.668	-5.263	0.730
-0.667	-5.272	0.728
-0.661	-5.279	0.729
-0.654	-5.282	0.734
-1.294	-5.626	1.187
-1.293	-5.620	1.194
-1.296	-5.611	1.197
-1.301	-5.604	1.196
-1.308	-5.601	1.190
-1.313	-5.603	1.183
-1.315	-5.609	1.176
-1.312	-5.617	1.173
-1.306	-5.624	1.174
-1.299	-5.628	1.179
-1.400	-5.710	1.290
-1.396	-5.702	1.290
-1.397	-5.692	1.290
-1.404	-5.686	1.290
-1.413	-5.684	1.290
-1.421	-5.689	1.290
-1.425	-5.697	1.290
-1.424	-5.706	1.290
-1.417	-5.713	1.290
-1.408	-5.714	1.290
-1.231	-6.037	-0.053
-1.232	-6.029	-0.048
-1.233	-6.020	-0.049
-1.233	-6.013	-0.055
-1.234	-6.011	-0.064
-1.234	-6.014	-0.072
-1.233	-6.022	-0.077
-1.232	-6.032	-0.076
-1.231	-6.039	-0.070
-1.231	-6.041	-0.061
-2.088	-6.115	-0.032
-2.089	-6.107	-0.027
-2.089	-6.098	-0.028
-2.091	-6.091	-0.034
-2.092	-6.089	-0.043
-2.093	-6.092	-0.051
-2.093	-6.100	-0.056
-2.092	-6.109	-0.056
-2.090	-6.116	-0.050
-2.089	-6.118	-0.041
-2.842	-6.182	0.126
-2.841	-6.174	0.131
-2.842	-6.165	0.131
-2.844	-6.158	0.126
-2.846	-6.155	0.117
-2.847	-6.158	0.108
-2.848	-6.166	0.103
-2.847	-6.175	0.103
-2.845	-6.183	0.109
-2.843	-6.185	0.117
-1.315	-6.161	-0.054
-1.316	-6.153	-0.050
-1.316	-6.144	-0.051
-1.316	-6.137	-0.058
-1.316	-6.136	-0.067
-1.316	-6.140	-0.075
-1.315	-6.148	-0.080
-1.315	-6.157	-0.078
-1.315	-6.164	-0.072
-1.315	-6.165	-0.062
-2.147	-6.196	-0.079
-2.148	-6.188	-0.074
-2.149	-6.179	-0.075
-2.150	-6.172	-0.081
-2.150	-6.170	-0.090
-2.149	-6.174	-0.099
-2.148	-6.181	-0.104
-2.147	-6.191	-0.103
-2.146	-6.197	-0.096
-2.146	-6.199	-0.087
-3.008	-6.391	-0.126
-3.010	-6.384	-0.120
-3.013	-6.375	-0.121
-3.015	-6.368	-0.126
-3.015	-6.365	-0.135
-3.014	-6.368	-0.144
-3.011	-6.375	-0.149
-3.009	-6.384	-0.149
-3.007	-6.391	-0.143
-3.007	-6.394	-0.134
-3.280	-6.464	-0.140
-3.272	-6.464	-0.136
-3.263	-6.464	-0.137
-3.256	-6.464	-0.144
-3.255	-6.464	-0.153
-3.259	-6.464	-0.161
-3.267	-6.464	-0.165
-3.276	-6.464	-0.164
-3.283	-6.464	-0.157
-3.284	-6.464	-0.148
-1.391	-6.270	-0.078
-1.386	-6.267	-0.070
-1.385	-6.268	-0.061
-1.387	-6.273	-0.054
-1.393	-6.279	-0.051
-1.399	-6.285	-0.054
-1.404	-6.288	-0.061
-1.406	-6.287	-0.070
-1.403	-6.283	-0.077
-1.397	-6.276	-0.080
-0.797	-6.834	-0.236
-0.792	-6.831	-0.229
-0.790	-6.832	-0.220
-0.791	-6.838	-0.213
-0.795	-6.846	-0.210
-0.800	-6.853	-0.213
-0.805	-6.856	-0.220
-0.807	-6.855	-0.229
-0.806	-6.849	-0.236
-0.802	-6.841	-0.239
-0.112	-7.100	-0.535
-0.108	-7.096	-0.527
-0.105	-7.099	-0.519
-0.105	-7.105	-0.512
-0.107	-7.114	-0.510
-0.112	-7.121	-0.514
-0.116	-7.125	-0.521
-0.119	-7.123	-0.530
-0.119	-7.116	-0.536
-0.117	-7.107	-0.538
-1.458	-6.416	-0.067
-1.455	-6.407	-0.065
-1.458	-6.399	-0.062
-1.465	-6.394	-0.059
-1.474	-6.394	-0.058
-1.482	-6.400	-0.058
-1.484	-6.408	-0.061
-1.482	-6.417	-0.064
-1.474	-6.422	-0.066
-1.465	-6.421	-0.068
-1.340	-6.673	0.744
-1.337	-6.664	0.748
-1.340	-6.657	0.752
-1.348	-6.653	0.755
-1.357	-6.654	0.757
-1.364	-6.660	0.756
-1.366	-6.668	0.753
-1.363	-6.676	0.748
-1.356	-6.680	0.745
-1.347	-6.678	0.743
-1.116	-7.097	1.430
-1.115	-7.097	1.440
-1.119	-7.095	1.448
-1.127	-7.091	1.451
-1.135	-7.087	1.449
-1.141	-7.084	1.443
-1.141	-7.084	1.433
-1.137	-7.086	1.425
-1.130	-7.090	1.422
-1.122	-7.094	1.423
-1.542	-6.550	-0.051
-1.544	-6.542	-0.047
-1.546	-6.533	-0.048
-1.546	-6.526	-0.054
-1.545	-6.524	-0.063
-1.543	-6.528	-0.072
-1.541	-6.536	-0.076
-1.540	-6.545	-0.075
-1.539	-6.551	-0.069
-1.540	-6.553	-0.060
-2.378	-6.718	-0.173
-2.382	-6.711	-0.169
-2.384	-6.702	-0.170
-2.385	-6.695	-0.177
-2.383	-6.693	-0.186
-2.379	-6.697	-0.193
-2.376	-6.704	-0.197
-2.373	-6.713	-0.196
-2.372	-6.720	-0.190
-2.374	-6.722	-0.181
-2.905	-6.994	-0.433
-2.910	-6.987	-0.429
-2.914	-6.978	-0.431
-2.914	-6.972	-0.438
-2.911	-6.969	-0.446
-2.906	-6.972	-0.453
-2.901	-6.979	-0.457
-2.898	-6.987	-0.455
-2.897	-6.994	-0.449
-2.900	-6.996	-0.440
-1.624	-6.659	-0.063
-1.616	-6.656	-0.065
-1.607	-6.658	-0.066
-1.601	-6.665	-0.065
-1.600	-6.674	-0.062
-1.605	-6.682	-0.059
-1.613	-6.685	-0.057
-1.622	-6.682	-0.056
-1.628	-6.675	-0.057
-1.629	-6.666	-0.060
-1.769	-6.908	-0.897
-1.760	-6.904	-0.899
-1.751	-6.906	-0.900
-1.745	-6.913	-0.900
-1.744	-6.922	-0.898
-1.748	-6.930	-0.896
-1.756	-6.934	-0.894
-1.765	-6.932	-0.893
-1.772	-6.925	-0.893
-1.773	-6.916	-0.895
-1.876	-6.976	-1.665
-1.868	-6.971	-1.666
-1.859	-6.972	-1.668
-1.853	-6.979	-1.668
-1.851	-6.988	-1.668
-1.855	-6.996	-1.666
-1.863	-7.001	-1.665
-1.872	-6.999	-1.664
-1.878	-6.993	-1.663
-1.880	-6.984	-1.664
-1.672	-6.813	-0.064
-1.669	-6.804	-0.063
-1.671	-6.795	-0.062
-1.678	-6.790	-0.061
-1.687	-6.789	-0.060
-1.695	-6.794	-0.059
-1.698	-6.803	-0.060
-1.696	-6.812	-0.061
-1.689	-6.817	-0.062
-1.680	-6.818	-0.063
-1.583	-6.891	0.799
-1.580	-6.882	0.800
-1.583	-6.873	0.802
-1.590	-6.868	0.804
-1.599	-6.868	0.805
-1.607	-6.873	0.805
-1.610	-6.882	0.804
-1.607	-6.891	0.803
-1.600	-6.896	0.801
-1.591	-6.896	0.800
-1.495	-7.010	1.459
-1.495	-7.006	1.467
-1.495	-7.008	1.477
-1.495	-7.014	1.483
-1.495	-7.023	1.485
-1.495	-7.031	1.480
-1.495	-7.036	1.472
-1.495	-7.034	1.463
-1.495	-7.028	1.456
-1.495	-7.019	1.455
-1.760	-6.927	-0.065
-1.751	-6.924	-0.067
-1.742	-6.926	-0.067
-1.736	-6.933	-0.067
-1.735	-6.942	-0.065
-1.740	-6.949	-0.062
-1.748	-6.953	-0.060
-1.757	-6.950	-0.059
-1.763	-6.944	-0.060
-1.764	-6.935	-0.062
-1.872	-7.121	-0.887
-1.863	-7.119	-0.889
-1.855	-7.122	-0.889
-1.849	-7.129	-0.887
-1.849	-7.138	-0.884
-1.854	-7.145	-0.881
-1.863	-7.147	-0.879
-1.872	-7.144	-0.878
-1.877	-7.137	-0.880
-1.878	-7.128	-0.883
-1.983	-7.464	-1.591
-1.974	-7.462	-1.593
-1.965	-7.466	-1.593
-1.961	-7.474	-1.590
-1.962	-7.482	-1.585
-1.968	-7.488	-1.582
-1.977	-7.489	-1.580
-1.985	-7.485	-1.580
-1.990	-7.478	-1.583
-1.989	-7.469	-1.587
-1.802	-7.083	-0.069
-1.799	-7.076	-0.065
-1.801	-7.067	-0.062
-1.808	-7.061	-0.061
-1.817	-7.060	-0.062
-1.825	-7.064	-0.065
-1.828	-7.072	-0.068
-1.826	-7.081	-0.071
-1.819	-7.087	-0.072
-1.810	-7.088	-0.071
-1.935	-7.395	0.745
-1.932	-7.388	0.750
-1.935	-7.380	0.754
-1.942	-7.375	0.756
-1.951	-7.374	0.754
-1.959	-7.377	0.751
-1.962	-7.385	0.746
-1.959	-7.392	0.741
-1.952	-7.398	0.740
-1.943	-7.399	0.741
-2.081	-7.944	1.368
-2.078	-7.937	1.374
-2.081	-7.931	1.380
-2.089	-7.926	1.382
-2.098	-7.925	1.381
-2.105	-7.928	1.376
-2.108	-7.934	1.370
-2.105	-7.941	1.365
-2.098	-7.946	1.362
-2.088	-7.947	1.363
-1.872	-7.222	-0.056
-1.872	-7.215	-0.051
-1.873	-7.205	-0.052
-1.874	-7.198	-0.058
-1.875	-7.196	-0.067
-1.875	-7.200	-0.076
-1.875	-7.208	-0.080
-1.874	-7.217	-0.080
-1.873	-7.224	-0.074
-1.872	-7.226	-0.065
-2.720	-7.284	-0.000
-2.720	-7.277	0.005
-2.721	-7.267	0.004
-2.722	-7.260	-0.002
-2.723	-7.258	-0.011
-2.724	-7.262	-0.019
-2.723	-7.269	-0.024
-2.722	-7.279	-0.024
-2.721	-7.286	-0.018
-2.720	-7.288	-0.009
-3.549	-7.376	0.096
-3.549	-7.369	0.101
-3.551	-7.359	0.101
-3.552	-7.352	0.095
-3.553	-7.350	0.086
-3.554	-7.353	0.077
-3.554	-7.361	0.072
-3.553	-7.370	0.073
-3.551	-7.377	0.078
-3.550	-7.380	0.087
-0.398	-5.171	-0.023
-0.394	-5.169	-0.016
-0.395	-5.168	-0.006
-0.401	-5.169	0.001
-0.410	-5.171	0.003
-0.418	-5.173	-0.001
-0.422	-5.176	-0.009
-0.421	-5.176	-0.018
-0.415	-5.176	-0.025
-0.406	-5.173	-0.027
-0.164	-6.014	0.080
-0.160	-6.011	0.088
-0.162	-6.009	0.097
-0.168	-6.009	0.103
-0.177	-6.011	0.105
-0.185	-6.014	0.101
-0.189	-6.017	0.093
-0.187	-6.019	0.084
-0.181	-6.019	0.078
-0.172	-6.017	0.076
0.031	-6.763	0.413
0.034	-6.759	0.421
0.032	-6.755	0.429
0.025	-6.754	0.435
0.016	-6.756	0.436
0.008	-6.760	0.433
0.005	-6.764	0.425
0.007	-6.768	0.417
0.014	-6.769	0.411
0.023	-6.767	0.410
0.212	-7.413	0.770
0.215	-7.409	0.778
0.213	-7.405	0.786
0.205	-7.404	0.792
0.196	-7.405	0.793
0.189	-7.409	0.789
0.186	-7.414	0.782
0.188	-7.418	0.774
0.195	-7.419	0.768
0.204	-7.418	0.767
-1.932	-7.360	-0.053
-1.932	-7.352	-0.049
-1.932	-7.343	-0.050
-1.933	-7.336	-0.056
-1.933	-7.334	-0.065
-1.933	-7.338	-0.074
-1.933	-7.346	-0.078
-1.933	-7.355	-0.077
-1.932	-7.362	-0.071
-1.932	-7.364	-0.062
-2.822	-7.392	-0.028
-2.822	-7.384	-0.024
-2.823	-7.375	-0.025
-2.824	-7.368	-0.031
-2.825	-7.366	-0.040
-2.825	-7.370	-0.048
-2.825	-7.378	-0.053
-2.824	-7.387	-0.052
-2.823	-7.394	-0.046
-2.823	-7.396	-0.037
-3.479	-7.439	0.045
-3.479	-7.432	0.050
-3.479	-7.422	0.050
-3.481	-7.415	0.044
-3.482	-7.413	0.035
-3.482	-7.417	0.026
-3.482	-7.424	0.021
-3.482	-7.434	0.022
-3.481	-7.441	0.028
-3.479	-7.443	0.037
-1.981	-7.482	-0.075
-1.978	-7.478	-0.068
-1.979	-7.477	-0.059
-1.982	-7.481	-0.051
-1.987	-7.488	-0.048
-1.992	-7.496	-0.051
-1.995	-7.500	-0.058
-1.995	-7.501	-0.067
-1.991	-7.497	-0.075
-1.986	-7.490	-0.078
-1.288	-7.967	-0.016
[...]
         <CellData>
           <DataArray type="Float32" Name="combinedRootClassID" NumberOfComponents="1" format="ascii">
 -1.300e+01 -1.300e+01 -1.300e+01 -1.300e+01 -1.300e+01 -1.300e+01 -1.300e+01 -1.300e+01 -1.300e+01 -1.300e+01 -1.300e+01 -1.300e+01 -1.300e+01 -1.300e+01 -1.300e+01 -1.300e+01 -1.300e+01 -1.300e+01 -1.300e+01 -1.300e+01 -1.300e+01 -1.300e+01 -1.300e+01 -1.300e+01 -1.300e+01 -1.300e+01 -1.300e+01 -1.300e+01 -1.300e+01 -1.300e+01 -1.300e+01 -1.300e+01 -1.300e+01 -1.300e+01 -1.300e+01 -1.300e+01 -1.300e+01 -1.300e+01 -1.300e+01 -1.300e+01 -1.300e+01 -1.300e+01 -1.300e+01 -1.300e+01 -1.300e+01 -1.300e+01 -1.300e+01 -1.300e+01 -1.300e+01 -1.300e+01 -1.300e+01 -1.300e+01 -1.300e+01 -1.300e+01 -1.300e+01 -1.300e+01 -1.300e+01 -1.300e+01 -1.300e+01 -1.300e+01 -1.300e+01 -1.300e+01 -1.300e+01 -1.300e+01 -1.300e+01 -1.300e+01 -1.300e+01 -1.300e+01 -1.300e+01 -1.300e+01 -1.300e+01 -1.300e+01 -1.300e+01 -1.300e+01 -1.300e+01 -1.300e+01 -1.300e+01 -1.300e+01 -1.300e+01 -1.300e+01 -1.300e+01 -1.300e+01 -1.300e+01 -1.300e+01 -1.300e+01 -1.300e+01 -1.300e+01 -1.300e+01 -1.300e+01 -1.300e+01 -1.300e+01 -1.300e+01 -1.300e+01 -1.300e+01 -1.300e+01 -1.300e+01 -1.300e+01 -1.300e+01 -1.300e+01 -1.300e+01 -1.300e+01 -1.300e+01 -1.300e+01 -1.300e+01 -1.300e+01 -1.300e+01 -1.300e+01 -1.300e+01 -1.300e+01 -1.300e+01 -1.300e+01 -1.300e+01 -1.300e+01 -1.300e+01 -1.300e+01 -1.300e+01 -1.300e+01 -1.300e+01 -1.300e+01 -1.300e+01 -1.300e+01 -1.300e+01 -1.300e+01 -1.300e+01 -1.300e+01 -1.300e+01 -1.300e+01 -1.300e+01 -1.300e+01 -1.300e+01 -1.300e+01 -1.300e+01 -1.300e+01 -1.300e+01 -1.300e+01 -1.300e+01 -1.300e+01 -1.300e+01 -1.300e+01 -1.300e+01 -1.300e+01 -1.300e+01 -1.300e+01 -1.300e+01 -1.300e+01 -1.300e+01 -1.300e+01 -1.300e+01 -5.000e+00 -5.000e+00 -5.000e+00 -5.000e+00 -5.000e+00 -5.000e+00 -5.000e+00 -5.000e+00 -5.000e+00 -5.000e+00 -5.000e+00 -5.000e+00 -5.000e+00 -5.000e+00 -5.000e+00 -5.000e+00 -5.000e+00 -5.000e+00 -5.000e+00 -5.000e+00 -5.000e+00 -5.000e+00 -5.000e+00 -5.000e+00 -5.000e+00 -5.000e+00 -5.000e+00 -5.000e+00 -1.300e+01 -1.300e+01 -1.300e+01 -1.300e+01 -1.300e+01 -1.300e+01 -1.300e+01 -1.300e+01 -1.300e+01 -1.300e+01 -1.300e+01 -1.300e+01 -1.300e+01 -1.300e+01 -1.300e+01 -1.300e+01 -1.300e+01 -1.300e+01 -1.300e+01 -1.300e+01 -1.300e+01 -1.300e+01 -1.300e+01 -1.300e+01 -1.300e+01 -1.300e+01 -1.300e+01 -1.300e+01 -1.300e+01 -1.300e+01 -1.300e+01 -1.300e+01 -1.300e+01 -1.300e+01 -1.300e+01 -1.300e+01 -1.300e+01 -1.300e+01 -1.300e+01 -1.300e+01 -1.300e+01 -1.300e+01 -1.300e+01 -1.300e+01 -1.300e+01 -1.300e+01 -1.300e+01 -1.300e+01 -1.300e+01 -1.300e+01 -1.300e+01 -1.300e+01 -1.300e+01 -1.300e+01 -1.300e+01 -1.300e+01 -1.300e+01 -1.300e+01 -1.300e+01 -1.300e+01 -1.300e+01 -1.300e+01 -1.300e+01 -1.300e+01 -1.300e+01 -1.300e+01 -1.300e+01 -1.300e+01 -1.300e+01 -1.300e+01 -1.300e+01 -1.300e+01 -1.300e+01 -1.300e+01 -1.300e+01 -1.300e+01 -1.300e+01 -1.300e+01 -1.300e+01 -1.300e+01 -1.300e+01 -1.300e+01 -1.300e+01 -1.300e+01 -1.300e+01 -1.300e+01 -1.300e+01 -1.300e+01 -1.300e+01 -1.300e+01 -1.300e+01 -1.300e+01 -1.300e+01 -1.300e+01 -1.300e+01 -1.300e+01 -1.300e+01 -1.300e+01 -1.300e+01 -1.300e+01 -1.300e+01 -1.300e+01 -1.300e+01 -1.300e+01 -1.300e+01 -1.300e+01 -1.300e+01 -1.300e+01 -1.300e+01 -1.300e+01 -1.300e+01 -1.300e+01 -1.300e+01 -1.300e+01 -1.300e+01 -1.300e+01 -1.300e+01 -1.300e+01 -1.300e+01 -1.300e+01 -1.300e+01 -1.300e+01 -1.300e+01 -1.300e+01 -1.300e+01 -1.300e+01 -1.300e+01 -1.300e+01 -1.300e+01 -1.300e+01 -1.300e+01 -1.300e+01 -1.300e+01 -1.300e+01 -1.300e+01 -1.300e+01 -1.300e+01 -1.300e+01 -1.300e+01 -1.300e+01 -1.300e+01 -1.300e+01 -1.300e+01 -1.300e+01 -1.300e+01 -1.300e+01 -1.300e+01 -1.300e+01 -1.300e+01 -1.300e+01 -1.300e+01 -1.300e+01 -1.300e+01 -1.300e+01 -5.000e+00 -5.000e+00 -5.000e+00 -5.000e+00 -5.000e+00 -5.000e+00 -5.000e+00 -5.000e+00 -5.000e+00 -5.000e+00 -5.000e+00 -5.000e+00 -5.000e+00 -5.000e+00 -5.000e+00 -5.000e+00 -5.000e+00 -5.000e+00 -5.000e+00 -5.000e+00 -5.000e+00 -5.000e+00 -5.000e+00 -5.000e+00 -5.000e+00 -5.000e+00 -5.000e+00 -5.000e+00 -1.300e+01 -1.300e+01 -1.300e+01 -1.300e+01 -1.300e+01 -1.300e+01 -1.300e+01 -1.300e+01 -1.300e+01 -1.300e+01 -1.300e+01 -1.300e+01 -1.300e+01 -1.300e+01 -1.300e+01 -1.300e+01 -1.300e+01 -1.300e+01 -1.300e+01 -1.300e+01 -1.300e+01 -1.300e+01 -1.300e+01 -1.300e+01 -1.300e+01 -1.300e+01 -1.300e+01 -1.300e+01 -1.300e+01 -1.300e+01 -1.300e+01 -1.300e+01 -1.300e+01 -1.300e+01 -1.300e+01 -1.300e+01 -1.300e+01 -1.300e+01 -1.300e+01 -1.300e+01 -1.300e+01 -1.300e+01 -1.300e+01 -1.300e+01 -1.300e+01 -1.300e+01 -1.300e+01 -1.300e+01 -1.300e+01 -1.300e+01 -1.300e+01 -1.300e+01 -1.300e+01 -1.300e+01 -1.300e+01 -1.300e+01 -1.300e+01 -1.300e+01 -1.300e+01 -1.300e+01 -1.300e+01 -1.300e+01 -1.300e+01 -1.300e+01 -1.300e+01 -1.300e+01 -1.300e+01 -1.300e+01 -1.300e+01 -1.300e+01 -1.300e+01 -1.300e+01 -1.300e+01 -1.300e+01 -1.300e+01 -1.300e+01 -1.300e+01 -1.300e+01 -1.300e+01 -1.300e+01 -1.300e+01 -1.300e+01 -1.300e+01 -1.300e+01 -1.300e+01 -1.300e+01 -1.300e+01 -1.300e+01 -1.300e+01 -1.300e+01 -1.300e+01 -1.300e+01 -1.300e+01 -1.300e+01 -1.300e+01 -1.300e+01 -1.300e+01 -1.300e+01 -1.300e+01 -1.300e+01 -1.300e+01 -1.300e+01 -1.300e+01 -1.300e+01 -1.300e+01 -1.300e+01 -1.300e+01 -1.300e+01 -1.300e+01 -1.300e+01 -1.300e+01 -1.300e+01 -1.300e+01 -1.300e+01 -1.300e+01 -1.300e+01 -1.300e+01 -1.300e+01 -1.300e+01 -1.300e+01 -1.300e+01 -1.300e+01 -1.300e+01 -1.300e+01 -1.300e+01 -1.300e+01 -1.300e+01 -1.300e+01 -1.300e+01 -1.300e+01 -1.300e+01 -1.300e+01 -1.300e+01 -1.300e+01 -1.300e+01 -1.300e+01 -1.300e+01 -1.300e+01 -1.300e+01 -1.300e+01 -1.300e+01 -1.300e+01 -1.300e+01 -1.300e+01 -1.300e+01 -1.300e+01 -1.300e+01 -1.300e+01 -5.000e+00 -5.000e+00 -5.000e+00 -5.000e+00 -5.000e+00 -5.000e+00 -5.000e+00 -5.000e+00 -5.000e+00 -5.000e+00 -5.000e+00 -5.000e+00 -5.000e+00 -5.000e+00 -5.000e+00 -5.000e+00 -5.000e+00 -5.000e+00 -5.000e+00 -5.000e+00 -5.000e+00 -5.000e+00 -5.000e+00 -5.000e+00 -5.000e+00 -5.000e+00 -5.000e+00 -5.000e+00 -1.300e+01 -1.300e+01 -1.300e+01 -1.300e+01 -1.300e+01 -1.300e+01 -1.300e+01 -1.300e+01 -1.300e+01 -1.300e+01 -1.300e+01 -1.300e+01 -1.300e+01 -1.300e+01 -1.300e+01 -1.300e+01 -1.300e+01 -1.300e+01 -1.300e+01 -1.300e+01 -1.300e+01 -1.300e+01 -1.300e+01 -1.300e+01 -1.300e+01 -1.300e+01 -1.300e+01 -1.300e+01 -1.300e+01 -1.300e+01 -1.300e+01 -1.300e+01 -1.300e+01 -1.300e+01 -1.300e+01 -1.300e+01 -1.300e+01 -1.300e+01 -1.300e+01 -1.300e+01 -1.300e+01 -1.300e+01 -1.300e+01 -1.300e+01 -1.300e+01 -1.300e+01 -1.300e+01 -1.300e+01 -1.300e+01 -1.300e+01 -1.300e+01 -1.300e+01 -1.300e+01 -1.300e+01 -1.300e+01 -1.300e+01 -1.300e+01 -1.300e+01 -1.300e+01 -1.300e+01 -1.300e+01 -1.300e+01 -1.300e+01 -1.300e+01 -1.300e+01 -1.300e+01 -1.300e+01 -1.300e+01 -1.300e+01 -1.300e+01 -1.300e+01 -1.300e+01 -1.300e+01 -1.300e+01 -1.300e+01 -1.300e+01 -1.300e+01 -1.300e+01 -1.300e+01 -1.300e+01 -1.300e+01 -1.300e+01 -1.300e+01 -1.300e+01 -1.300e+01 -1.300e+01 -1.300e+01 -1.300e+01 -1.300e+01 -1.300e+01 -1.300e+01 -1.300e+01 -1.300e+01 -1.300e+01 -1.300e+01 -1.300e+01 -1.300e+01 -1.300e+01 -1.300e+01 -1.300e+01 -1.300e+01 -1.300e+01 -1.300e+01 -1.300e+01 -1.300e+01 -1.300e+01 -1.300e+01 -1.300e+01 -1.300e+01 -1.300e+01 -1.300e+01 -1.300e+01 -1.300e+01 -1.300e+01 -1.300e+01 -1.300e+01 -1.300e+01 -1.300e+01 -1.300e+01 -1.300e+01 -1.300e+01 -1.300e+01 -1.300e+01 -1.300e+01 -1.300e+01 -1.300e+01 -1.300e+01 -1.300e+01 -1.300e+01 -1.300e+01 -1.300e+01 -1.300e+01 -1.300e+01 -1.300e+01 -1.300e+01 -1.300e+01 -1.300e+01 -1.300e+01 -1.300e+01 -1.300e+01 -1.300e+01 -1.300e+01 -1.300e+01 -1.300e+01 -1.300e+01 -1.300e+01 -1.300e+01 -1.300e+01 -1.300e+01 -1.300e+01 -5.000e+00 -5.000e+00 -5.000e+00 -5.000e+00 -5.000e+00 -5.000e+00 -5.000e+00 -5.000e+00 -5.000e+00 -5.000e+00 -5.000e+00 -5.000e+00 -5.000e+00 -5.000e+00 -5.000e+00 -5.000e+00 -5.000e+00 -5.000e+00 -5.000e+00 -5.000e+00 -5.000e+00 -5.000e+00 -5.000e+00 -5.000e+00 -5.000e+00 -5.000e+00 -5.000e+00 -5.000e+00 -1.900e+01 -1.900e+01 -1.900e+01 -1.900e+01 -1.900e+01 -1.900e+01 -1.900e+01 -1.900e+01 -1.900e+01 -1.900e+01 -1.900e+01 -1.900e+01 -1.900e+01 -1.900e+01 -1.900e+01 -1.900e+01 -1.900e+01 -1.900e+01 -1.900e+01 -1.900e+01 -1.100e+01 -1.100e+01 -1.100e+01 -1.100e+01 -1.100e+01 -1.100e+01 -1.100e+01 -1.100e+01 -1.100e+01 -1.100e+01 -1.100e+01 -1.100e+01 -1.100e+01 -1.100e+01 -1.100e+01 -1.100e+01 -1.100e+01 -1.900e+01 -1.900e+01 -1.900e+01 -1.900e+01 -1.900e+01 -1.900e+01 -1.900e+01 -1.900e+01 -1.900e+01 -1.900e+01 -1.900e+01 -1.900e+01 -1.900e+01 -1.900e+01 -1.900e+01 -1.900e+01 -1.900e+01 -1.900e+01 -1.900e+01 -1.900e+01 -1.100e+01 -1.100e+01 -1.100e+01 -1.100e+01 -1.100e+01 -1.100e+01 -1.100e+01 -1.100e+01 -1.100e+01 -1.100e+01 -1.100e+01 -1.100e+01 -1.100e+01 -1.100e+01 -1.100e+01 -1.100e+01 -1.100e+01 -1.900e+01 -1.900e+01 -1.900e+01 -1.900e+01 -1.900e+01 -1.900e+01 -1.900e+01 -1.900e+01 -1.900e+01 -1.900e+01 -1.900e+01 -1.900e+01 -1.900e+01 -1.900e+01 -1.900e+01 -1.900e+01 -1.900e+01 -1.900e+01 -1.900e+01 -1.900e+01 -1.100e+01 -1.100e+01 -1.100e+01 -1.100e+01 -1.100e+01 -1.100e+01 -1.100e+01 -1.100e+01 -1.100e+01 -1.100e+01 -1.100e+01 -1.100e+01 -1.100e+01 -1.100e+01 -1.100e+01 -1.100e+01 -1.100e+01 -1.900e+01 -1.900e+01 -1.900e+01 -1.900e+01 -1.900e+01 -1.900e+01 -1.900e+01 -1.900e+01 -1.900e+01 -1.900e+01 -1.900e+01 -1.900e+01 -1.900e+01 -1.900e+01 -1.900e+01 -1.900e+01 -1.900e+01 -1.900e+01 -1.900e+01 -1.900e+01 -1.100e+01 -1.100e+01 -1.100e+01 -1.100e+01 -1.100e+01 -1.100e+01 -1.100e+01 -1.100e+01 -1.100e+01 -1.100e+01 -1.100e+01 -1.100e+01 -1.100e+01 -1.100e+01 -1.100e+01 -1.100e+01 -1.100e+01 -2.000e+01 -2.000e+01 -2.000e+01 -2.000e+01 -2.000e+01 -2.000e+01 -2.000e+01 -2.000e+01 -2.000e+01 -2.000e+01 -2.000e+01 -2.000e+01 -2.000e+01 -2.000e+01 -2.000e+01 -2.000e+01 -2.000e+01 -2.000e+00 -2.000e+00 -2.000e+00 -2.000e+00 -2.000e+00 -2.000e+00 -2.000e+00 -2.000e+00 -2.000e+00 -2.000e+00 -1.500e+01 -1.500e+01 -1.500e+01 -7.000e+00 -7.000e+00 -7.000e+00 -7.000e+00 -7.000e+00 -7.000e+00 -7.000e+00 -1.500e+01 -1.500e+01 -7.000e+00 -7.000e+00 -7.000e+00 -7.000e+00 -7.000e+00 -7.000e+00 -7.000e+00 -7.000e+00 -7.000e+00 -7.000e+00 -7.000e+00 -7.000e+00 -7.000e+00 -7.000e+00 -7.000e+00 -7.000e+00 -7.000e+00 -7.000e+00 -7.000e+00 -7.000e+00 -7.000e+00 -7.000e+00 -7.000e+00 -7.000e+00 -7.000e+00 -7.000e+00 -7.000e+00 -7.000e+00 -7.000e+00 -7.000e+00 -7.000e+00 -7.000e+00 -7.000e+00 -7.000e+00 -7.000e+00 -7.000e+00 -1.500e+01 -1.500e+01 -7.000e+00 -7.000e+00 -7.000e+00 -7.000e+00 -7.000e+00 -7.000e+00 -7.000e+00 -7.000e+00 -7.000e+00 -7.000e+00 -7.000e+00 -7.000e+00 -7.000e+00 -7.000e+00 -7.000e+00 -7.000e+00 -7.000e+00 -7.000e+00 -7.000e+00 -7.000e+00 -7.000e+00 -7.000e+00 -7.000e+00 -7.000e+00 -7.000e+00 -7.000e+00 -7.000e+00 -1.500e+01 -7.000e+00 -7.000e+00 -7.000e+00 -7.000e+00 -7.000e+00 -7.000e+00 -7.000e+00 -7.000e+00 -7.000e+00 -7.000e+00 -7.000e+00 -7.000e+00 -7.000e+00 -7.000e+00 -7.000e+00 -7.000e+00 -7.000e+00 -7.000e+00 -7.000e+00 -7.000e+00 -7.000e+00 -7.000e+00 -7.000e+00 -7.000e+00 -7.000e+00 -7.000e+00 -1.500e+01 -1.500e+01 -7.000e+00 -7.000e+00 -7.000e+00 -7.000e+00 -7.000e+00 -7.000e+00 -7.000e+00 -7.000e+00 -7.000e+00 -7.000e+00 -7.000e+00 -7.000e+00 -7.000e+00 -7.000e+00 -7.000e+00 -7.000e+00 -1.500e+01 -1.500e+01 -1.500e+01 -7.000e+00 -7.000e+00 -7.000e+00 -7.000e+00 -7.000e+00 -7.000e+00 -7.000e+00 -7.000e+00 -7.000e+00 -7.000e+00 -7.000e+00 -7.000e+00 -7.000e+00 -7.000e+00 -7.000e+00 -7.000e+00 -7.000e+00 -1.500e+01 -1.500e+01 -7.000e+00 -7.000e+00 -7.000e+00 -7.000e+00 -7.000e+00 -7.000e+00 -7.000e+00 -7.000e+00 -7.000e+00 -7.000e+00 -7.000e+00 -7.000e+00 -7.000e+00 -7.000e+00 -7.000e+00 -7.000e+00 -7.000e+00 -7.000e+00 -7.000e+00 -7.000e+00 -7.000e+00 -1.500e+01 -1.500e+01 -7.000e+00 -7.000e+00 -7.000e+00 -7.000e+00 -7.000e+00 -7.000e+00 -1.500e+01 -7.000e+00 -7.000e+00 -7.000e+00 -7.000e+00 -7.000e+00 -7.000e+00 -1.500e+01 -7.000e+00 -7.000e+00 -7.000e+00 -7.000e+00 -7.000e+00 -7.000e+00 -1.500e+01 -7.000e+00 -7.000e+00 -7.000e+00 -7.000e+00 -7.000e+00 -7.000e+00 -1.500e+01 -1.500e+01 -7.000e+00 -7.000e+00 -7.000e+00 -7.000e+00 -7.000e+00 -7.000e+00 -7.000e+00 -7.000e+00 -7.000e+00 -7.000e+00 -7.000e+00 -7.000e+00 -7.000e+00 -7.000e+00 -7.000e+00 -7.000e+00 -1.500e+01 -1.500e+01 -7.000e+00 -7.000e+00 -7.000e+00 -7.000e+00 -7.000e+00 -7.000e+00 -7.000e+00 -7.000e+00 -7.000e+00 -7.000e+00 -7.000e+00 -7.000e+00 -7.000e+00 -7.000e+00 -7.000e+00 -7.000e+00 -7.000e+00 -7.000e+00 -7.000e+00 -7.000e+00 -7.000e+00 -7.000e+00 -7.000e+00 -7.000e+00 -7.000e+00 -7.000e+00 -7.000e+00 -7.000e+00 -7.000e+00 -7.000e+00 -7.000e+00 -7.000e+00 -7.000e+00 -7.000e+00 -7.000e+00 -1.500e+01 -7.000e+00 -7.000e+00 -7.000e+00 -7.000e+00 -7.000e+00 -7.000e+00 -7.000e+00 -7.000e+00 -7.000e+00 -7.000e+00 -7.000e+00 -7.000e+00 -7.000e+00 -7.000e+00 -7.000e+00 -7.000e+00 -7.000e+00 -7.000e+00 -7.000e+00 -7.000e+00 -7.000e+00 -7.000e+00 -7.000e+00 -7.000e+00 -7.000e+00 -7.000e+00 -7.000e+00 -7.000e+00 -7.000e+00 -7.000e+00 -7.000e+00 -7.000e+00 -7.000e+00 -7.000e+00 -7.000e+00 -7.000e+00 -7.000e+00 -7.000e+00 -7.000e+00 -7.000e+00 -7.000e+00 -7.000e+00 -7.000e+00 -7.000e+00 -7.000e+00 -7.000e+00 -7.000e+00 -7.000e+00 -7.000e+00 -7.000e+00 -7.000e+00 -7.000e+00 -7.000e+00 -7.000e+00 -7.000e+00 -7.000e+00 -7.000e+00 -7.000e+00 -7.000e+00 -7.000e+00 -7.000e+00 -7.000e+00 -7.000e+00 -7.000e+00 -7.000e+00 -7.000e+00 -7.000e+00 -7.000e+00 -7.000e+00 -7.000e+00 -7.000e+00 -7.000e+00 -7.000e+00 -7.000e+00 -7.000e+00 -7.000e+00 -7.000e+00 -7.000e+00 -7.000e+00 -7.000e+00 -7.000e+00 -7.000e+00 -7.000e+00 -7.000e+00 -7.000e+00 -7.000e+00 -7.000e+00 -7.000e+00 -7.000e+00 -7.000e+00 -7.000e+00 -7.000e+00 -7.000e+00 -7.000e+00 -7.000e+00 -7.000e+00 -7.000e+00 -7.000e+00 -7.000e+00 -7.000e+00 -7.000e+00 -7.000e+00 -7.000e+00 -7.000e+00 -7.000e+00 -1.500e+01 -1.500e+01 -7.000e+00 -7.000e+00 -7.000e+00 -7.000e+00 -7.000e+00 -7.000e+00 -7.000e+00 -7.000e+00 -7.000e+00 -7.000e+00 -7.000e+00 -7.000e+00 -7.000e+00 -7.000e+00 -7.000e+00 -7.000e+00 -7.000e+00 -7.000e+00 -7.000e+00 -7.000e+00 -7.000e+00 -7.000e+00 -7.000e+00 -7.000e+00 -7.000e+00 -7.000e+00 -7.000e+00 -7.000e+00 -7.000e+00 -7.000e+00 -7.000e+00 -7.000e+00 -7.000e+00 -7.000e+00 -7.000e+00 -7.000e+00 -7.000e+00 -7.000e+00 -7.000e+00 -7.000e+00 -7.000e+00 -7.000e+00 -7.000e+00 -7.000e+00 -7.000e+00 -7.000e+00 -7.000e+00 -7.000e+00 -7.000e+00 -7.000e+00 -7.000e+00 -7.000e+00 -1.500e+01 -1.500e+01 -7.000e+00 -7.000e+00 -7.000e+00 -7.000e+00 -7.000e+00 -7.000e+00 -7.000e+00 -7.000e+00 -7.000e+00 -7.000e+00 -7.000e+00 -7.000e+00 -7.000e+00 -7.000e+00 -7.000e+00 -7.000e+00 -7.000e+00 -7.000e+00 -7.000e+00 -7.000e+00 -7.000e+00 -7.000e+00 -7.000e+00 -7.000e+00 -7.000e+00 -7.000e+00 -7.000e+00 -7.000e+00 -7.000e+00 -7.000e+00 -7.000e+00 -7.000e+00 -7.000e+00 -7.000e+00 -7.000e+00 -7.000e+00 -7.000e+00 -7.000e+00 -7.000e+00 -7.000e+00 -7.000e+00 -7.000e+00 -7.000e+00 -7.000e+00 -7.000e+00 -7.000e+00 -1.500e+01 -7.000e+00 -7.000e+00 -7.000e+00 -7.000e+00 -7.000e+00 -7.000e+00 -7.000e+00 -7.000e+00 -7.000e+00 -7.000e+00 -7.000e+00 -7.000e+00 -7.000e+00 -7.000e+00 -7.000e+00 -7.000e+00 -7.000e+00 -7.000e+00 -7.000e+00 -7.000e+00 -7.000e+00 -7.000e+00 -7.000e+00 -7.000e+00 -7.000e+00 -7.000e+00 -7.000e+00 -7.000e+00 -7.000e+00 -7.000e+00 -7.000e+00 -7.000e+00 -7.000e+00 -7.000e+00 -7.000e+00 -7.000e+00 -7.000e+00 -7.000e+00 -7.000e+00 -7.000e+00 -7.000e+00 -7.000e+00 -7.000e+00 -7.000e+00 -7.000e+00 -7.000e+00 -7.000e+00 -7.000e+00 -7.000e+00 -7.000e+00 -7.000e+00 -7.000e+00 -7.000e+00 -7.000e+00 -7.000e+00 -7.000e+00 -7.000e+00 -7.000e+00 -7.000e+00 -7.000e+00 -7.000e+00 -7.000e+00 -7.000e+00 -7.000e+00 -7.000e+00 -7.000e+00 -7.000e+00 -7.000e+00 -7.000e+00 -7.000e+00 -7.000e+00 -7.000e+00 -7.000e+00 -7.000e+00 -7.000e+00 -7.000e+00 -7.000e+00 -7.000e+00 -7.000e+00 -7.000e+00 -7.000e+00 -7.000e+00 -7.000e+00 -7.000e+00 -7.000e+00 -7.000e+00 -7.000e+00 -7.000e+00 -7.000e+00 -7.000e+00 -7.000e+00 -7.000e+00 -7.000e+00 -7.000e+00 -7.000e+00 -7.000e+00 -7.000e+00 -7.000e+00 -7.000e+00 -7.000e+00 -7.000e+00 -7.000e+00 -7.000e+00 -7.000e+00 -7.000e+00 -7.000e+00 -7.000e+00 -7.000e+00 -7.000e+00 -7.000e+00 -7.000e+00 -7.000e+00 -7.000e+00 -7.000e+00 -1.700e+01 -1.700e+01 -1.700e+01 -1.700e+01 -9.000e+00 -9.000e+00 -9.000e+00 -9.000e+00 -9.000e+00 -9.000e+00 -9.000e+00 -9.000e+00 -9.000e+00 -9.000e+00 -9.000e+00 -9.000e+00 -9.000e+00 -9.000e+00 -9.000e+00 -9.000e+00 -9.000e+00 -9.000e+00 -9.000e+00 -9.000e+00 -4.000e+00 -4.000e+00 -4.000e+00 -4.000e+00 -4.000e+00 -4.000e+00 -4.000e+00 -4.000e+00 -4.000e+00 -4.000e+00 -4.000e+00 -4.000e+00 -4.000e+00 -4.000e+00 -4.000e+00 -4.000e+00 -4.000e+00 -4.000e+00 -4.000e+00 -4.000e+00 -4.000e+00 -4.000e+00 -4.000e+00 -4.000e+00 -4.000e+00 -4.000e+00 -4.000e+00 -4.000e+00 -4.000e+00 -4.000e+00 -4.000e+00 -4.000e+00 -4.000e+00 -4.000e+00 -4.000e+00 -4.000e+00
           </DataArray>
           <DataArray type="Float32" Name="nitrate/Cmin" NumberOfComponents="1" format="ascii">