<?xml version="1.0"?>
<VTKFile type="UnstructuredGrid" version="0.1" byte_order="LittleEndian">
   <UnstructuredGrid>
      <Piece NumberOfPoints="260" NumberOfCells="24">
         <Points>
            <DataArray type="Float32" Name="Position" NumberOfComponents="3" format="ascii">
-0.142	-5.003	0.145
-0.030	-5.001	0.201
0.094	-4.998	0.180
0.182	-4.997	0.091
0.201	-4.996	-0.034
0.142	-4.997	-0.145
0.030	-4.999	-0.201
-0.094	-5.002	-0.180
-0.182	-5.003	-0.091
-0.201	-5.004	0.034
-0.156	-4.252	0.145
-0.045	-4.250	0.201
0.079	-4.249	0.181
0.167	-4.248	0.092
0.186	-4.248	-0.032
0.129	-4.249	-0.143
0.017	-4.250	-0.199
-0.107	-4.252	-0.179
-0.195	-4.253	-0.090
-0.214	-4.253	0.034
-0.162	-3.560	0.139
-0.050	-3.560	0.196
0.073	-3.560	0.177
0.162	-3.560	0.088
0.181	-3.560	-0.035
0.125	-3.560	-0.147
0.013	-3.561	-0.203
-0.110	-3.561	-0.184
-0.199	-3.561	-0.096
-0.218	-3.560	0.028
-0.157	-2.400	0.140
-0.046	-2.400	0.197
0.077	-2.401	0.178
0.165	-2.401	0.090
0.185	-2.401	-0.033
0.128	-2.401	-0.145
0.017	-2.400	-0.201
-0.106	-2.399	-0.182
-0.194	-2.399	-0.094
-0.214	-2.399	0.029
-0.153	-1.800	0.142
-0.042	-1.800	0.198
0.081	-1.801	0.179
0.169	-1.801	0.091
0.189	-1.801	-0.032
0.132	-1.801	-0.143
0.021	-1.800	-0.199
-0.102	-1.800	-0.180
-0.190	-1.799	-0.092
-0.210	-1.799	0.031
-0.151	-1.200	0.142
-0.040	-1.200	0.199
0.082	-1.200	0.179
0.170	-1.200	0.091
0.190	-1.200	-0.031
0.134	-1.200	-0.142
0.023	-1.200	-0.199
-0.100	-1.200	-0.179
-0.188	-1.200	-0.092
-0.208	-1.200	0.031
-0.151	-0.301	0.142
-0.040	-0.300	0.198
0.082	-0.300	0.179
0.170	-0.300	0.091
0.189	-0.300	-0.032
0.133	-0.300	-0.143
0.022	-0.300	-0.199
-0.101	-0.300	-0.179
-0.188	-0.301	-0.091
-0.208	-0.301	0.031
-0.156	0.560	0.143
-0.045	0.560	0.199
0.077	0.560	0.180
0.165	0.560	0.092
0.184	0.560	-0.030
0.128	0.560	-0.141
0.018	0.560	-0.197
-0.105	0.559	-0.178
-0.193	0.559	-0.090
-0.212	0.559	0.033
-0.155	1.440	0.139
-0.045	1.440	0.196
0.078	1.440	0.176
0.165	1.440	0.089
0.185	1.439	-0.033
0.129	1.439	-0.144
0.019	1.439	-0.200
-0.104	1.439	-0.181
-0.191	1.440	-0.094
-0.211	1.440	0.029
-0.153	2.316	0.138
-0.043	2.317	0.194
0.079	2.316	0.175
0.167	2.316	0.087
0.186	2.316	-0.035
0.130	2.316	-0.145
0.020	2.316	-0.201
-0.102	2.316	-0.182
-0.190	2.316	-0.095
-0.209	2.316	0.028
-0.153	2.470	0.137
-0.043	2.470	0.194
0.079	2.470	0.174
0.166	2.470	0.087
0.186	2.470	-0.035
0.130	2.470	-0.145
0.020	2.469	-0.201
-0.102	2.469	-0.182
-0.190	2.469	-0.095
-0.209	2.470	0.027
0.032	-4.999	-0.034
0.046	-5.000	-0.008
0.042	-5.001	0.020
0.022	-5.002	0.041
-0.006	-5.002	0.047
-0.032	-5.001	0.034
-0.046	-5.000	0.008
-0.042	-4.999	-0.020
-0.022	-4.998	-0.041
0.006	-4.998	-0.047
0.027	-5.704	-0.070
0.041	-5.704	-0.044
0.037	-5.704	-0.016
0.017	-5.705	0.005
-0.011	-5.707	0.011
-0.037	-5.708	-0.002
-0.051	-5.708	-0.027
-0.047	-5.708	-0.056
-0.027	-5.706	-0.077
0.001	-5.705	-0.082
0.097	-6.405	-0.050
0.111	-6.404	-0.025
0.108	-6.404	0.004
0.089	-6.406	0.025
0.061	-6.409	0.031
0.035	-6.412	0.019
0.021	-6.414	-0.006
0.024	-6.413	-0.034
0.043	-6.411	-0.055
0.071	-6.408	-0.061
0.184	-7.103	-0.073
0.199	-7.102	-0.049
0.198	-7.104	-0.021
0.180	-7.108	0.001
0.152	-7.112	0.008
0.126	-7.115	-0.003
0.111	-7.116	-0.027
0.112	-7.114	-0.055
0.130	-7.110	-0.077
0.158	-7.106	-0.084
0.286	-7.798	-0.136
0.302	-7.797	-0.112
0.301	-7.799	-0.084
0.284	-7.804	-0.062
0.257	-7.810	-0.054
0.231	-7.814	-0.064
0.215	-7.815	-0.088
0.216	-7.812	-0.116
0.233	-7.807	-0.139
0.260	-7.802	-0.146
0.440	-8.485	-0.189
0.455	-8.483	-0.165
0.455	-8.485	-0.137
0.438	-8.490	-0.115
0.412	-8.497	-0.107
0.386	-8.503	-0.117
0.370	-8.505	-0.140
0.371	-8.502	-0.169
0.387	-8.497	-0.191
0.414	-8.490	-0.198
0.610	-9.169	-0.233
0.626	-9.166	-0.209
0.625	-9.168	-0.181
0.608	-9.173	-0.159
0.582	-9.181	-0.152
0.556	-9.187	-0.161
0.541	-9.190	-0.185
0.542	-9.188	-0.213
0.559	-9.183	-0.235
0.585	-9.176	-0.243
0.801	-9.849	-0.250
0.816	-9.846	-0.227
0.815	-9.847	-0.199
0.799	-9.853	-0.177
0.773	-9.860	-0.169
0.748	-9.868	-0.179
0.733	-9.871	-0.202
0.733	-9.870	-0.230
0.750	-9.864	-0.252
0.775	-9.856	-0.260
1.008	-10.524	-0.285
1.024	-10.520	-0.262
1.023	-10.521	-0.234
1.006	-10.526	-0.212
0.981	-10.534	-0.204
0.955	-10.542	-0.214
0.940	-10.546	-0.237
0.941	-10.545	-0.265
0.958	-10.539	-0.287
0.983	-10.531	-0.295
1.212	-11.202	-0.285
1.227	-11.198	-0.262
1.226	-11.199	-0.234
1.209	-11.204	-0.212
1.183	-11.211	-0.205
1.158	-11.218	-0.214
1.143	-11.222	-0.238
1.144	-11.221	-0.266
1.161	-11.216	-0.288
1.187	-11.208	-0.295
1.386	-11.885	-0.318
1.401	-11.882	-0.295
1.400	-11.883	-0.267
1.384	-11.889	-0.246
1.358	-11.897	-0.238
1.333	-11.903	-0.247
1.318	-11.907	-0.271
1.318	-11.905	-0.298
1.335	-11.900	-0.320
1.360	-11.892	-0.328
1.596	-12.557	-0.351
1.612	-12.553	-0.328
1.612	-12.555	-0.300
1.596	-12.562	-0.278
1.571	-12.571	-0.270
1.546	-12.579	-0.279
1.530	-12.582	-0.302
1.530	-12.580	-0.330
1.546	-12.573	-0.352
1.571	-12.565	-0.360
1.823	-13.223	-0.417
1.839	-13.220	-0.395
1.839	-13.222	-0.367
1.823	-13.229	-0.345
1.798	-13.237	-0.337
1.773	-13.244	-0.346
1.757	-13.247	-0.368
1.757	-13.245	-0.396
1.772	-13.238	-0.418
1.797	-13.230	-0.426
2.016	-13.902	-0.468
2.032	-13.899	-0.445
2.032	-13.901	-0.417
2.016	-13.907	-0.395
1.990	-13.915	-0.387
1.965	-13.922	-0.397
1.949	-13.924	-0.420
1.949	-13.922	-0.447
1.965	-13.916	-0.469
1.991	-13.909	-0.477
2.081	-14.129	-0.481
2.096	-14.126	-0.458
2.096	-14.127	-0.431
2.080	-14.133	-0.409
2.054	-14.141	-0.401
2.029	-14.148	-0.410
2.014	-14.151	-0.433
2.014	-14.149	-0.461
2.030	-14.143	-0.483
2.056	-14.135	-0.491
		    </DataArray>
         </Points>
         <Cells>
            <DataArray type="Int32" Name="connectivity" NumberOfComponents="1" format="ascii">
 0 10 1 11 2 12 3 13 4 14 5 15 6 16 7 17 8 18 9 19 0 10
 10 20 11 21 12 22 13 23 14 24 15 25 16 26 17 27 18 28 19 29 10 20
 20 30 21 31 22 32 23 33 24 34 25 35 26 36 27 37 28 38 29 39 20 30
 30 40 31 41 32 42 33 43 34 44 35 45 36 46 37 47 38 48 39 49 30 40
 40 50 41 51 42 52 43 53 44 54 45 55 46 56 47 57 48 58 49 59 40 50
 50 60 51 61 52 62 53 63 54 64 55 65 56 66 57 67 58 68 59 69 50 60
 60 70 61 71 62 72 63 73 64 74 65 75 66 76 67 77 68 78 69 79 60 70
 70 80 71 81 72 82 73 83 74 84 75 85 76 86 77 87 78 88 79 89 70 80
 80 90 81 91 82 92 83 93 84 94 85 95 86 96 87 97 88 98 89 99 80 90
 90 100 91 101 92 102 93 103 94 104 95 105 96 106 97 107 98 108 99 109 90 100
 110 120 111 121 112 122 113 123 114 124 115 125 116 126 117 127 118 128 119 129 110 120
 120 130 121 131 122 132 123 133 124 134 125 135 126 136 127 137 128 138 129 139 120 130
 130 140 131 141 132 142 133 143 134 144 135 145 136 146 137 147 138 148 139 149 130 140
 140 150 141 151 142 152 143 153 144 154 145 155 146 156 147 157 148 158 149 159 140 150
 150 160 151 161 152 162 153 163 154 164 155 165 156 166 157 167 158 168 159 169 150 160
 160 170 161 171 162 172 163 173 164 174 165 175 166 176 167 177 168 178 169 179 160 170
 170 180 171 181 172 182 173 183 174 184 175 185 176 186 177 187 178 188 179 189 170 180
 180 190 181 191 182 192 183 193 184 194 185 195 186 196 187 197 188 198 189 199 180 190
 190 200 191 201 192 202 193 203 194 204 195 205 196 206 197 207 198 208 199 209 190 200
 200 210 201 211 202 212 203 213 204 214 205 215 206 216 207 217 208 218 209 219 200 210
 210 220 211 221 212 222 213 223 214 224 215 225 216 226 217 227 218 228 219 229 210 220
 220 230 221 231 222 232 223 233 224 234 225 235 226 236 227 237 228 238 229 239 220 230
 230 240 231 241 232 242 233 243 234 244 235 245 236 246 237 247 238 248 239 249 230 240
 240 250 241 251 242 252 243 253 244 254 245 255 246 256 247 257 248 258 249 259 240 250

            </DataArray>
            <DataArray type="Int32" Name="offsets" NumberOfComponents="1" format="ascii">
 22 44 66 88 110 132 154 176 198 220 242 264 286 308 330 352 374 396 418 440 462 484 506 528
            </DataArray>
            <DataArray type="UInt8"  Name="types" NumberOfComponents="1" format="ascii">
6 6 6 6 6 6 6 6 6 6 6 6 6 6 6 6 6 6 6 6 6 6 6 6
            </DataArray>
         </Cells>
         <CellData>
           <DataArray type="Float32" Name="combinedRootClassID" NumberOfComponents="1" format="ascii">
 -2.000e+00 -2.000e+00 -2.000e+00 -2.000e+00 -2.000e+00 -2.000e+00 -2.000e+00 -2.000e+00 -2.000e+00 -2.000e+00 -4.000e+00 -4.000e+00 -4.000e+00 -4.000e+00 -4.000e+00 -4.000e+00 -4.000e+00 -4.000e+00 -4.000e+00 -4.000e+00 -4.000e+00 -4.000e+00 -4.000e+00 -4.000e+00
           </DataArray>
           <DataArray type="Float32" Name="nitrate/Cmin" NumberOfComponents="1" format="ascii">
 1.000e-03 1.000e-03 1.000e-03 1.000e-03 1.000e-03 1.000e-03 1.000e-03 1.000e-03 1.000e-03 1.000e-03 1.000e-03 1.000e-03 1.000e-03 1.000e-03 1.000e-03 1.000e-03 1.000e-03 1.000e-03 1.000e-03 1.000e-03 1.000e-03 1.000e-03 1.000e-03 1.000e-03
           </DataArray>
           <DataArray type="Float32" Name="nitrate/Imax" NumberOfComponents="1" format="ascii">
 1.900e+00 1.900e+00 1.900e+00 1.900e+00 1.900e+00 1.900e+00 1.900e+00 1.900e+00 1.900e+00 1.900e+00 1.900e+00 1.900e+00 1.900e+00 1.900e+00 1.900e+00 1.900e+00 1.900e+00 1.900e+00 1.900e+00 1.900e+00 1.900e+00 1.900e+00 1.900e+00 1.900e+00
           </DataArray>
           <DataArray type="Float32" Name="nitrate/Km" NumberOfComponents="1" format="ascii">
 1.610e-02 1.610e-02 1.610e-02 1.610e-02 1.610e-02 1.610e-02 1.610e-02 1.610e-02 1.610e-02 1.610e-02 1.610e-02 1.610e-02 1.610e-02 1.610e-02 1.610e-02 1.610e-02 1.610e-02 1.610e-02 1.610e-02 1.610e-02 1.610e-02 1.610e-02 1.610e-02 1.610e-02
           </DataArray>
           <DataArray type="Float32" Name="nitrate/minimalNutrientConcentration" NumberOfComponents="1" format="ascii">
 6.000e+02 6.000e+02 6.000e+02 6.000e+02 6.000e+02 6.000e+02 6.000e+02 6.000e+02 6.000e+02 6.000e+02 6.000e+02 6.000e+02 6.000e+02 6.000e+02 6.000e+02 6.000e+02 6.000e+02 6.000e+02 6.000e+02 6.000e+02 6.000e+02 6.000e+02 6.000e+02 6.000e+02
           </DataArray>
           <DataArray type="Float32" Name="nitrate/nutrientConcentrationAtTheRootSurface" NumberOfComponents="1" format="ascii">
 3.207e-01 2.797e-01 2.452e-01 1.839e-01 1.558e-01 1.240e-01 8.356e-02 0.000e+00 0.000e+00 0.000e+00 3.207e-01 3.497e-01 3.745e-01 3.955e-01 4.218e-01 4.514e-01 4.763e-01 4.909e-01 4.996e-01 4.898e-01 5.171e-01 5.695e-01 5.982e-01 6.433e-01
           </DataArray>
           <DataArray type="Float32" Name="nitrate/optimalNutrientConcentration" NumberOfComponents="1" format="ascii">
 1.200e+03 1.200e+03 1.200e+03 1.200e+03 1.200e+03 1.200e+03 1.200e+03 1.200e+03 1.200e+03 1.200e+03 1.200e+03 1.200e+03 1.200e+03 1.200e+03 1.200e+03 1.200e+03 1.200e+03 1.200e+03 1.200e+03 1.200e+03 1.200e+03 1.200e+03 1.200e+03 1.200e+03
           </DataArray>
           <DataArray type="Float32" Name="nitrate/rootSegmentMinimalNutrientContent" NumberOfComponents="1" format="ascii">
 5.503e+00 5.022e+00 8.407e+00 4.326e+00 4.316e+00 6.459e+00 6.154e+00 6.281e+00 6.238e+00 1.089e+00 2.768e-01 2.734e-01 2.703e-01 2.674e-01 2.649e-01 2.626e-01 2.606e-01 2.588e-01 2.573e-01 2.561e-01 2.551e-01 2.544e-01 2.539e-01 8.457e-02
           </DataArray>
           <DataArray type="Float32" Name="nitrate/rootSegmentNutrientUptake" NumberOfComponents="1" format="ascii">
 0.000e+00 4.498e-01 3.893e-01 2.878e-01 2.332e-01 1.721e-01 8.092e-02 0.000e+00 0.000e+00 0.000e+00 0.000e+00 5.212e-01 5.024e-01 4.808e-01 4.632e-01 4.437e-01 4.125e-01 3.695e-01 3.176e-01 2.529e-01 1.995e-01 1.482e-01 8.238e-02 1.235e-02
           </DataArray>
           <DataArray type="Float32" Name="nitrate/rootSegmentOptimalNutrientContent" NumberOfComponents="1" format="ascii">
 1.101e+01 1.004e+01 1.681e+01 8.651e+00 8.631e+00 1.292e+01 1.231e+01 1.256e+01 1.248e+01 2.178e+00 5.535e-01 5.467e-01 5.405e-01 5.349e-01 5.298e-01 5.252e-01 5.212e-01 5.176e-01 5.147e-01 5.122e-01 5.102e-01 5.088e-01 5.079e-01 1.691e-01
           </DataArray>
           <DataArray type="Float32" Name="parentRootClassID" NumberOfComponents="1" format="ascii">
 -3.000e+00 -3.000e+00 -3.000e+00 -3.000e+00 -3.000e+00 -3.000e+00 -3.000e+00 -3.000e+00 -3.000e+00 -3.000e+00 -3.000e+00 -3.000e+00 -3.000e+00 -3.000e+00 -3.000e+00 -3.000e+00 -3.000e+00 -3.000e+00 -3.000e+00 -3.000e+00 -3.000e+00 -3.000e+00 -3.000e+00 -3.000e+00
           </DataArray>
           <DataArray type="Float32" Name="plantID" NumberOfComponents="1" format="ascii">
 5.000e+00 5.000e+00 5.000e+00 5.000e+00 5.000e+00 5.000e+00 5.000e+00 5.000e+00 5.000e+00 5.000e+00 5.000e+00 5.000e+00 5.000e+00 5.000e+00 5.000e+00 5.000e+00 5.000e+00 5.000e+00 5.000e+00 5.000e+00 5.000e+00 5.000e+00 5.000e+00 5.000e+00
           </DataArray>
           <DataArray type="Float32" Name="plantTypeID" NumberOfComponents="1" format="ascii">
 0.000e+00 0.000e+00 0.000e+00 0.000e+00 0.000e+00 0.000e+00 0.000e+00 0.000e+00 0.000e+00 0.000e+00 0.000e+00 0.000e+00 0.000e+00 0.000e+00 0.000e+00 0.000e+00 0.000e+00 0.000e+00 0.000e+00 0.000e+00 0.000e+00 0.000e+00 0.000e+00 0.000e+00
           </DataArray>
           <DataArray type="Float32" Name="rootCircumference" NumberOfComponents="1" format="ascii">
 1.279e+00 1.273e+00 1.271e+00 1.267e+00 1.266e+00 1.265e+00 1.263e+00 1.261e+00 1.259e+00 1.257e+00 2.953e-01 2.935e-01 2.918e-01 2.903e-01 2.889e-01 2.877e-01 2.865e-01 2.856e-01 2.848e-01 2.841e-01 2.835e-01 2.831e-01 2.829e-01 2.828e-01
           </DataArray>
           <DataArray type="Float32" Name="rootClassID" NumberOfComponents="1" format="ascii">
 -2.000e+00 -2.000e+00 -2.000e+00 -2.000e+00 -2.000e+00 -2.000e+00 -2.000e+00 -2.000e+00 -2.000e+00 -2.000e+00 -4.000e+00 -4.000e+00 -4.000e+00 -4.000e+00 -4.000e+00 -4.000e+00 -4.000e+00 -4.000e+00 -4.000e+00 -4.000e+00 -4.000e+00 -4.000e+00 -4.000e+00 -4.000e+00
           </DataArray>
           <DataArray type="Float32" Name="rootDiameter" NumberOfComponents="1" format="ascii">
 4.070e-01 4.054e-01 4.045e-01 4.034e-01 4.030e-01 4.025e-01 4.019e-01 4.014e-01 4.009e-01 4.001e-01 9.400e-02 9.342e-02 9.289e-02 9.240e-02 9.196e-02 9.156e-02 9.121e-02 9.090e-02 9.064e-02 9.042e-02 9.025e-02 9.012e-02 9.004e-02 9.000e-02
           </DataArray>
           <DataArray type="Float32" Name="rootHairDensity" NumberOfComponents="1" format="ascii">
 0.000e+00 0.000e+00 0.000e+00 0.000e+00 0.000e+00 0.000e+00 0.000e+00 0.000e+00 0.000e+00 0.000e+00 2.000e+03 2.000e+03 2.000e+03 2.000e+03 2.000e+03 2.000e+03 2.000e+03 2.000e+03 2.000e+03 2.000e+03 2.000e+03 2.000e+03 2.000e+03 2.000e+03
           </DataArray>
           <DataArray type="Float32" Name="rootHairDiameter" NumberOfComponents="1" format="ascii">
 5.000e-04 5.000e-04 5.000e-04 5.000e-04 5.000e-04 5.000e-04 5.000e-04 5.000e-04 5.000e-04 5.000e-04 5.000e-04 5.000e-04 5.000e-04 5.000e-04 5.000e-04 5.000e-04 5.000e-04 5.000e-04 5.000e-04 5.000e-04 5.000e-04 5.000e-04 5.000e-04 5.000e-04
           </DataArray>
           <DataArray type="Float32" Name="rootHairLength" NumberOfComponents="1" format="ascii">
 3.000e-02 3.000e-02 3.000e-02 3.000e-02 3.000e-02 3.000e-02 3.000e-02 2.400e-02 1.200e-02 0.000e+00 3.000e-02 3.000e-02 3.000e-02 3.000e-02 3.000e-02 3.000e-02 3.000e-02 2.700e-02 1.800e-02 9.000e-03 0.000e+00 0.000e+00 0.000e+00 0.000e+00
           </DataArray>
           <DataArray type="Float32" Name="rootHairSurfaceArea" NumberOfComponents="1" format="ascii">
 0.000e+00 0.000e+00 0.000e+00 0.000e+00 0.000e+00 0.000e+00 0.000e+00 0.000e+00 0.000e+00 0.000e+00 9.425e-02 9.425e-02 9.425e-02 9.425e-02 9.425e-02 9.425e-02 9.425e-02 8.482e-02 5.655e-02 2.827e-02 0.000e+00 0.000e+00 0.000e+00 0.000e+00
           </DataArray>
           <DataArray type="Float32" Name="rootLength2Base" NumberOfComponents="1" format="ascii">
 0.000e+00 7.500e-01 1.440e+00 2.600e+00 3.200e+00 3.800e+00 4.700e+00 5.560e+00 6.440e+00 7.316e+00 0.000e+00 7.071e-01 1.414e+00 2.121e+00 2.828e+00 3.535e+00 4.243e+00 4.950e+00 5.657e+00 6.364e+00 7.071e+00 7.778e+00 8.485e+00 9.192e+00
           </DataArray>
           <DataArray type="Float32" Name="rootPotentialSecondaryGrowth" NumberOfComponents="1" format="ascii">
 4.070e-01 4.054e-01 4.045e-01 4.034e-01 4.030e-01 4.025e-01 4.019e-01 4.014e-01 4.009e-01 4.001e-01 9.400e-02 9.342e-02 9.289e-02 9.240e-02 9.196e-02 9.156e-02 9.121e-02 9.090e-02 9.064e-02 9.042e-02 9.025e-02 9.012e-02 9.004e-02 9.000e-02
           </DataArray>
           <DataArray type="Float32" Name="rootSegmentAge" NumberOfComponents="1" format="ascii">
 4.000e+00 3.500e+00 3.200e+00 2.800e+00 2.600e+00 2.400e+00 2.100e+00 1.800e+00 1.400e+00 5.000e-01 4.000e+00 3.700e+00 3.400e+00 3.100e+00 2.800e+00 2.500e+00 2.200e+00 1.900e+00 1.600e+00 1.300e+00 1.000e+00 7.000e-01 4.000e-01 1.000e-01
           </DataArray>
           <DataArray type="Float32" Name="rootSegmentCarbonCostOfExudates" NumberOfComponents="1" format="ascii">
 0.000e+00 0.000e+00 0.000e+00 0.000e+00 0.000e+00 0.000e+00 0.000e+00 0.000e+00 0.000e+00 0.000e+00 4.469e-05 4.143e-05 3.814e-05 3.455e-05 3.106e-05 2.752e-05 2.422e-05 2.087e-05 1.770e-05 1.425e-05 1.081e-05 7.083e-06 3.355e-06 2.239e-07
           </DataArray>
           <DataArray type="Float32" Name="rootSegmentDryWeight" NumberOfComponents="1" format="ascii">
 9.172e-03 8.370e-03 1.401e-02 7.210e-03 7.193e-03 1.077e-02 1.026e-02 1.047e-02 1.040e-02 1.815e-03 4.613e-04 4.556e-04 4.504e-04 4.457e-04 4.415e-04 4.377e-04 4.343e-04 4.314e-04 4.289e-04 4.268e-04 4.252e-04 4.240e-04 4.232e-04 1.410e-04
           </DataArray>
           <DataArray type="Float32" Name="rootSegmentLength" NumberOfComponents="1" format="ascii">
 7.500e-01 6.900e-01 1.160e+00 6.000e-01 6.000e-01 9.000e-01 8.600e-01 8.800e-01 8.764e-01 1.536e-01 7.071e-01 7.071e-01 7.071e-01 7.071e-01 7.071e-01 7.071e-01 7.071e-01 7.071e-01 7.071e-01 7.071e-01 7.071e-01 7.071e-01 7.071e-01 2.357e-01
           </DataArray>
           <DataArray type="Float32" Name="rootSegmentLengthDuration" NumberOfComponents="1" format="ascii">
 2.795e+00 2.311e+00 3.475e+00 1.620e+00 1.500e+00 2.030e+00 1.685e+00 1.419e+00 9.335e-01 4.388e-02 2.726e+00 2.514e+00 2.302e+00 2.090e+00 1.878e+00 1.666e+00 1.453e+00 1.241e+00 1.029e+00 8.171e-01 6.050e-01 3.928e-01 1.807e-01 2.357e-02
           </DataArray>
           <DataArray type="Float32" Name="rootSegmentRespiration" NumberOfComponents="1" format="ascii">
 3.669e-04 3.348e-04 5.604e-04 2.884e-04 2.877e-04 4.306e-04 4.103e-04 4.711e-04 5.718e-04 1.407e-04 1.845e-05 1.822e-05 1.802e-05 1.783e-05 1.766e-05 1.751e-05 1.737e-05 1.833e-05 2.144e-05 2.454e-05 2.764e-05 3.074e-05 3.386e-05 1.233e-05
           </DataArray>
           <DataArray type="Float32" Name="rootSegmentSecondaryPotentialCarbonSinkForGrowth" NumberOfComponents="1" format="ascii">
 1.239e-04 9.071e-05 1.223e-04 5.111e-05 4.379e-05 5.323e-05 3.820e-05 2.641e-05 1.039e-05 1.618e-07 1.603e-05 1.359e-05 1.136e-05 9.334e-06 7.515e-06 5.899e-06 4.482e-06 3.262e-06 2.239e-06 1.410e-06 7.729e-07 3.280e-07 7.402e-08 1.175e-09
           </DataArray>
           <DataArray type="Float32" Name="rootSegmentSurfaceArea" NumberOfComponents="1" format="ascii">
 9.590e-01 8.787e-01 1.474e+00 7.604e-01 7.596e-01 1.138e+00 1.086e+00 1.110e+00 1.104e+00 1.930e-01 2.088e-01 2.075e-01 2.063e-01 2.053e-01 2.043e-01 2.034e-01 2.026e-01 2.019e-01 2.013e-01 2.009e-01 2.005e-01 2.002e-01 2.000e-01 6.664e-02
           </DataArray>
           <DataArray type="Float32" Name="rootSegmentVolume" NumberOfComponents="1" format="ascii">
 9.758e-02 8.905e-02 1.491e-01 7.670e-02 7.652e-02 1.145e-01 1.091e-01 1.114e-01 1.106e-01 1.931e-02 4.907e-03 4.847e-03 4.792e-03 4.742e-03 4.696e-03 4.656e-03 4.620e-03 4.589e-03 4.563e-03 4.541e-03 4.523e-03 4.511e-03 4.502e-03 1.500e-03
           </DataArray>
           <DataArray type="Float32" Name="rootSegmentWaterUptake" NumberOfComponents="1" format="ascii">
 2.837e-02 2.610e-02 4.388e-02 2.269e-02 2.269e-02 3.404e-02 3.251e-02 0.000e+00 0.000e+00 0.000e+00 2.675e-02 2.675e-02 2.675e-02 2.675e-02 2.675e-02 2.675e-02 2.675e-02 2.661e-02 2.592e-02 2.400e-02 2.064e-02 1.533e-02 7.959e-03 5.638e-04
           </DataArray>
           <DataArray type="Float32" Name="spatialRootDensity" NumberOfComponents="1" format="ascii">
 3.376e-01 1.688e-01 0.000e+00 0.000e+00 0.000e+00 0.000e+00 0.000e+00 0.000e+00 0.000e+00 0.000e+00 3.438e-01 1.790e-01 0.000e+00 0.000e+00 0.000e+00 0.000e+00 0.000e+00 0.000e+00 0.000e+00 0.000e+00 0.000e+00 0.000e+00 0.000e+00 0.000e+00
           </DataArray>
           <DataArray type="Float32" Name="volumetricWaterContentAtTheRootSurface" NumberOfComponents="1" format="ascii">
 1.939e-01 1.939e-01 1.939e-01 1.939e-01 1.939e-01 1.939e-01 1.939e-01 0.000e+00 0.000e+00 0.000e+00 1.939e-01 1.939e-01 1.939e-01 1.939e-01 1.939e-01 1.939e-01 1.939e-01 1.939e-01 1.939e-01 1.939e-01 1.938e-01 1.938e-01 1.938e-01 1.938e-01
           </DataArray>
         </CellData>
      </Piece>
   </UnstructuredGrid>
</VTKFile>
