<?xml version="1.0"?>
<VTKFile type="UnstructuredGrid" version="0.1" byte_order="LittleEndian">
   <UnstructuredGrid>
      <Piece NumberOfPoints="210" NumberOfCells="19">
         <Points>
            <DataArray type="Float32" Name="Position" NumberOfComponents="3" format="ascii">
-0.141	-5.003	0.144
-0.030	-5.001	0.200
0.093	-4.999	0.179
0.181	-4.997	0.090
0.199	-4.996	-0.034
0.141	-4.997	-0.144
0.030	-4.999	-0.200
-0.093	-5.001	-0.179
-0.181	-5.003	-0.090
-0.199	-5.004	0.034
-0.155	-4.252	0.144
-0.044	-4.250	0.200
0.078	-4.249	0.180
0.166	-4.248	0.091
0.185	-4.248	-0.032
0.128	-4.249	-0.142
0.017	-4.250	-0.198
-0.106	-4.252	-0.178
-0.194	-4.253	-0.090
-0.213	-4.253	0.033
-0.161	-3.560	0.138
-0.050	-3.560	0.195
0.073	-3.560	0.176
0.161	-3.560	0.088
0.180	-3.560	-0.035
0.124	-3.560	-0.146
0.013	-3.561	-0.202
-0.110	-3.561	-0.183
-0.198	-3.561	-0.095
-0.217	-3.560	0.028
-0.157	-2.400	0.140
-0.046	-2.400	0.196
0.076	-2.401	0.177
0.164	-2.401	0.089
0.184	-2.401	-0.033
0.128	-2.401	-0.144
0.017	-2.400	-0.200
-0.105	-2.399	-0.181
-0.193	-2.399	-0.094
-0.213	-2.399	0.029
-0.152	-1.800	0.141
-0.042	-1.800	0.198
0.080	-1.801	0.178
0.168	-1.801	0.091
0.188	-1.801	-0.032
0.132	-1.801	-0.142
0.021	-1.800	-0.199
-0.101	-1.800	-0.179
-0.189	-1.799	-0.092
-0.209	-1.799	0.031
-0.151	-1.200	0.142
-0.040	-1.200	0.198
0.082	-1.200	0.179
0.170	-1.200	0.091
0.189	-1.200	-0.031
0.133	-1.200	-0.142
0.023	-1.200	-0.198
-0.100	-1.200	-0.179
-0.187	-1.200	-0.091
-0.207	-1.200	0.031
-0.150	-0.301	0.141
-0.040	-0.300	0.197
0.082	-0.300	0.178
0.169	-0.300	0.090
0.189	-0.300	-0.032
0.132	-0.300	-0.142
0.022	-0.300	-0.198
-0.100	-0.300	-0.179
-0.188	-0.301	-0.091
-0.207	-0.301	0.031
-0.155	0.560	0.143
-0.045	0.560	0.199
0.077	0.560	0.179
0.165	0.560	0.092
0.184	0.560	-0.030
0.128	0.560	-0.140
0.017	0.560	-0.197
-0.105	0.559	-0.177
-0.192	0.559	-0.090
-0.211	0.559	0.033
-0.155	1.440	0.139
-0.045	1.440	0.195
0.078	1.440	0.176
0.165	1.440	0.089
0.185	1.439	-0.033
0.129	1.439	-0.143
0.019	1.439	-0.200
-0.103	1.440	-0.181
-0.191	1.440	-0.093
-0.211	1.440	0.029
-0.011	1.858	0.139
-0.011	1.968	0.196
-0.011	2.091	0.176
-0.011	2.178	0.089
-0.011	2.197	-0.033
-0.011	2.141	-0.143
-0.011	2.031	-0.200
-0.011	1.909	-0.180
-0.011	1.822	-0.093
-0.011	1.802	0.029
0.032	-4.999	-0.033
0.045	-5.000	-0.008
0.042	-5.001	0.020
0.022	-5.002	0.041
-0.006	-5.002	0.046
-0.032	-5.001	0.033
-0.045	-5.000	0.008
-0.042	-4.999	-0.020
-0.022	-4.998	-0.041
0.006	-4.998	-0.046
0.026	-5.704	-0.069
0.040	-5.704	-0.044
0.036	-5.704	-0.016
0.017	-5.705	0.005
-0.011	-5.707	0.010
-0.037	-5.708	-0.002
-0.050	-5.708	-0.027
-0.047	-5.707	-0.055
-0.027	-5.706	-0.076
0.001	-5.705	-0.081
0.096	-6.405	-0.049
0.110	-6.404	-0.025
0.107	-6.404	0.003
0.088	-6.406	0.024
0.061	-6.409	0.030
0.035	-6.412	0.019
0.021	-6.414	-0.006
0.024	-6.413	-0.034
0.043	-6.411	-0.055
0.070	-6.408	-0.061
0.184	-7.103	-0.073
0.199	-7.102	-0.049
0.197	-7.104	-0.021
0.179	-7.108	0.001
0.152	-7.112	0.007
0.126	-7.115	-0.003
0.111	-7.116	-0.027
0.113	-7.114	-0.055
0.131	-7.110	-0.077
0.158	-7.106	-0.083
0.286	-7.798	-0.136
0.301	-7.797	-0.112
0.301	-7.799	-0.084
0.284	-7.804	-0.062
0.257	-7.810	-0.055
0.231	-7.814	-0.065
0.216	-7.815	-0.088
0.216	-7.812	-0.116
0.233	-7.807	-0.138
0.260	-7.802	-0.145
0.439	-8.485	-0.188
0.455	-8.483	-0.165
0.454	-8.485	-0.137
0.438	-8.490	-0.115
0.412	-8.497	-0.108
0.386	-8.502	-0.117
0.371	-8.505	-0.140
0.371	-8.502	-0.168
0.388	-8.497	-0.190
0.414	-8.490	-0.198
0.610	-9.169	-0.232
0.625	-9.166	-0.209
0.625	-9.168	-0.181
0.608	-9.173	-0.159
0.582	-9.180	-0.152
0.557	-9.187	-0.162
0.541	-9.190	-0.185
0.542	-9.188	-0.213
0.559	-9.183	-0.235
0.585	-9.176	-0.242
0.801	-9.849	-0.250
0.816	-9.846	-0.227
0.815	-9.847	-0.199
0.799	-9.853	-0.177
0.773	-9.860	-0.170
0.748	-9.867	-0.179
0.733	-9.871	-0.202
0.734	-9.870	-0.230
0.750	-9.864	-0.252
0.775	-9.856	-0.260
1.008	-10.524	-0.285
1.023	-10.520	-0.262
1.022	-10.521	-0.234
1.006	-10.526	-0.212
0.981	-10.534	-0.204
0.955	-10.542	-0.214
0.941	-10.546	-0.237
0.941	-10.545	-0.265
0.958	-10.539	-0.287
0.983	-10.531	-0.294
1.212	-11.202	-0.285
1.227	-11.198	-0.262
1.226	-11.199	-0.234
1.209	-11.204	-0.212
1.183	-11.211	-0.205
1.158	-11.218	-0.215
1.143	-11.222	-0.238
1.144	-11.221	-0.266
1.161	-11.216	-0.287
1.187	-11.208	-0.295
1.386	-11.886	-0.318
1.401	-11.883	-0.295
1.400	-11.885	-0.267
1.384	-11.890	-0.245
1.358	-11.897	-0.238
1.333	-11.903	-0.248
1.317	-11.906	-0.271
1.318	-11.904	-0.299
1.335	-11.899	-0.320
1.361	-11.892	-0.328
		    </DataArray>
         </Points>
         <Cells>
            <DataArray type="Int32" Name="connectivity" NumberOfComponents="1" format="ascii">
 0 10 1 11 2 12 3 13 4 14 5 15 6 16 7 17 8 18 9 19 0 10
 10 20 11 21 12 22 13 23 14 24 15 25 16 26 17 27 18 28 19 29 10 20
 20 30 21 31 22 32 23 33 24 34 25 35 26 36 27 37 28 38 29 39 20 30
 30 40 31 41 32 42 33 43 34 44 35 45 36 46 37 47 38 48 39 49 30 40
 40 50 41 51 42 52 43 53 44 54 45 55 46 56 47 57 48 58 49 59 40 50
 50 60 51 61 52 62 53 63 54 64 55 65 56 66 57 67 58 68 59 69 50 60
 60 70 61 71 62 72 63 73 64 74 65 75 66 76 67 77 68 78 69 79 60 70
 70 80 71 81 72 82 73 83 74 84 75 85 76 86 77 87 78 88 79 89 70 80
 80 90 81 91 82 92 83 93 84 94 85 95 86 96 87 97 88 98 89 99 80 90
 100 110 101 111 102 112 103 113 104 114 105 115 106 116 107 117 108 118 109 119 100 110
 110 120 111 121 112 122 113 123 114 124 115 125 116 126 117 127 118 128 119 129 110 120
 120 130 121 131 122 132 123 133 124 134 125 135 126 136 127 137 128 138 129 139 120 130
 130 140 131 141 132 142 133 143 134 144 135 145 136 146 137 147 138 148 139 149 130 140
 140 150 141 151 142 152 143 153 144 154 145 155 146 156 147 157 148 158 149 159 140 150
 150 160 151 161 152 162 153 163 154 164 155 165 156 166 157 167 158 168 159 169 150 160
 160 170 161 171 162 172 163 173 164 174 165 175 166 176 167 177 168 178 169 179 160 170
 170 180 171 181 172 182 173 183 174 184 175 185 176 186 177 187 178 188 179 189 170 180
 180 190 181 191 182 192 183 193 184 194 185 195 186 196 187 197 188 198 189 199 180 190
 190 200 191 201 192 202 193 203 194 204 195 205 196 206 197 207 198 208 199 209 190 200

            </DataArray>
            <DataArray type="Int32" Name="offsets" NumberOfComponents="1" format="ascii">
 22 44 66 88 110 132 154 176 198 220 242 264 286 308 330 352 374 396 418
            </DataArray>
            <DataArray type="UInt8"  Name="types" NumberOfComponents="1" format="ascii">
6 6 6 6 6 6 6 6 6 6 6 6 6 6 6 6 6 6 6
            </DataArray>
         </Cells>
         <CellData>
           <DataArray type="Float32" Name="combinedRootClassID" NumberOfComponents="1" format="ascii">
 -2.000e+00 -2.000e+00 -2.000e+00 -2.000e+00 -2.000e+00 -2.000e+00 -2.000e+00 -2.000e+00 -2.000e+00 -4.000e+00 -4.000e+00 -4.000e+00 -4.000e+00 -4.000e+00 -4.000e+00 -4.000e+00 -4.000e+00 -4.000e+00 -4.000e+00
           </DataArray>
           <DataArray type="Float32" Name="nitrate/Cmin" NumberOfComponents="1" format="ascii">
 1.000e-03 1.000e-03 1.000e-03 1.000e-03 1.000e-03 1.000e-03 1.000e-03 1.000e-03 1.000e-03 1.000e-03 1.000e-03 1.000e-03 1.000e-03 1.000e-03 1.000e-03 1.000e-03 1.000e-03 1.000e-03 1.000e-03
           </DataArray>
           <DataArray type="Float32" Name="nitrate/Imax" NumberOfComponents="1" format="ascii">
 1.900e+00 1.900e+00 1.900e+00 1.900e+00 1.900e+00 1.900e+00 1.900e+00 1.900e+00 1.900e+00 1.900e+00 1.900e+00 1.900e+00 1.900e+00 1.900e+00 1.900e+00 1.900e+00 1.900e+00 1.900e+00 1.900e+00
           </DataArray>
           <DataArray type="Float32" Name="nitrate/Km" NumberOfComponents="1" format="ascii">
 1.610e-02 1.610e-02 1.610e-02 1.610e-02 1.610e-02 1.610e-02 1.610e-02 1.610e-02 1.610e-02 1.610e-02 1.610e-02 1.610e-02 1.610e-02 1.610e-02 1.610e-02 1.610e-02 1.610e-02 1.610e-02 1.610e-02
           </DataArray>
           <DataArray type="Float32" Name="nitrate/minimalNutrientConcentration" NumberOfComponents="1" format="ascii">
 6.000e+02 6.000e+02 6.000e+02 6.000e+02 6.000e+02 6.000e+02 6.000e+02 6.000e+02 6.000e+02 6.000e+02 6.000e+02 6.000e+02 6.000e+02 6.000e+02 6.000e+02 6.000e+02 6.000e+02 6.000e+02 6.000e+02
           </DataArray>
           <DataArray type="Float32" Name="nitrate/nutrientConcentrationAtTheRootSurface" NumberOfComponents="1" format="ascii">
 3.316e-01 2.832e-01 2.399e-01 1.633e-01 1.308e-01 9.392e-02 5.577e-02 0.000e+00 0.000e+00 3.316e-01 3.703e-01 4.007e-01 4.261e-01 4.530e-01 4.760e-01 4.963e-01 5.113e-01 5.261e-01 5.326e-01
           </DataArray>
           <DataArray type="Float32" Name="nitrate/optimalNutrientConcentration" NumberOfComponents="1" format="ascii">
 1.200e+03 1.200e+03 1.200e+03 1.200e+03 1.200e+03 1.200e+03 1.200e+03 1.200e+03 1.200e+03 1.200e+03 1.200e+03 1.200e+03 1.200e+03 1.200e+03 1.200e+03 1.200e+03 1.200e+03 1.200e+03 1.200e+03
           </DataArray>
           <DataArray type="Float32" Name="nitrate/rootSegmentMinimalNutrientContent" NumberOfComponents="1" format="ascii">
 5.421e+00 4.957e+00 8.309e+00 4.283e+00 4.276e+00 6.406e+00 6.111e+00 6.246e+00 3.970e+00 2.666e-01 2.641e-01 2.619e-01 2.600e-01 2.583e-01 2.569e-01 2.557e-01 2.549e-01 2.542e-01 2.538e-01
           </DataArray>
           <DataArray type="Float32" Name="nitrate/rootSegmentNutrientUptake" NumberOfComponents="1" format="ascii">
 0.000e+00 3.419e-01 2.963e-01 2.205e-01 1.773e-01 1.290e-01 5.320e-02 0.000e+00 0.000e+00 0.000e+00 3.828e-01 3.536e-01 3.229e-01 2.948e-01 2.644e-01 2.240e-01 1.753e-01 1.191e-01 5.596e-02
           </DataArray>
           <DataArray type="Float32" Name="nitrate/rootSegmentOptimalNutrientContent" NumberOfComponents="1" format="ascii">
 1.084e+01 9.915e+00 1.662e+01 8.565e+00 8.553e+00 1.281e+01 1.222e+01 1.249e+01 7.941e+00 5.331e-01 5.282e-01 5.238e-01 5.199e-01 5.166e-01 5.138e-01 5.115e-01 5.097e-01 5.084e-01 5.077e-01
           </DataArray>
           <DataArray type="Float32" Name="parentRootClassID" NumberOfComponents="1" format="ascii">
 -3.000e+00 -3.000e+00 -3.000e+00 -3.000e+00 -3.000e+00 -3.000e+00 -3.000e+00 -3.000e+00 -3.000e+00 -3.000e+00 -3.000e+00 -3.000e+00 -3.000e+00 -3.000e+00 -3.000e+00 -3.000e+00 -3.000e+00 -3.000e+00 -3.000e+00
           </DataArray>
           <DataArray type="Float32" Name="plantID" NumberOfComponents="1" format="ascii">
 4.000e+00 4.000e+00 4.000e+00 4.000e+00 4.000e+00 4.000e+00 4.000e+00 4.000e+00 4.000e+00 4.000e+00 4.000e+00 4.000e+00 4.000e+00 4.000e+00 4.000e+00 4.000e+00 4.000e+00 4.000e+00 4.000e+00
           </DataArray>
           <DataArray type="Float32" Name="plantTypeID" NumberOfComponents="1" format="ascii">
 0.000e+00 0.000e+00 0.000e+00 0.000e+00 0.000e+00 0.000e+00 0.000e+00 0.000e+00 0.000e+00 0.000e+00 0.000e+00 0.000e+00 0.000e+00 0.000e+00 0.000e+00 0.000e+00 0.000e+00 0.000e+00 0.000e+00
           </DataArray>
           <DataArray type="Float32" Name="rootCircumference" NumberOfComponents="1" format="ascii">
 1.269e+00 1.265e+00 1.263e+00 1.261e+00 1.260e+00 1.259e+00 1.258e+00 1.258e+00 1.257e+00 2.898e-01 2.885e-01 2.873e-01 2.862e-01 2.853e-01 2.845e-01 2.839e-01 2.834e-01 2.830e-01 2.828e-01
           </DataArray>
           <DataArray type="Float32" Name="rootClassID" NumberOfComponents="1" format="ascii">
 -2.000e+00 -2.000e+00 -2.000e+00 -2.000e+00 -2.000e+00 -2.000e+00 -2.000e+00 -2.000e+00 -2.000e+00 -4.000e+00 -4.000e+00 -4.000e+00 -4.000e+00 -4.000e+00 -4.000e+00 -4.000e+00 -4.000e+00 -4.000e+00 -4.000e+00
           </DataArray>
           <DataArray type="Float32" Name="rootDiameter" NumberOfComponents="1" format="ascii">
 4.039e-01 4.027e-01 4.021e-01 4.014e-01 4.011e-01 4.009e-01 4.005e-01 4.003e-01 4.001e-01 9.225e-02 9.182e-02 9.144e-02 9.110e-02 9.081e-02 9.056e-02 9.036e-02 9.020e-02 9.009e-02 9.002e-02
           </DataArray>
           <DataArray type="Float32" Name="rootHairDensity" NumberOfComponents="1" format="ascii">
 0.000e+00 0.000e+00 0.000e+00 0.000e+00 0.000e+00 0.000e+00 0.000e+00 0.000e+00 0.000e+00 2.000e+03 2.000e+03 2.000e+03 2.000e+03 2.000e+03 2.000e+03 2.000e+03 2.000e+03 2.000e+03 2.000e+03
           </DataArray>
           <DataArray type="Float32" Name="rootHairDiameter" NumberOfComponents="1" format="ascii">
 5.000e-04 5.000e-04 5.000e-04 5.000e-04 5.000e-04 5.000e-04 5.000e-04 5.000e-04 5.000e-04 5.000e-04 5.000e-04 5.000e-04 5.000e-04 5.000e-04 5.000e-04 5.000e-04 5.000e-04 5.000e-04 5.000e-04
           </DataArray>
           <DataArray type="Float32" Name="rootHairLength" NumberOfComponents="1" format="ascii">
 3.000e-02 3.000e-02 3.000e-02 2.400e-02 1.800e-02 1.200e-02 3.000e-03 0.000e+00 0.000e+00 3.000e-02 3.000e-02 3.000e-02 3.000e-02 2.400e-02 1.500e-02 6.000e-03 0.000e+00 0.000e+00 0.000e+00
           </DataArray>
           <DataArray type="Float32" Name="rootHairSurfaceArea" NumberOfComponents="1" format="ascii">
 0.000e+00 0.000e+00 0.000e+00 0.000e+00 0.000e+00 0.000e+00 0.000e+00 0.000e+00 0.000e+00 9.425e-02 9.425e-02 9.425e-02 9.425e-02 7.540e-02 4.712e-02 1.885e-02 0.000e+00 0.000e+00 0.000e+00
           </DataArray>
           <DataArray type="Float32" Name="rootLength2Base" NumberOfComponents="1" format="ascii">
 0.000e+00 7.500e-01 1.440e+00 2.600e+00 3.200e+00 3.800e+00 4.700e+00 5.560e+00 6.440e+00 0.000e+00 7.071e-01 1.414e+00 2.121e+00 2.828e+00 3.535e+00 4.243e+00 4.950e+00 5.657e+00 6.364e+00
           </DataArray>
           <DataArray type="Float32" Name="rootPotentialSecondaryGrowth" NumberOfComponents="1" format="ascii">
 4.039e-01 4.027e-01 4.021e-01 4.014e-01 4.011e-01 4.009e-01 4.005e-01 4.003e-01 4.001e-01 9.225e-02 9.182e-02 9.144e-02 9.110e-02 9.081e-02 9.056e-02 9.036e-02 9.020e-02 9.009e-02 9.002e-02
           </DataArray>
           <DataArray type="Float32" Name="rootSegmentAge" NumberOfComponents="1" format="ascii">
 3.000e+00 2.500e+00 2.200e+00 1.800e+00 1.600e+00 1.400e+00 1.100e+00 8.000e-01 4.000e-01 3.000e+00 2.700e+00 2.400e+00 2.100e+00 1.800e+00 1.500e+00 1.200e+00 9.000e-01 6.000e-01 3.000e-01
           </DataArray>
           <DataArray type="Float32" Name="rootSegmentCarbonCostOfExudates" NumberOfComponents="1" format="ascii">
 0.000e+00 0.000e+00 0.000e+00 0.000e+00 0.000e+00 0.000e+00 0.000e+00 0.000e+00 0.000e+00 3.343e-05 2.983e-05 2.646e-05 2.305e-05 1.987e-05 1.652e-05 1.317e-05 9.537e-06 5.904e-06 1.984e-06
           </DataArray>
           <DataArray type="Float32" Name="rootSegmentDryWeight" NumberOfComponents="1" format="ascii">
 9.035e-03 8.262e-03 1.385e-02 7.138e-03 7.127e-03 1.068e-02 1.019e-02 1.041e-02 6.617e-03 4.443e-04 4.401e-04 4.365e-04 4.333e-04 4.305e-04 4.281e-04 4.262e-04 4.248e-04 4.237e-04 4.231e-04
           </DataArray>
           <DataArray type="Float32" Name="rootSegmentLength" NumberOfComponents="1" format="ascii">
 7.500e-01 6.900e-01 1.160e+00 6.000e-01 6.000e-01 9.000e-01 8.600e-01 8.800e-01 5.600e-01 7.071e-01 7.071e-01 7.071e-01 7.071e-01 7.071e-01 7.071e-01 7.071e-01 7.071e-01 7.071e-01 7.071e-01
           </DataArray>
           <DataArray type="Float32" Name="rootSegmentLengthDuration" NumberOfComponents="1" format="ascii">
 2.045e+00 1.621e+00 2.315e+00 1.020e+00 9.000e-01 1.130e+00 8.247e-01 5.387e-01 1.227e-01 2.019e+00 1.807e+00 1.595e+00 1.383e+00 1.171e+00 9.585e-01 7.464e-01 5.343e-01 3.221e-01 1.139e-01
           </DataArray>
           <DataArray type="Float32" Name="rootSegmentRespiration" NumberOfComponents="1" format="ascii">
 3.614e-04 3.305e-04 5.539e-04 3.212e-04 3.564e-04 5.872e-04 6.366e-04 7.287e-04 5.294e-04 1.777e-05 1.761e-05 1.746e-05 1.733e-05 1.937e-05 2.248e-05 2.557e-05 2.867e-05 3.178e-05 3.490e-05
           </DataArray>
           <DataArray type="Float32" Name="rootSegmentSecondaryPotentialCarbonSinkForGrowth" NumberOfComponents="1" format="ascii">
 6.642e-05 4.452e-05 5.427e-05 2.022e-05 1.574e-05 1.645e-05 9.113e-06 3.846e-06 3.721e-07 8.705e-06 6.954e-06 5.404e-06 4.053e-06 2.900e-06 1.941e-06 1.176e-06 6.033e-07 2.221e-07 3.172e-08
           </DataArray>
           <DataArray type="Float32" Name="rootSegmentSurfaceArea" NumberOfComponents="1" format="ascii">
 9.518e-01 8.730e-01 1.465e+00 7.567e-01 7.561e-01 1.133e+00 1.082e+00 1.107e+00 7.038e-01 2.049e-01 2.040e-01 2.031e-01 2.024e-01 2.017e-01 2.012e-01 2.007e-01 2.004e-01 2.001e-01 2.000e-01
           </DataArray>
           <DataArray type="Float32" Name="rootSegmentVolume" NumberOfComponents="1" format="ascii">
 9.611e-02 8.790e-02 1.473e-01 7.593e-02 7.582e-02 1.136e-01 1.084e-01 1.107e-01 7.040e-02 4.726e-03 4.682e-03 4.643e-03 4.609e-03 4.580e-03 4.555e-03 4.534e-03 4.519e-03 4.507e-03 4.501e-03
           </DataArray>
           <DataArray type="Float32" Name="rootSegmentWaterUptake" NumberOfComponents="1" format="ascii">
 4.431e-03 4.077e-03 6.853e-03 3.545e-03 3.545e-03 5.317e-03 5.065e-03 0.000e+00 0.000e+00 4.178e-03 4.178e-03 4.178e-03 4.178e-03 4.178e-03 4.178e-03 4.178e-03 4.038e-03 3.351e-03 1.437e-03
           </DataArray>
           <DataArray type="Float32" Name="spatialRootDensity" NumberOfComponents="1" format="ascii">
 3.376e-01 1.688e-01 0.000e+00 0.000e+00 0.000e+00 0.000e+00 0.000e+00 0.000e+00 0.000e+00 3.438e-01 1.790e-01 0.000e+00 0.000e+00 0.000e+00 0.000e+00 0.000e+00 0.000e+00 0.000e+00 0.000e+00
           </DataArray>
           <DataArray type="Float32" Name="volumetricWaterContentAtTheRootSurface" NumberOfComponents="1" format="ascii">
 2.034e-01 2.035e-01 2.036e-01 2.038e-01 2.039e-01 2.041e-01 2.042e-01 0.000e+00 0.000e+00 2.034e-01 2.032e-01 2.031e-01 2.030e-01 2.029e-01 2.028e-01 2.027e-01 2.026e-01 2.024e-01 2.024e-01
           </DataArray>
         </CellData>
      </Piece>
   </UnstructuredGrid>
</VTKFile>
