<?xml version="1.0"?>
<VTKFile type="UnstructuredGrid" version="0.1" byte_order="LittleEndian">
   <UnstructuredGrid>
      <Piece NumberOfPoints="31850" NumberOfCells="2249">
         <Points>
            <DataArray type="Float32" Name="Position" NumberOfComponents="3" format="ascii">
0.118	-5.034	0.085
0.122	-5.037	0.093
0.120	-5.038	0.102
0.113	-5.037	0.109
0.104	-5.036	0.110
0.096	-5.033	0.106
0.093	-5.030	0.098
0.095	-5.029	0.089
0.102	-5.029	0.082
0.110	-5.031	0.081
-0.085	-5.854	-0.081
-0.081	-5.857	-0.073
-0.082	-5.858	-0.064
-0.088	-5.859	-0.057
-0.098	-5.858	-0.056
-0.106	-5.856	-0.059
-0.110	-5.854	-0.067
-0.109	-5.852	-0.076
-0.103	-5.852	-0.083
-0.094	-5.853	-0.085
-0.126	-6.674	-0.250
-0.121	-6.675	-0.241
-0.123	-6.675	-0.232
-0.129	-6.676	-0.225
-0.138	-6.676	-0.224
-0.146	-6.675	-0.228
-0.151	-6.674	-0.236
-0.150	-6.674	-0.245
-0.143	-6.673	-0.252
-0.134	-6.673	-0.253
-0.111	-7.514	-0.211
-0.108	-7.513	-0.203
-0.110	-7.512	-0.194
-0.116	-7.511	-0.188
-0.126	-7.511	-0.187
-0.134	-7.511	-0.191
-0.137	-7.512	-0.200
-0.136	-7.513	-0.209
-0.129	-7.514	-0.215
-0.119	-7.514	-0.216
-0.116	-7.756	-0.168
-0.112	-7.755	-0.160
-0.114	-7.753	-0.151
-0.121	-7.752	-0.145
-0.131	-7.752	-0.144
-0.138	-7.752	-0.149
-0.142	-7.754	-0.158
-0.140	-7.755	-0.167
-0.133	-7.757	-0.172
-0.124	-7.757	-0.173
0.213	-5.099	0.171
0.211	-5.092	0.176
0.207	-5.089	0.184
0.203	-5.092	0.192
0.199	-5.100	0.196
0.199	-5.109	0.195
0.201	-5.116	0.190
0.205	-5.119	0.182
0.210	-5.116	0.175
0.213	-5.108	0.170
0.956	-5.168	0.573
0.954	-5.160	0.578
0.951	-5.158	0.587
0.947	-5.161	0.594
0.943	-5.169	0.598
0.941	-5.178	0.597
0.943	-5.185	0.591
0.946	-5.187	0.583
0.950	-5.184	0.575
0.954	-5.177	0.571
1.695	-5.447	0.894
1.694	-5.440	0.900
1.690	-5.437	0.908
1.685	-5.439	0.915
1.681	-5.446	0.919
1.679	-5.455	0.918
1.680	-5.463	0.913
1.683	-5.466	0.905
1.688	-5.463	0.897
1.692	-5.456	0.893
2.162	-5.561	1.218
2.161	-5.553	1.223
2.157	-5.549	1.230
2.151	-5.551	1.237
2.147	-5.557	1.242
2.145	-5.566	1.242
2.146	-5.574	1.237
2.150	-5.578	1.230
2.156	-5.576	1.223
2.160	-5.570	1.218
0.923	-6.044	0.815
0.921	-6.035	0.818
0.916	-6.030	0.823
0.909	-6.029	0.829
0.904	-6.034	0.834
0.901	-6.043	0.836
0.903	-6.052	0.834
0.908	-6.058	0.829
0.914	-6.058	0.822
0.920	-6.053	0.817
1.525	-6.088	1.454
1.523	-6.079	1.456
1.518	-6.073	1.461
1.511	-6.072	1.467
1.505	-6.077	1.472
1.502	-6.085	1.474
1.504	-6.094	1.472
1.509	-6.100	1.468
1.516	-6.101	1.462
1.522	-6.096	1.456
2.064	-6.107	2.106
2.063	-6.097	2.107
2.058	-6.091	2.111
2.051	-6.089	2.117
2.045	-6.093	2.122
2.041	-6.102	2.124
2.042	-6.111	2.123
2.047	-6.117	2.119
2.054	-6.119	2.113
2.061	-6.115	2.108
2.458	-6.128	2.640
2.458	-6.119	2.641
2.453	-6.112	2.645
2.446	-6.110	2.650
2.439	-6.114	2.655
2.435	-6.122	2.658
2.436	-6.131	2.657
2.440	-6.138	2.653
2.448	-6.140	2.648
2.455	-6.136	2.643
2.420	-19.201	2.319
2.421	-19.194	2.325
2.419	-19.185	2.327
2.415	-19.177	2.323
2.410	-19.174	2.316
2.406	-19.176	2.308
2.405	-19.184	2.302
2.406	-19.193	2.301
2.411	-19.200	2.304
2.416	-19.203	2.311
2.140	-19.276	2.480
2.142	-19.269	2.486
2.140	-19.260	2.488
2.136	-19.252	2.484
2.131	-19.249	2.477
2.127	-19.251	2.469
2.126	-19.258	2.463
2.127	-19.267	2.462
2.131	-19.275	2.465
2.136	-19.278	2.472
2.424	-19.351	2.317
2.426	-19.344	2.323
2.424	-19.335	2.324
2.420	-19.327	2.321
2.415	-19.324	2.314
2.411	-19.326	2.306
2.409	-19.333	2.300
2.411	-19.342	2.298
2.415	-19.350	2.302
2.420	-19.353	2.309
2.101	-19.447	2.507
2.104	-19.439	2.511
2.101	-19.431	2.515
2.094	-19.426	2.517
2.084	-19.426	2.517
2.077	-19.431	2.515
2.074	-19.439	2.511
2.077	-19.447	2.507
2.084	-19.452	2.505
2.093	-19.452	2.505
2.410	-19.481	2.313
2.415	-19.475	2.307
2.423	-19.475	2.302
2.430	-19.480	2.300
2.434	-19.488	2.301
2.434	-19.497	2.305
2.429	-19.502	2.311
2.421	-19.502	2.316
2.414	-19.497	2.318
2.409	-19.489	2.317
2.278	-19.611	2.071
2.283	-19.602	2.071
2.281	-19.593	2.071
2.275	-19.587	2.071
2.265	-19.585	2.071
2.257	-19.589	2.071
2.253	-19.598	2.071
2.254	-19.607	2.071
2.261	-19.613	2.071
2.270	-19.615	2.071
2.433	-19.651	2.314
2.432	-19.645	2.321
2.429	-19.636	2.323
2.425	-19.628	2.319
2.422	-19.625	2.311
2.420	-19.626	2.302
2.421	-19.632	2.296
2.424	-19.641	2.294
2.428	-19.649	2.297
2.432	-19.652	2.305
2.198	-19.749	2.371
2.197	-19.743	2.378
2.194	-19.734	2.380
2.190	-19.727	2.376
2.186	-19.723	2.368
2.185	-19.725	2.359
2.186	-19.731	2.352
2.189	-19.739	2.350
2.193	-19.747	2.354
2.196	-19.751	2.362
2.443	-19.797	2.304
2.446	-19.789	2.306
2.444	-19.780	2.309
2.436	-19.775	2.311
2.427	-19.775	2.311
2.419	-19.780	2.310
2.416	-19.788	2.308
2.419	-19.797	2.306
2.426	-19.802	2.304
2.435	-19.802	2.303
2.459	-19.869	2.573
2.462	-19.861	2.575
2.460	-19.852	2.577
2.452	-19.847	2.579
2.443	-19.846	2.580
2.435	-19.851	2.579
2.432	-19.860	2.577
2.435	-19.868	2.574
2.442	-19.874	2.572
2.451	-19.874	2.572
2.440	-19.950	2.315
2.439	-19.943	2.321
2.437	-19.934	2.321
2.435	-19.927	2.316
2.433	-19.924	2.308
2.432	-19.926	2.299
2.432	-19.934	2.293
2.434	-19.943	2.292
2.437	-19.950	2.297
2.439	-19.953	2.306
2.176	-20.007	2.358
2.175	-20.000	2.364
2.173	-19.991	2.364
2.171	-19.984	2.359
2.169	-19.981	2.351
2.168	-19.983	2.342
2.169	-19.991	2.336
2.170	-20.000	2.336
2.173	-20.007	2.341
2.175	-20.010	2.349
2.440	-20.078	2.295
2.441	-20.074	2.303
2.441	-20.075	2.313
2.440	-20.081	2.320
2.439	-20.090	2.322
2.437	-20.098	2.318
2.437	-20.103	2.310
2.437	-20.102	2.301
2.437	-20.096	2.294
2.439	-20.087	2.292
2.694	-20.117	2.291
2.694	-20.112	2.299
2.694	-20.113	2.309
2.694	-20.119	2.316
2.692	-20.128	2.318
2.691	-20.137	2.314
2.690	-20.141	2.306
2.690	-20.140	2.297
2.691	-20.134	2.290
2.692	-20.125	2.288
2.454	-20.246	2.302
2.457	-20.238	2.305
2.454	-20.230	2.308
2.446	-20.225	2.311
2.437	-20.225	2.312
2.430	-20.230	2.311
2.427	-20.239	2.308
2.430	-20.247	2.305
2.437	-20.252	2.302
2.446	-20.252	2.301
2.472	-20.309	2.474
2.475	-20.300	2.477
2.472	-20.292	2.480
2.464	-20.287	2.483
2.455	-20.288	2.484
2.448	-20.293	2.483
2.445	-20.301	2.480
2.447	-20.309	2.477
2.455	-20.314	2.474
2.464	-20.314	2.473
2.443	-20.397	2.319
2.438	-20.389	2.321
2.437	-20.381	2.317
2.438	-20.375	2.310
2.443	-20.375	2.302
2.448	-20.379	2.296
2.452	-20.387	2.294
2.454	-20.396	2.298
2.453	-20.401	2.305
2.448	-20.402	2.313
2.300	-20.448	2.242
2.309	-20.448	2.246
2.318	-20.448	2.245
2.324	-20.448	2.238
2.326	-20.448	2.229
2.322	-20.448	2.221
2.313	-20.448	2.217
2.304	-20.448	2.218
2.298	-20.448	2.225
2.296	-20.448	2.234
2.460	-20.537	2.299
2.459	-20.529	2.303
2.454	-20.524	2.310
2.448	-20.525	2.317
2.442	-20.530	2.321
2.440	-20.539	2.322
2.441	-20.548	2.318
2.445	-20.552	2.311
2.451	-20.552	2.304
2.457	-20.546	2.300
2.546	-20.566	2.414
2.554	-20.566	2.418
2.563	-20.566	2.417
2.570	-20.566	2.410
2.571	-20.566	2.401
2.567	-20.566	2.393
2.559	-20.566	2.389
2.550	-20.566	2.390
2.543	-20.566	2.397
2.542	-20.566	2.406
0.979	-6.163	0.870
0.985	-6.167	0.875
0.987	-6.172	0.882
0.983	-6.176	0.890
0.975	-6.177	0.895
0.966	-6.175	0.895
0.960	-6.170	0.890
0.958	-6.165	0.882
0.962	-6.162	0.875
0.970	-6.161	0.870
0.817	-6.867	0.446
0.823	-6.872	0.452
0.823	-6.876	0.461
0.818	-6.878	0.468
0.810	-6.878	0.472
0.801	-6.875	0.470
0.795	-6.871	0.465
0.795	-6.867	0.456
0.800	-6.865	0.449
0.808	-6.865	0.445
0.632	-7.683	0.137
0.636	-7.687	0.144
0.634	-7.689	0.153
0.628	-7.689	0.160
0.619	-7.687	0.162
0.611	-7.684	0.158
0.607	-7.681	0.151
0.608	-7.679	0.142
0.615	-7.679	0.135
0.624	-7.680	0.133
0.437	-8.413	0.004
0.441	-8.415	0.012
0.439	-8.416	0.021
0.432	-8.415	0.027
0.423	-8.413	0.028
0.415	-8.410	0.024
0.412	-8.408	0.015
0.414	-8.407	0.006
0.421	-8.407	0.000
0.430	-8.410	-0.001
2.450	-20.676	2.305
2.457	-20.673	2.311
2.462	-20.676	2.318
2.465	-20.684	2.323
2.463	-20.693	2.324
2.458	-20.700	2.321
2.451	-20.703	2.315
2.446	-20.700	2.309
2.443	-20.692	2.304
2.445	-20.683	2.303
2.534	-20.703	2.223
2.540	-20.700	2.229
2.546	-20.703	2.235
2.549	-20.711	2.240
2.547	-20.720	2.242
2.542	-20.727	2.239
2.535	-20.730	2.233
2.530	-20.727	2.226
2.527	-20.719	2.221
2.529	-20.710	2.220
2.445	-20.827	2.318
2.453	-20.824	2.315
2.462	-20.826	2.313
2.468	-20.832	2.313
2.470	-20.841	2.315
2.466	-20.849	2.319
2.459	-20.852	2.322
2.450	-20.850	2.325
2.443	-20.844	2.325
2.442	-20.835	2.322
2.422	-20.851	2.247
2.430	-20.847	2.243
2.439	-20.849	2.241
2.445	-20.856	2.241
2.447	-20.865	2.244
2.443	-20.872	2.247
2.435	-20.876	2.251
2.427	-20.874	2.253
2.420	-20.867	2.253
2.418	-20.859	2.251
2.463	-21.000	2.331
2.462	-20.993	2.337
2.460	-20.985	2.339
2.456	-20.977	2.335
2.453	-20.974	2.327
2.451	-20.976	2.318
2.452	-20.982	2.311
2.454	-20.991	2.310
2.458	-20.999	2.314
2.461	-21.002	2.322
2.379	-21.017	2.338
2.383	-21.017	2.346
2.381	-21.017	2.355
2.375	-21.017	2.362
2.366	-21.017	2.363
2.357	-21.017	2.359
2.353	-21.017	2.350
2.355	-21.017	2.341
2.361	-21.017	2.335
2.370	-21.017	2.333
2.457	-21.148	2.341
2.454	-21.140	2.344
2.452	-21.131	2.342
2.453	-21.125	2.335
2.455	-21.123	2.326
2.459	-21.128	2.319
2.463	-21.136	2.316
2.464	-21.144	2.318
2.464	-21.151	2.325
2.461	-21.152	2.333
2.398	-21.152	2.323
2.406	-21.152	2.327
2.415	-21.152	2.325
2.422	-21.152	2.319
2.423	-21.152	2.310
2.419	-21.152	2.301
2.411	-21.152	2.297
2.402	-21.152	2.299
2.395	-21.152	2.305
2.394	-21.152	2.314
2.450	-21.276	2.326
2.459	-21.273	2.329
2.467	-21.276	2.332
2.472	-21.284	2.335
2.471	-21.293	2.337
2.465	-21.300	2.336
2.456	-21.302	2.334
2.448	-21.299	2.331
2.444	-21.292	2.328
2.445	-21.283	2.326
2.464	-21.285	2.285
2.472	-21.282	2.287
2.480	-21.285	2.291
2.485	-21.293	2.294
2.484	-21.302	2.295
2.478	-21.309	2.295
2.469	-21.312	2.293
2.461	-21.308	2.290
2.457	-21.301	2.287
2.458	-21.292	2.285
2.467	-21.449	2.334
2.471	-21.441	2.337
2.470	-21.432	2.339
2.464	-21.425	2.338
2.455	-21.423	2.336
2.447	-21.427	2.332
2.443	-21.434	2.329
2.445	-21.443	2.327
2.451	-21.450	2.328
2.459	-21.452	2.330
2.464	-21.451	2.344
2.467	-21.443	2.348
2.466	-21.434	2.349
2.460	-21.428	2.349
2.451	-21.425	2.346
2.443	-21.429	2.342
2.440	-21.437	2.339
2.441	-21.446	2.337
2.447	-21.453	2.338
2.456	-21.455	2.341
[...]
         <CellData>
           <DataArray type="Float32" Name="combinedRootClassID" NumberOfComponents="1" format="ascii">
 -1.300e+01 -1.300e+01 -1.300e+01 -1.300e+01 -1.300e+01 -1.300e+01 -1.300e+01 -1.300e+01 -1.300e+01 -1.300e+01 -1.300e+01 -1.300e+01 -1.300e+01 -1.300e+01 -1.300e+01 -1.300e+01 -1.300e+01 -1.300e+01 -1.300e+01 -1.300e+01 -1.300e+01 -1.300e+01 -1.300e+01 -1.300e+01 -1.300e+01 -1.300e+01 -1.300e+01 -1.300e+01 -1.300e+01 -1.300e+01 -1.300e+01 -1.300e+01 -1.300e+01 -1.300e+01 -1.300e+01 -1.300e+01 -1.300e+01 -1.300e+01 -1.300e+01 -1.300e+01 -1.300e+01 -1.300e+01 -1.300e+01 -1.300e+01 -1.300e+01 -1.300e+01 -1.300e+01 -1.300e+01 -1.300e+01 -1.300e+01 -1.300e+01 -1.300e+01 -1.300e+01 -1.300e+01 -1.300e+01 -1.300e+01 -1.300e+01 -1.300e+01 -1.300e+01 -1.300e+01 -1.300e+01 -1.300e+01 -1.300e+01 -1.300e+01 -1.300e+01 -1.300e+01 -1.300e+01 -1.300e+01 -1.300e+01 -1.300e+01 -1.300e+01 -1.300e+01 -1.300e+01 -1.300e+01 -1.300e+01 -1.300e+01 -1.300e+01 -1.300e+01 -1.300e+01 -1.300e+01 -1.300e+01 -1.300e+01 -1.300e+01 -1.300e+01 -1.300e+01 -1.300e+01 -1.300e+01 -1.300e+01 -1.300e+01 -1.300e+01 -1.300e+01 -1.300e+01 -1.300e+01 -1.300e+01 -1.300e+01 -1.300e+01 -1.300e+01 -1.300e+01 -1.300e+01 -1.300e+01 -1.300e+01 -1.300e+01 -1.300e+01 -1.300e+01 -1.300e+01 -1.300e+01 -1.300e+01 -1.300e+01 -1.300e+01 -1.300e+01 -1.300e+01 -1.300e+01 -1.300e+01 -1.300e+01 -1.300e+01 -1.300e+01 -1.300e+01 -1.300e+01 -1.300e+01 -1.300e+01 -1.300e+01 -1.300e+01 -1.300e+01 -1.300e+01 -1.300e+01 -1.300e+01 -1.300e+01 -1.300e+01 -1.300e+01 -1.300e+01 -1.300e+01 -1.300e+01 -1.300e+01 -1.300e+01 -1.300e+01 -1.300e+01 -1.300e+01 -1.300e+01 -1.300e+01 -1.300e+01 -1.300e+01 -1.300e+01 -1.300e+01 -1.300e+01 -1.300e+01 -1.300e+01 -1.300e+01 -1.300e+01 -1.300e+01 -1.300e+01 -1.300e+01 -1.300e+01 -1.300e+01 -1.300e+01 -1.300e+01 -1.300e+01 -1.300e+01 -1.300e+01 -1.300e+01 -1.300e+01 -1.300e+01 -1.300e+01 -1.300e+01 -1.300e+01 -1.300e+01 -1.300e+01 -1.300e+01 -1.300e+01 -1.300e+01 -1.300e+01 -1.300e+01 -1.300e+01 -1.300e+01 -1.300e+01 -1.300e+01 -1.300e+01 -1.300e+01 -1.300e+01 -1.300e+01 -1.300e+01 -1.300e+01 -1.300e+01 -1.300e+01 -1.300e+01 -1.300e+01 -1.300e+01 -1.300e+01 -1.300e+01 -1.300e+01 -1.300e+01 -1.300e+01 -1.300e+01 -1.300e+01 -1.300e+01 -1.300e+01 -1.300e+01 -1.300e+01 -1.300e+01 -1.300e+01 -1.300e+01 -1.300e+01 -1.300e+01 -1.300e+01 -1.300e+01 -1.300e+01 -1.300e+01 -1.300e+01 -1.300e+01 -1.300e+01 -1.300e+01 -1.300e+01 -1.300e+01 -1.300e+01 -1.300e+01 -1.300e+01 -1.300e+01 -1.300e+01 -1.300e+01 -1.300e+01 -1.300e+01 -1.300e+01 -1.300e+01 -1.300e+01 -1.300e+01 -1.300e+01 -1.300e+01 -1.300e+01 -1.300e+01 -1.300e+01 -1.300e+01 -1.300e+01 -1.300e+01 -1.300e+01 -1.300e+01 -1.300e+01 -1.300e+01 -1.300e+01 -1.300e+01 -5.000e+00 -5.000e+00 -5.000e+00 -5.000e+00 -5.000e+00 -5.000e+00 -5.000e+00 -5.000e+00 -5.000e+00 -5.000e+00 -5.000e+00 -5.000e+00 -5.000e+00 -5.000e+00 -5.000e+00 -5.000e+00 -5.000e+00 -5.000e+00 -5.000e+00 -5.000e+00 -5.000e+00 -5.000e+00 -5.000e+00 -5.000e+00 -5.000e+00 -5.000e+00 -5.000e+00 -5.000e+00 -5.000e+00 -5.000e+00 -5.000e+00 -5.000e+00 -5.000e+00 -1.300e+01 -1.300e+01 -1.300e+01 -1.300e+01 -1.300e+01 -1.300e+01 -1.300e+01 -1.300e+01 -1.300e+01 -1.300e+01 -1.300e+01 -1.300e+01 -1.300e+01 -1.300e+01 -1.300e+01 -1.300e+01 -1.300e+01 -1.300e+01 -1.300e+01 -1.300e+01 -1.300e+01 -1.300e+01 -1.300e+01 -1.300e+01 -1.300e+01 -1.300e+01 -1.300e+01 -1.300e+01 -1.300e+01 -1.300e+01 -1.300e+01 -1.300e+01 -1.300e+01 -1.300e+01 -1.300e+01 -1.300e+01 -1.300e+01 -1.300e+01 -1.300e+01 -1.300e+01 -1.300e+01 -1.300e+01 -1.300e+01 -1.300e+01 -1.300e+01 -1.300e+01 -1.300e+01 -1.300e+01 -1.300e+01 -1.300e+01 -1.300e+01 -1.300e+01 -1.300e+01 -1.300e+01 -1.300e+01 -1.300e+01 -1.300e+01 -1.300e+01 -1.300e+01 -1.300e+01 -1.300e+01 -1.300e+01 -1.300e+01 -1.300e+01 -1.300e+01 -1.300e+01 -1.300e+01 -1.300e+01 -1.300e+01 -1.300e+01 -1.300e+01 -1.300e+01 -1.300e+01 -1.300e+01 -1.300e+01 -1.300e+01 -1.300e+01 -1.300e+01 -1.300e+01 -1.300e+01 -1.300e+01 -1.300e+01 -1.300e+01 -1.300e+01 -1.300e+01 -1.300e+01 -1.300e+01 -1.300e+01 -1.300e+01 -1.300e+01 -1.300e+01 -1.300e+01 -1.300e+01 -1.300e+01 -1.300e+01 -1.300e+01 -1.300e+01 -1.300e+01 -1.300e+01 -1.300e+01 -1.300e+01 -1.300e+01 -1.300e+01 -1.300e+01 -1.300e+01 -1.300e+01 -1.300e+01 -1.300e+01 -1.300e+01 -1.300e+01 -1.300e+01 -1.300e+01 -1.300e+01 -1.300e+01 -1.300e+01 -1.300e+01 -1.300e+01 -1.300e+01 -1.300e+01 -1.300e+01 -1.300e+01 -1.300e+01 -1.300e+01 -1.300e+01 -1.300e+01 -1.300e+01 -1.300e+01 -1.300e+01 -1.300e+01 -1.300e+01 -1.300e+01 -1.300e+01 -1.300e+01 -1.300e+01 -1.300e+01 -1.300e+01 -1.300e+01 -1.300e+01 -1.300e+01 -1.300e+01 -1.300e+01 -1.300e+01 -1.300e+01 -1.300e+01 -1.300e+01 -1.300e+01 -1.300e+01 -1.300e+01 -1.300e+01 -1.300e+01 -1.300e+01 -1.300e+01 -1.300e+01 -1.300e+01 -1.300e+01 -1.300e+01 -1.300e+01 -1.300e+01 -1.300e+01 -1.300e+01 -1.300e+01 -1.300e+01 -1.300e+01 -1.300e+01 -1.300e+01 -1.300e+01 -1.300e+01 -1.300e+01 -1.300e+01 -1.300e+01 -1.300e+01 -1.300e+01 -1.300e+01 -1.300e+01 -1.300e+01 -1.300e+01 -1.300e+01 -1.300e+01 -1.300e+01 -1.300e+01 -1.300e+01 -1.300e+01 -1.300e+01 -1.300e+01 -1.300e+01 -1.300e+01 -1.300e+01 -1.300e+01 -1.300e+01 -1.300e+01 -1.300e+01 -1.300e+01 -1.300e+01 -1.300e+01 -1.300e+01 -1.300e+01 -1.300e+01 -1.300e+01 -1.300e+01 -1.300e+01 -1.300e+01 -1.300e+01 -1.300e+01 -1.300e+01 -1.300e+01 -1.300e+01 -1.300e+01 -1.300e+01 -1.300e+01 -1.300e+01 -1.300e+01 -1.300e+01 -1.300e+01 -1.300e+01 -1.300e+01 -1.300e+01 -1.300e+01 -1.300e+01 -1.300e+01 -1.300e+01 -1.300e+01 -1.300e+01 -1.300e+01 -1.300e+01 -1.300e+01 -1.300e+01 -1.300e+01 -1.300e+01 -1.300e+01 -1.300e+01 -5.000e+00 -5.000e+00 -5.000e+00 -5.000e+00 -5.000e+00 -5.000e+00 -5.000e+00 -5.000e+00 -5.000e+00 -5.000e+00 -5.000e+00 -5.000e+00 -5.000e+00 -5.000e+00 -5.000e+00 -5.000e+00 -5.000e+00 -5.000e+00 -5.000e+00 -5.000e+00 -5.000e+00 -5.000e+00 -5.000e+00 -5.000e+00 -5.000e+00 -5.000e+00 -5.000e+00 -5.000e+00 -5.000e+00 -5.000e+00 -5.000e+00 -5.000e+00 -5.000e+00 -1.300e+01 -1.300e+01 -1.300e+01 -1.300e+01 -1.300e+01 -1.300e+01 -1.300e+01 -1.300e+01 -1.300e+01 -1.300e+01 -1.300e+01 -1.300e+01 -1.300e+01 -1.300e+01 -1.300e+01 -1.300e+01 -1.300e+01 -1.300e+01 -1.300e+01 -1.300e+01 -1.300e+01 -1.300e+01 -1.300e+01 -1.300e+01 -1.300e+01 -1.300e+01 -1.300e+01 -1.300e+01 -1.300e+01 -1.300e+01 -1.300e+01 -1.300e+01 -1.300e+01 -1.300e+01 -1.300e+01 -1.300e+01 -1.300e+01 -1.300e+01 -1.300e+01 -1.300e+01 -1.300e+01 -1.300e+01 -1.300e+01 -1.300e+01 -1.300e+01 -1.300e+01 -1.300e+01 -1.300e+01 -1.300e+01 -1.300e+01 -1.300e+01 -1.300e+01 -1.300e+01 -1.300e+01 -1.300e+01 -1.300e+01 -1.300e+01 -1.300e+01 -1.300e+01 -1.300e+01 -1.300e+01 -1.300e+01 -1.300e+01 -1.300e+01 -1.300e+01 -1.300e+01 -1.300e+01 -1.300e+01 -1.300e+01 -1.300e+01 -1.300e+01 -1.300e+01 -1.300e+01 -1.300e+01 -1.300e+01 -1.300e+01 -1.300e+01 -1.300e+01 -1.300e+01 -1.300e+01 -1.300e+01 -1.300e+01 -1.300e+01 -1.300e+01 -1.300e+01 -1.300e+01 -1.300e+01 -1.300e+01 -1.300e+01 -1.300e+01 -1.300e+01 -1.300e+01 -1.300e+01 -1.300e+01 -1.300e+01 -1.300e+01 -1.300e+01 -1.300e+01 -1.300e+01 -1.300e+01 -1.300e+01 -1.300e+01 -1.300e+01 -1.300e+01 -1.300e+01 -1.300e+01 -1.300e+01 -1.300e+01 -1.300e+01 -1.300e+01 -1.300e+01 -1.300e+01 -1.300e+01 -1.300e+01 -1.300e+01 -1.300e+01 -1.300e+01 -1.300e+01 -1.300e+01 -1.300e+01 -1.300e+01 -1.300e+01 -1.300e+01 -1.300e+01 -1.300e+01 -1.300e+01 -1.300e+01 -1.300e+01 -1.300e+01 -1.300e+01 -1.300e+01 -1.300e+01 -1.300e+01 -1.300e+01 -1.300e+01 -1.300e+01 -1.300e+01 -1.300e+01 -1.300e+01 -1.300e+01 -1.300e+01 -1.300e+01 -1.300e+01 -1.300e+01 -1.300e+01 -1.300e+01 -1.300e+01 -1.300e+01 -1.300e+01 -1.300e+01 -1.300e+01 -1.300e+01 -1.300e+01 -1.300e+01 -1.300e+01 -1.300e+01 -1.300e+01 -1.300e+01 -1.300e+01 -1.300e+01 -1.300e+01 -1.300e+01 -1.300e+01 -1.300e+01 -1.300e+01 -1.300e+01 -1.300e+01 -1.300e+01 -1.300e+01 -1.300e+01 -1.300e+01 -1.300e+01 -1.300e+01 -1.300e+01 -1.300e+01 -1.300e+01 -1.300e+01 -1.300e+01 -1.300e+01 -1.300e+01 -1.300e+01 -1.300e+01 -1.300e+01 -1.300e+01 -1.300e+01 -1.300e+01 -1.300e+01 -1.300e+01 -1.300e+01 -1.300e+01 -1.300e+01 -1.300e+01 -1.300e+01 -1.300e+01 -1.300e+01 -1.300e+01 -1.300e+01 -1.300e+01 -1.300e+01 -1.300e+01 -1.300e+01 -1.300e+01 -1.300e+01 -1.300e+01 -1.300e+01 -1.300e+01 -1.300e+01 -1.300e+01 -1.300e+01 -1.300e+01 -1.300e+01 -1.300e+01 -1.300e+01 -1.300e+01 -1.300e+01 -1.300e+01 -1.300e+01 -1.300e+01 -1.300e+01 -1.300e+01 -1.300e+01 -1.300e+01 -1.300e+01 -1.300e+01 -1.300e+01 -1.300e+01 -1.300e+01 -1.300e+01 -1.300e+01 -1.300e+01 -1.300e+01 -1.300e+01 -1.300e+01 -1.300e+01 -1.300e+01 -1.300e+01 -1.300e+01 -1.300e+01 -1.300e+01 -1.300e+01 -1.300e+01 -5.000e+00 -5.000e+00 -5.000e+00 -5.000e+00 -5.000e+00 -5.000e+00 -5.000e+00 -5.000e+00 -5.000e+00 -5.000e+00 -5.000e+00 -5.000e+00 -5.000e+00 -5.000e+00 -5.000e+00 -5.000e+00 -5.000e+00 -5.000e+00 -5.000e+00 -5.000e+00 -5.000e+00 -5.000e+00 -5.000e+00 -5.000e+00 -5.000e+00 -5.000e+00 -5.000e+00 -5.000e+00 -5.000e+00 -5.000e+00 -5.000e+00 -5.000e+00 -5.000e+00 -1.300e+01 -1.300e+01 -1.300e+01 -1.300e+01 -1.300e+01 -1.300e+01 -1.300e+01 -1.300e+01 -1.300e+01 -1.300e+01 -1.300e+01 -1.300e+01 -1.300e+01 -1.300e+01 -1.300e+01 -1.300e+01 -1.300e+01 -1.300e+01 -1.300e+01 -1.300e+01 -1.300e+01 -1.300e+01 -1.300e+01 -1.300e+01 -1.300e+01 -1.300e+01 -1.300e+01 -1.300e+01 -1.300e+01 -1.300e+01 -1.300e+01 -1.300e+01 -1.300e+01 -1.300e+01 -1.300e+01 -1.300e+01 -1.300e+01 -1.300e+01 -1.300e+01 -1.300e+01 -1.300e+01 -1.300e+01 -1.300e+01 -1.300e+01 -1.300e+01 -1.300e+01 -1.300e+01 -1.300e+01 -1.300e+01 -1.300e+01 -1.300e+01 -1.300e+01 -1.300e+01 -1.300e+01 -1.300e+01 -1.300e+01 -1.300e+01 -1.300e+01 -1.300e+01 -1.300e+01 -1.300e+01 -1.300e+01 -1.300e+01 -1.300e+01 -1.300e+01 -1.300e+01 -1.300e+01 -1.300e+01 -1.300e+01 -1.300e+01 -1.300e+01 -1.300e+01 -1.300e+01 -1.300e+01 -1.300e+01 -1.300e+01 -1.300e+01 -1.300e+01 -1.300e+01 -1.300e+01 -1.300e+01 -1.300e+01 -1.300e+01 -1.300e+01 -1.300e+01 -1.300e+01 -1.300e+01 -1.300e+01 -1.300e+01 -1.300e+01 -1.300e+01 -1.300e+01 -1.300e+01 -1.300e+01 -1.300e+01 -1.300e+01 -1.300e+01 -1.300e+01 -1.300e+01 -1.300e+01 -1.300e+01 -1.300e+01 -1.300e+01 -1.300e+01 -1.300e+01 -1.300e+01 -1.300e+01 -1.300e+01 -1.300e+01 -1.300e+01 -1.300e+01 -1.300e+01 -1.300e+01 -1.300e+01 -1.300e+01 -1.300e+01 -1.300e+01 -1.300e+01 -1.300e+01 -1.300e+01 -1.300e+01 -1.300e+01 -1.300e+01 -1.300e+01 -1.300e+01 -1.300e+01 -1.300e+01 -1.300e+01 -1.300e+01 -1.300e+01 -1.300e+01 -1.300e+01 -1.300e+01 -1.300e+01 -1.300e+01 -1.300e+01 -1.300e+01 -1.300e+01 -1.300e+01 -1.300e+01 -1.300e+01 -1.300e+01 -1.300e+01 -1.300e+01 -1.300e+01 -1.300e+01 -1.300e+01 -1.300e+01 -1.300e+01 -1.300e+01 -1.300e+01 -1.300e+01 -1.300e+01 -1.300e+01 -1.300e+01 -1.300e+01 -1.300e+01 -1.300e+01 -1.300e+01 -1.300e+01 -1.300e+01 -1.300e+01 -1.300e+01 -1.300e+01 -1.300e+01 -1.300e+01 -1.300e+01 -1.300e+01 -1.300e+01 -1.300e+01 -1.300e+01 -1.300e+01 -1.300e+01 -1.300e+01 -1.300e+01 -1.300e+01 -1.300e+01 -1.300e+01 -1.300e+01 -1.300e+01 -1.300e+01 -1.300e+01 -1.300e+01 -1.300e+01 -1.300e+01 -1.300e+01 -1.300e+01 -1.300e+01 -1.300e+01 -1.300e+01 -1.300e+01 -1.300e+01 -1.300e+01 -1.300e+01 -1.300e+01 -1.300e+01 -1.300e+01 -1.300e+01 -1.300e+01 -1.300e+01 -1.300e+01 -1.300e+01 -1.300e+01 -1.300e+01 -1.300e+01 -1.300e+01 -1.300e+01 -1.300e+01 -1.300e+01 -1.300e+01 -1.300e+01 -1.300e+01 -1.300e+01 -1.300e+01 -1.300e+01 -1.300e+01 -1.300e+01 -1.300e+01 -1.300e+01 -1.300e+01 -1.300e+01 -1.300e+01 -1.300e+01 -1.300e+01 -1.300e+01 -1.300e+01 -1.300e+01 -1.300e+01 -1.300e+01 -1.300e+01 -1.300e+01 -1.300e+01 -1.300e+01 -1.300e+01 -1.300e+01 -1.300e+01 -1.300e+01 -1.300e+01 -5.000e+00 -5.000e+00 -5.000e+00 -5.000e+00 -5.000e+00 -5.000e+00 -5.000e+00 -5.000e+00 -5.000e+00 -5.000e+00 -5.000e+00 -5.000e+00 -5.000e+00 -5.000e+00 -5.000e+00 -5.000e+00 -5.000e+00 -5.000e+00 -5.000e+00 -5.000e+00 -5.000e+00 -5.000e+00 -5.000e+00 -5.000e+00 -5.000e+00 -5.000e+00 -5.000e+00 -5.000e+00 -5.000e+00 -5.000e+00 -5.000e+00 -5.000e+00 -5.000e+00 -1.700e+01 -1.700e+01 -1.700e+01 -1.700e+01 -1.700e+01 -1.700e+01 -1.700e+01 -1.700e+01 -1.700e+01 -1.700e+01 -1.700e+01 -1.700e+01 -1.700e+01 -1.700e+01 -1.700e+01 -1.700e+01 -1.700e+01 -1.700e+01 -1.700e+01 -1.700e+01 -1.700e+01 -1.700e+01 -1.700e+01 -1.700e+01 -1.700e+01 -1.700e+01 -1.700e+01 -1.700e+01 -1.700e+01 -1.700e+01 -1.700e+01 -1.700e+01 -1.700e+01 -1.700e+01 -1.700e+01 -1.700e+01 -1.700e+01 -1.700e+01 -1.700e+01 -1.700e+01 -1.700e+01 -1.700e+01 -1.700e+01 -1.700e+01 -1.700e+01 -1.700e+01 -1.700e+01 -1.700e+01 -1.700e+01 -1.700e+01 -1.700e+01 -1.700e+01 -1.700e+01 -1.700e+01 -1.700e+01 -9.000e+00 -9.000e+00 -9.000e+00 -9.000e+00 -9.000e+00 -9.000e+00 -9.000e+00 -9.000e+00 -9.000e+00 -9.000e+00 -9.000e+00 -9.000e+00 -9.000e+00 -9.000e+00 -9.000e+00 -9.000e+00 -9.000e+00 -9.000e+00 -9.000e+00 -9.000e+00 -9.000e+00 -9.000e+00 -1.700e+01 -1.700e+01 -1.700e+01 -1.700e+01 -1.700e+01 -1.700e+01 -1.700e+01 -1.700e+01 -1.700e+01 -1.700e+01 -1.700e+01 -1.700e+01 -1.700e+01 -1.700e+01 -1.700e+01 -1.700e+01 -1.700e+01 -1.700e+01 -1.700e+01 -1.700e+01 -1.700e+01 -1.700e+01 -1.700e+01 -1.700e+01 -1.700e+01 -1.700e+01 -1.700e+01 -1.700e+01 -1.700e+01 -1.700e+01 -1.700e+01 -1.700e+01 -1.700e+01 -1.700e+01 -1.700e+01 -1.700e+01 -1.700e+01 -1.700e+01 -1.700e+01 -1.700e+01 -1.700e+01 -1.700e+01 -1.700e+01 -1.700e+01 -1.700e+01 -1.700e+01 -1.700e+01 -1.700e+01 -1.700e+01 -1.700e+01 -1.700e+01 -1.700e+01 -1.700e+01 -1.700e+01 -1.700e+01 -1.700e+01 -1.700e+01 -9.000e+00 -9.000e+00 -9.000e+00 -9.000e+00 -9.000e+00 -9.000e+00 -9.000e+00 -9.000e+00 -9.000e+00 -9.000e+00 -9.000e+00 -9.000e+00 -9.000e+00 -9.000e+00 -9.000e+00 -9.000e+00 -9.000e+00 -9.000e+00 -9.000e+00 -9.000e+00 -9.000e+00 -9.000e+00 -1.700e+01 -1.700e+01 -1.700e+01 -1.700e+01 -1.700e+01 -1.700e+01 -1.700e+01 -1.700e+01 -1.700e+01 -1.700e+01 -1.700e+01 -1.700e+01 -1.700e+01 -1.700e+01 -1.700e+01 -1.700e+01 -1.700e+01 -1.700e+01 -1.700e+01 -1.700e+01 -1.700e+01 -1.700e+01 -1.700e+01 -1.700e+01 -1.700e+01 -1.700e+01 -1.700e+01 -1.700e+01 -1.700e+01 -1.700e+01 -1.700e+01 -1.700e+01 -1.700e+01 -1.700e+01 -1.700e+01 -1.700e+01 -1.700e+01 -1.700e+01 -1.700e+01 -1.700e+01 -1.700e+01 -1.700e+01 -1.700e+01 -1.700e+01 -1.700e+01 -1.700e+01 -1.700e+01 -1.700e+01 -1.700e+01 -1.700e+01 -1.700e+01 -1.700e+01 -1.700e+01 -1.700e+01 -1.700e+01 -1.700e+01 -9.000e+00 -9.000e+00 -9.000e+00 -9.000e+00 -9.000e+00 -9.000e+00 -9.000e+00 -9.000e+00 -9.000e+00 -9.000e+00 -9.000e+00 -9.000e+00 -9.000e+00 -9.000e+00 -9.000e+00 -9.000e+00 -9.000e+00 -9.000e+00 -9.000e+00 -9.000e+00 -9.000e+00 -9.000e+00 -1.700e+01 -1.700e+01 -1.700e+01 -1.700e+01 -1.700e+01 -1.700e+01 -1.700e+01 -1.700e+01 -1.700e+01 -1.700e+01 -1.700e+01 -1.700e+01 -1.700e+01 -1.700e+01 -1.700e+01 -1.700e+01 -1.700e+01 -1.700e+01 -1.700e+01 -1.700e+01 -1.700e+01 -1.700e+01 -1.700e+01 -1.700e+01 -1.700e+01 -1.700e+01 -1.700e+01 -1.700e+01 -1.700e+01 -1.700e+01 -1.700e+01 -1.700e+01 -1.700e+01 -1.700e+01 -1.700e+01 -1.700e+01 -1.700e+01 -1.700e+01 -1.700e+01 -1.700e+01 -1.700e+01 -1.700e+01 -1.700e+01 -1.700e+01 -1.700e+01 -1.700e+01 -1.700e+01 -1.700e+01 -1.700e+01 -1.700e+01 -1.700e+01 -1.700e+01 -1.700e+01 -1.700e+01 -9.000e+00 -9.000e+00 -9.000e+00 -9.000e+00 -9.000e+00 -9.000e+00 -9.000e+00 -9.000e+00 -9.000e+00 -9.000e+00 -9.000e+00 -9.000e+00 -9.000e+00 -9.000e+00 -9.000e+00 -9.000e+00 -9.000e+00 -9.000e+00 -9.000e+00 -9.000e+00 -9.000e+00 -9.000e+00 -1.800e+01 -1.800e+01 -1.800e+01 -1.800e+01 -1.800e+01 -1.800e+01 -1.800e+01 -1.800e+01 -1.800e+01 -1.800e+01 -1.800e+01 -1.800e+01 -1.800e+01 -1.800e+01 -1.800e+01 -1.800e+01 -1.800e+01 -1.800e+01 -1.800e+01 -1.800e+01 -1.800e+01 -1.800e+01 -1.800e+01 -1.800e+01 -1.800e+01 -1.800e+01 -1.800e+01 -2.000e+00 -2.000e+00 -2.000e+00 -2.000e+00 -2.000e+00 -2.000e+00 -2.000e+00 -2.000e+00 -2.000e+00 -2.000e+00 -2.000e+01 -7.000e+00 -7.000e+00 -7.000e+00 -7.000e+00 -7.000e+00 -7.000e+00 -2.000e+01 -2.000e+01 -2.000e+01 -7.000e+00 -7.000e+00 -7.000e+00 -7.000e+00 -7.000e+00 -7.000e+00 -7.000e+00 -2.000e+01 -2.000e+01 -2.000e+01 -7.000e+00 -7.000e+00 -7.000e+00 -7.000e+00 -7.000e+00 -7.000e+00 -7.000e+00 -7.000e+00 -7.000e+00 -7.000e+00 -7.000e+00 -7.000e+00 -7.000e+00 -7.000e+00 -7.000e+00 -7.000e+00 -7.000e+00 -7.000e+00 -7.000e+00 -7.000e+00 -7.000e+00 -7.000e+00 -7.000e+00 -7.000e+00 -7.000e+00 -7.000e+00 -7.000e+00 -7.000e+00 -7.000e+00 -7.000e+00 -7.000e+00 -7.000e+00 -7.000e+00 -7.000e+00 -7.000e+00 -7.000e+00 -7.000e+00 -7.000e+00 -7.000e+00 -2.000e+01 -2.000e+01 -2.000e+01 -7.000e+00 -7.000e+00 -7.000e+00 -7.000e+00 -7.000e+00 -7.000e+00 -7.000e+00 -7.000e+00 -7.000e+00 -7.000e+00 -7.000e+00 -7.000e+00 -7.000e+00 -7.000e+00 -7.000e+00 -7.000e+00 -7.000e+00 -7.000e+00 -7.000e+00 -7.000e+00 -7.000e+00 -7.000e+00 -7.000e+00 -7.000e+00 -7.000e+00 -7.000e+00 -7.000e+00 -7.000e+00 -7.000e+00 -7.000e+00 -7.000e+00 -7.000e+00 -7.000e+00 -7.000e+00 -7.000e+00 -7.000e+00 -2.000e+01 -7.000e+00 -7.000e+00 -7.000e+00 -7.000e+00 -7.000e+00 -7.000e+00 -7.000e+00 -7.000e+00 -7.000e+00 -7.000e+00 -7.000e+00 -7.000e+00 -7.000e+00 -7.000e+00 -7.000e+00 -7.000e+00 -7.000e+00 -7.000e+00 -7.000e+00 -7.000e+00 -7.000e+00 -7.000e+00 -7.000e+00 -7.000e+00 -7.000e+00 -7.000e+00 -7.000e+00 -7.000e+00 -7.000e+00 -7.000e+00 -2.000e+01 -2.000e+01 -2.000e+01 -7.000e+00 -7.000e+00 -7.000e+00 -7.000e+00 -7.000e+00 -7.000e+00 -7.000e+00 -7.000e+00 -7.000e+00 -7.000e+00 -7.000e+00 -7.000e+00 -7.000e+00 -7.000e+00 -7.000e+00 -7.000e+00 -7.000e+00 -7.000e+00 -7.000e+00 -7.000e+00 -7.000e+00 -7.000e+00 -7.000e+00 -7.000e+00 -7.000e+00 -7.000e+00 -7.000e+00 -7.000e+00 -7.000e+00 -7.000e+00 -7.000e+00 -7.000e+00 -7.000e+00 -7.000e+00 -7.000e+00 -7.000e+00 -7.000e+00 -7.000e+00 -7.000e+00 -7.000e+00 -7.000e+00 -7.000e+00 -7.000e+00 -7.000e+00 -7.000e+00 -7.000e+00 -7.000e+00 -7.000e+00 -7.000e+00 -7.000e+00 -7.000e+00 -7.000e+00 -2.000e+01 -2.000e+01 -2.000e+01 -7.000e+00 -7.000e+00 -7.000e+00 -7.000e+00 -7.000e+00 -7.000e+00 -7.000e+00 -7.000e+00 -7.000e+00 -7.000e+00 -7.000e+00 -7.000e+00 -7.000e+00 -7.000e+00 -7.000e+00 -7.000e+00 -7.000e+00 -2.000e+01 -2.000e+01 -7.000e+00 -7.000e+00 -7.000e+00 -7.000e+00 -7.000e+00 -7.000e+00 -7.000e+00 -7.000e+00 -7.000e+00 -7.000e+00 -7.000e+00 -7.000e+00 -7.000e+00 -7.000e+00 -7.000e+00 -7.000e+00 -2.000e+01 -2.000e+01 -2.000e+01 -7.000e+00 -7.000e+00 -7.000e+00 -7.000e+00 -7.000e+00 -7.000e+00 -7.000e+00 -7.000e+00 -7.000e+00 -7.000e+00 -7.000e+00 -7.000e+00 -7.000e+00 -7.000e+00 -7.000e+00 -7.000e+00 -7.000e+00 -7.000e+00 -7.000e+00 -7.000e+00 -7.000e+00 -7.000e+00 -7.000e+00 -7.000e+00 -2.000e+01 -2.000e+01 -7.000e+00 -7.000e+00 -7.000e+00 -7.000e+00 -7.000e+00 -7.000e+00 -2.000e+01 -2.000e+01 -7.000e+00 -7.000e+00 -7.000e+00 -7.000e+00 -7.000e+00 -7.000e+00 -7.000e+00 -2.000e+01 -7.000e+00 -7.000e+00 -7.000e+00 -7.000e+00 -7.000e+00 -7.000e+00 -7.000e+00 -7.000e+00 -7.000e+00 -7.000e+00 -7.000e+00 -2.000e+01 -7.000e+00 -7.000e+00 -7.000e+00 -7.000e+00 -7.000e+00 -7.000e+00 -2.000e+01 -2.000e+01 -7.000e+00 -7.000e+00 -7.000e+00 -7.000e+00 -7.000e+00 -7.000e+00 -7.000e+00 -2.000e+01 -2.000e+01 -7.000e+00 -7.000e+00 -7.000e+00 -7.000e+00 -7.000e+00 -7.000e+00 -2.000e+01 -2.000e+01 -7.000e+00 -7.000e+00 -7.000e+00 -7.000e+00 -7.000e+00 -7.000e+00 -2.000e+01 -2.000e+01 -7.000e+00 -7.000e+00 -7.000e+00 -7.000e+00 -7.000e+00 -7.000e+00 -2.000e+01 -7.000e+00 -7.000e+00 -7.000e+00 -7.000e+00 -7.000e+00 -7.000e+00 -2.000e+01 -7.000e+00 -7.000e+00 -7.000e+00 -7.000e+00 -7.000e+00 -7.000e+00 -2.000e+01 -7.000e+00 -7.000e+00 -7.000e+00 -7.000e+00 -7.000e+00 -7.000e+00 -2.000e+01 -2.000e+01 -2.000e+01 -7.000e+00 -7.000e+00 -7.000e+00 -7.000e+00 -7.000e+00 -7.000e+00 -7.000e+00 -7.000e+00 -7.000e+00 -7.000e+00 -7.000e+00 -7.000e+00 -2.000e+01 -2.000e+01 -7.000e+00 -7.000e+00 -7.000e+00 -7.000e+00 -7.000e+00 -7.000e+00 -2.000e+01 -7.000e+00 -7.000e+00 -7.000e+00 -7.000e+00 -7.000e+00 -7.000e+00 -2.000e+01 -7.000e+00 -7.000e+00 -7.000e+00 -7.000e+00 -7.000e+00 -7.000e+00 -2.000e+01 -7.000e+00 -7.000e+00 -7.000e+00 -7.000e+00