<?xml version="1.0"?>
<VTKFile type="UnstructuredGrid" version="0.1" byte_order="LittleEndian">
   <UnstructuredGrid>
      <Piece NumberOfPoints="160" NumberOfCells="14">
         <Points>
            <DataArray type="Float32" Name="Position" NumberOfComponents="3" format="ascii">
-0.142	-5.000	0.142
-0.031	-5.004	0.198
0.091	-5.006	0.179
0.179	-5.005	0.091
0.198	-5.003	-0.032
0.142	-5.000	-0.142
0.031	-4.996	-0.198
-0.091	-4.994	-0.179
-0.179	-4.995	-0.091
-0.198	-4.997	0.032
-0.128	-4.250	0.158
-0.017	-4.252	0.214
0.105	-4.253	0.195
0.193	-4.254	0.107
0.212	-4.252	-0.015
0.156	-4.251	-0.125
0.046	-4.249	-0.182
-0.077	-4.247	-0.162
-0.165	-4.247	-0.075
-0.184	-4.248	0.047
-0.124	-3.560	0.157
-0.014	-3.560	0.214
0.108	-3.561	0.195
0.196	-3.561	0.107
0.215	-3.561	-0.015
0.159	-3.561	-0.125
0.049	-3.561	-0.182
-0.073	-3.560	-0.163
-0.161	-3.560	-0.075
-0.180	-3.560	0.047
-0.123	-2.400	0.157
-0.013	-2.401	0.213
0.109	-2.401	0.194
0.197	-2.401	0.107
0.216	-2.401	-0.015
0.160	-2.401	-0.126
0.050	-2.400	-0.182
-0.073	-2.400	-0.163
-0.160	-2.400	-0.075
-0.179	-2.400	0.047
-0.122	-1.800	0.158
-0.012	-1.800	0.214
0.110	-1.800	0.195
0.198	-1.801	0.108
0.217	-1.801	-0.014
0.161	-1.801	-0.124
0.051	-1.801	-0.181
-0.071	-1.801	-0.162
-0.159	-1.800	-0.074
-0.178	-1.800	0.048
-0.120	-1.200	0.155
-0.010	-1.200	0.211
0.112	-1.201	0.192
0.199	-1.201	0.105
0.219	-1.201	-0.017
0.163	-1.201	-0.127
0.053	-1.200	-0.184
-0.069	-1.200	-0.165
-0.157	-1.200	-0.077
-0.176	-1.200	0.045
-0.118	-0.301	0.161
-0.008	-0.301	0.217
0.114	-0.302	0.197
0.201	-0.301	0.110
0.220	-0.301	-0.012
0.164	-0.300	-0.122
0.054	-0.300	-0.179
-0.068	-0.299	-0.159
-0.155	-0.300	-0.072
-0.175	-0.300	0.050
-0.117	-0.000	0.161
-0.007	-0.001	0.217
0.115	-0.001	0.198
0.202	-0.002	0.111
0.222	-0.001	-0.011
0.166	-0.001	-0.121
0.056	-0.000	-0.178
-0.066	0.000	-0.159
-0.154	0.001	-0.071
-0.173	0.000	0.051
0.031	-4.997	-0.033
0.044	-4.996	-0.009
0.041	-4.997	0.019
0.022	-4.998	0.040
-0.005	-5.001	0.045
-0.031	-5.003	0.033
-0.044	-5.004	0.009
-0.041	-5.003	-0.019
-0.022	-5.002	-0.040
0.005	-4.999	-0.045
0.088	-5.701	-0.039
0.102	-5.701	-0.015
0.099	-5.702	0.013
0.081	-5.704	0.034
0.053	-5.707	0.040
0.028	-5.708	0.028
0.014	-5.708	0.004
0.017	-5.707	-0.024
0.035	-5.705	-0.045
0.063	-5.703	-0.051
0.142	-6.404	-0.084
0.156	-6.404	-0.060
0.154	-6.405	-0.032
0.136	-6.408	-0.011
0.108	-6.410	-0.005
0.083	-6.412	-0.016
0.069	-6.412	-0.040
0.071	-6.411	-0.068
0.089	-6.408	-0.089
0.117	-6.405	-0.095
0.211	-7.108	-0.107
0.225	-7.107	-0.082
0.222	-7.108	-0.055
0.204	-7.110	-0.034
0.176	-7.112	-0.028
0.151	-7.114	-0.040
0.137	-7.115	-0.064
0.140	-7.114	-0.092
0.159	-7.112	-0.113
0.186	-7.110	-0.118
0.269	-7.816	-0.104
0.281	-7.814	-0.079
0.277	-7.812	-0.051
0.257	-7.812	-0.032
0.230	-7.813	-0.027
0.205	-7.816	-0.040
0.193	-7.818	-0.065
0.197	-7.819	-0.092
0.217	-7.819	-0.112
0.244	-7.818	-0.116
0.291	-8.520	-0.023
0.303	-8.516	0.002
0.297	-8.513	0.029
0.277	-8.512	0.048
0.249	-8.512	0.052
0.225	-8.515	0.038
0.213	-8.519	0.013
0.219	-8.522	-0.014
0.239	-8.523	-0.033
0.267	-8.523	-0.036
0.329	-9.217	0.070
0.342	-9.213	0.094
0.337	-9.211	0.121
0.317	-9.211	0.141
0.290	-9.213	0.145
0.265	-9.217	0.133
0.253	-9.221	0.108
0.258	-9.223	0.081
0.277	-9.224	0.061
0.305	-9.221	0.057
0.395	-9.680	0.110
0.408	-9.676	0.134
0.404	-9.674	0.162
0.385	-9.675	0.182
0.358	-9.679	0.187
0.333	-9.683	0.175
0.321	-9.687	0.151
0.324	-9.689	0.123
0.344	-9.688	0.103
0.371	-9.685	0.098
		    </DataArray>
         </Points>
         <Cells>
            <DataArray type="Int32" Name="connectivity" NumberOfComponents="1" format="ascii">
 0 10 1 11 2 12 3 13 4 14 5 15 6 16 7 17 8 18 9 19 0 10
 10 20 11 21 12 22 13 23 14 24 15 25 16 26 17 27 18 28 19 29 10 20
 20 30 21 31 22 32 23 33 24 34 25 35 26 36 27 37 28 38 29 39 20 30
 30 40 31 41 32 42 33 43 34 44 35 45 36 46 37 47 38 48 39 49 30 40
 40 50 41 51 42 52 43 53 44 54 45 55 46 56 47 57 48 58 49 59 40 50
 50 60 51 61 52 62 53 63 54 64 55 65 56 66 57 67 58 68 59 69 50 60
 60 70 61 71 62 72 63 73 64 74 65 75 66 76 67 77 68 78 69 79 60 70
 80 90 81 91 82 92 83 93 84 94 85 95 86 96 87 97 88 98 89 99 80 90
 90 100 91 101 92 102 93 103 94 104 95 105 96 106 97 107 98 108 99 109 90 100
 100 110 101 111 102 112 103 113 104 114 105 115 106 116 107 117 108 118 109 119 100 110
 110 120 111 121 112 122 113 123 114 124 115 125 116 126 117 127 118 128 119 129 110 120
 120 130 121 131 122 132 123 133 124 134 125 135 126 136 127 137 128 138 129 139 120 130
 130 140 131 141 132 142 133 143 134 144 135 145 136 146 137 147 138 148 139 149 130 140
 140 150 141 151 142 152 143 153 144 154 145 155 146 156 147 157 148 158 149 159 140 150

            </DataArray>
            <DataArray type="Int32" Name="offsets" NumberOfComponents="1" format="ascii">
 22 44 66 88 110 132 154 176 198 220 242 264 286 308
            </DataArray>
            <DataArray type="UInt8"  Name="types" NumberOfComponents="1" format="ascii">
6 6 6 6 6 6 6 6 6 6 6 6 6 6
            </DataArray>
         </Cells>
         <CellData>
           <DataArray type="Float32" Name="combinedRootClassID" NumberOfComponents="1" format="ascii">
 -2.000e+00 -2.000e+00 -2.000e+00 -2.000e+00 -2.000e+00 -2.000e+00 -2.000e+00 -4.000e+00 -4.000e+00 -4.000e+00 -4.000e+00 -4.000e+00 -4.000e+00 -4.000e+00
           </DataArray>
           <DataArray type="Float32" Name="nitrate/Cmin" NumberOfComponents="1" format="ascii">
 1.000e-03 1.000e-03 1.000e-03 1.000e-03 1.000e-03 1.000e-03 1.000e-03 1.000e-03 1.000e-03 1.000e-03 1.000e-03 1.000e-03 1.000e-03 1.000e-03
           </DataArray>
           <DataArray type="Float32" Name="nitrate/Imax" NumberOfComponents="1" format="ascii">
 1.900e+00 1.900e+00 1.900e+00 1.900e+00 1.900e+00 1.900e+00 1.900e+00 1.900e+00 1.900e+00 1.900e+00 1.900e+00 1.900e+00 1.900e+00 1.900e+00
           </DataArray>
           <DataArray type="Float32" Name="nitrate/Km" NumberOfComponents="1" format="ascii">
 1.610e-02 1.610e-02 1.610e-02 1.610e-02 1.610e-02 1.610e-02 1.610e-02 1.610e-02 1.610e-02 1.610e-02 1.610e-02 1.610e-02 1.610e-02 1.610e-02
           </DataArray>
           <DataArray type="Float32" Name="nitrate/minimalNutrientConcentration" NumberOfComponents="1" format="ascii">
 6.000e+02 6.000e+02 6.000e+02 6.000e+02 6.000e+02 6.000e+02 6.000e+02 6.000e+02 6.000e+02 6.000e+02 6.000e+02 6.000e+02 6.000e+02 6.000e+02
           </DataArray>
           <DataArray type="Float32" Name="nitrate/nutrientConcentrationAtTheRootSurface" NumberOfComponents="1" format="ascii">
 2.282e-01 2.250e-01 2.279e-01 2.300e-01 2.271e-01 2.284e-01 1.956e-01 2.282e-01 2.214e-01 2.182e-01 2.147e-01 2.241e-01 2.399e-01 2.515e-01
           </DataArray>
           <DataArray type="Float32" Name="nitrate/optimalNutrientConcentration" NumberOfComponents="1" format="ascii">
 1.200e+03 1.200e+03 1.200e+03 1.200e+03 1.200e+03 1.200e+03 1.200e+03 1.200e+03 1.200e+03 1.200e+03 1.200e+03 1.200e+03 1.200e+03 1.200e+03
           </DataArray>
           <DataArray type="Float32" Name="nitrate/rootSegmentMinimalNutrientContent" NumberOfComponents="1" format="ascii">
 5.362e+00 4.914e+00 8.247e+00 4.258e+00 4.256e+00 6.381e+00 2.126e+00 2.594e-01 2.578e-01 2.565e-01 2.554e-01 2.546e-01 2.541e-01 1.692e-01
           </DataArray>
           <DataArray type="Float32" Name="nitrate/rootSegmentNutrientUptake" NumberOfComponents="1" format="ascii">
 0.000e+00 9.014e-02 7.932e-02 5.962e-02 4.639e-02 3.342e-02 8.542e-03 0.000e+00 9.630e-02 8.520e-02 7.273e-02 5.888e-02 4.216e-02 1.747e-02
           </DataArray>
           <DataArray type="Float32" Name="nitrate/rootSegmentOptimalNutrientContent" NumberOfComponents="1" format="ascii">
 1.072e+01 9.829e+00 1.649e+01 8.517e+00 8.512e+00 1.276e+01 4.253e+00 5.188e-01 5.156e-01 5.130e-01 5.108e-01 5.092e-01 5.081e-01 3.384e-01
           </DataArray>
           <DataArray type="Float32" Name="parentRootClassID" NumberOfComponents="1" format="ascii">
 -3.000e+00 -3.000e+00 -3.000e+00 -3.000e+00 -3.000e+00 -3.000e+00 -3.000e+00 -3.000e+00 -3.000e+00 -3.000e+00 -3.000e+00 -3.000e+00 -3.000e+00 -3.000e+00
           </DataArray>
           <DataArray type="Float32" Name="plantID" NumberOfComponents="1" format="ascii">
 3.000e+00 3.000e+00 3.000e+00 3.000e+00 3.000e+00 3.000e+00 3.000e+00 3.000e+00 3.000e+00 3.000e+00 3.000e+00 3.000e+00 3.000e+00 3.000e+00
           </DataArray>
           <DataArray type="Float32" Name="plantTypeID" NumberOfComponents="1" format="ascii">
 0.000e+00 0.000e+00 0.000e+00 0.000e+00 0.000e+00 0.000e+00 0.000e+00 0.000e+00 0.000e+00 0.000e+00 0.000e+00 0.000e+00 0.000e+00 0.000e+00
           </DataArray>
           <DataArray type="Float32" Name="rootCircumference" NumberOfComponents="1" format="ascii">
 1.262e+00 1.260e+00 1.259e+00 1.258e+00 1.257e+00 1.257e+00 1.257e+00 2.859e-01 2.850e-01 2.843e-01 2.837e-01 2.832e-01 2.829e-01 2.828e-01
           </DataArray>
           <DataArray type="Float32" Name="rootClassID" NumberOfComponents="1" format="ascii">
 -2.000e+00 -2.000e+00 -2.000e+00 -2.000e+00 -2.000e+00 -2.000e+00 -2.000e+00 -4.000e+00 -4.000e+00 -4.000e+00 -4.000e+00 -4.000e+00 -4.000e+00 -4.000e+00
           </DataArray>
           <DataArray type="Float32" Name="rootDiameter" NumberOfComponents="1" format="ascii">
 4.018e-01 4.010e-01 4.006e-01 4.003e-01 4.002e-01 4.001e-01 4.000e-01 9.100e-02 9.072e-02 9.049e-02 9.030e-02 9.016e-02 9.006e-02 9.001e-02
           </DataArray>
           <DataArray type="Float32" Name="rootHairDensity" NumberOfComponents="1" format="ascii">
 0.000e+00 0.000e+00 0.000e+00 0.000e+00 0.000e+00 0.000e+00 0.000e+00 2.000e+03 2.000e+03 2.000e+03 2.000e+03 2.000e+03 2.000e+03 2.000e+03
           </DataArray>
           <DataArray type="Float32" Name="rootHairDiameter" NumberOfComponents="1" format="ascii">
 5.000e-04 5.000e-04 5.000e-04 5.000e-04 5.000e-04 5.000e-04 5.000e-04 5.000e-04 5.000e-04 5.000e-04 5.000e-04 5.000e-04 5.000e-04 5.000e-04
           </DataArray>
           <DataArray type="Float32" Name="rootHairLength" NumberOfComponents="1" format="ascii">
 3.000e-02 1.500e-02 6.000e-03 0.000e+00 0.000e+00 0.000e+00 0.000e+00 3.000e-02 2.100e-02 1.200e-02 3.000e-03 0.000e+00 0.000e+00 0.000e+00
           </DataArray>
           <DataArray type="Float32" Name="rootHairSurfaceArea" NumberOfComponents="1" format="ascii">
 0.000e+00 0.000e+00 0.000e+00 0.000e+00 0.000e+00 0.000e+00 0.000e+00 9.425e-02 6.597e-02 3.770e-02 9.425e-03 0.000e+00 0.000e+00 0.000e+00
           </DataArray>
           <DataArray type="Float32" Name="rootLength2Base" NumberOfComponents="1" format="ascii">
 0.000e+00 7.500e-01 1.440e+00 2.600e+00 3.200e+00 3.800e+00 4.700e+00 0.000e+00 7.071e-01 1.414e+00 2.121e+00 2.828e+00 3.535e+00 4.243e+00
           </DataArray>
           <DataArray type="Float32" Name="rootPotentialSecondaryGrowth" NumberOfComponents="1" format="ascii">
 4.018e-01 4.010e-01 4.006e-01 4.003e-01 4.002e-01 4.001e-01 4.000e-01 9.100e-02 9.072e-02 9.049e-02 9.030e-02 9.016e-02 9.006e-02 9.001e-02
           </DataArray>
           <DataArray type="Float32" Name="rootSegmentAge" NumberOfComponents="1" format="ascii">
 2.000e+00 1.500e+00 1.200e+00 8.000e-01 6.000e-01 4.000e-01 1.000e-01 2.000e+00 1.700e+00 1.400e+00 1.100e+00 8.000e-01 5.000e-01 2.000e-01
           </DataArray>
           <DataArray type="Float32" Name="rootSegmentCarbonCostOfExudates" NumberOfComponents="1" format="ascii">
 0.000e+00 0.000e+00 0.000e+00 0.000e+00 0.000e+00 0.000e+00 0.000e+00 2.203e-05 1.872e-05 1.547e-05 1.193e-05 8.390e-06 4.565e-06 8.886e-07
           </DataArray>
           <DataArray type="Float32" Name="rootSegmentDryWeight" NumberOfComponents="1" format="ascii">
 8.937e-03 8.191e-03 1.375e-02 7.097e-03 7.093e-03 1.063e-02 3.544e-03 4.323e-04 4.297e-04 4.275e-04 4.257e-04 4.244e-04 4.234e-04 2.820e-04
           </DataArray>
           <DataArray type="Float32" Name="rootSegmentLength" NumberOfComponents="1" format="ascii">
 7.500e-01 6.900e-01 1.160e+00 6.000e-01 6.000e-01 9.000e-01 3.000e-01 7.071e-01 7.071e-01 7.071e-01 7.071e-01 7.071e-01 7.071e-01 4.714e-01
           </DataArray>
           <DataArray type="Float32" Name="rootSegmentLengthDuration" NumberOfComponents="1" format="ascii">
 1.295e+00 9.313e-01 1.155e+00 4.200e-01 3.000e-01 2.300e-01 2.983e-02 1.312e+00 1.100e+00 8.878e-01 6.757e-01 4.635e-01 2.514e-01 4.714e-02
           </DataArray>
           <DataArray type="Float32" Name="rootSegmentRespiration" NumberOfComponents="1" format="ascii">
 3.575e-04 4.300e-04 8.247e-04 4.968e-04 5.320e-04 8.508e-04 3.101e-04 1.729e-05 2.041e-05 2.351e-05 2.661e-05 2.970e-05 3.282e-05 2.397e-05
           </DataArray>
           <DataArray type="Float32" Name="rootSegmentSecondaryPotentialCarbonSinkForGrowth" NumberOfComponents="1" format="ascii">
 2.690e-05 1.469e-05 1.367e-05 3.443e-06 1.768e-06 7.326e-07 1.163e-08 3.647e-06 2.558e-06 1.665e-06 9.637e-07 4.550e-07 1.375e-07 9.397e-09
           </DataArray>
           <DataArray type="Float32" Name="rootSegmentSurfaceArea" NumberOfComponents="1" format="ascii">
 9.466e-01 8.692e-01 1.460e+00 7.545e-01 7.543e-01 1.131e+00 3.770e-01 2.021e-01 2.015e-01 2.010e-01 2.006e-01 2.003e-01 2.001e-01 1.333e-01
           </DataArray>
           <DataArray type="Float32" Name="rootSegmentVolume" NumberOfComponents="1" format="ascii">
 9.507e-02 8.714e-02 1.462e-01 7.550e-02 7.546e-02 1.131e-01 3.770e-02 4.599e-03 4.571e-03 4.547e-03 4.529e-03 4.514e-03 4.505e-03 3.000e-03
           </DataArray>
           <DataArray type="Float32" Name="rootSegmentWaterUptake" NumberOfComponents="1" format="ascii">
 0.000e+00 0.000e+00 0.000e+00 0.000e+00 0.000e+00 0.000e+00 0.000e+00 0.000e+00 0.000e+00 0.000e+00 0.000e+00 0.000e+00 0.000e+00 0.000e+00
           </DataArray>
           <DataArray type="Float32" Name="spatialRootDensity" NumberOfComponents="1" format="ascii">
 3.376e-01 1.688e-01 0.000e+00 0.000e+00 0.000e+00 0.000e+00 0.000e+00 3.438e-01 1.790e-01 0.000e+00 0.000e+00 0.000e+00 0.000e+00 0.000e+00
           </DataArray>
           <DataArray type="Float32" Name="volumetricWaterContentAtTheRootSurface" NumberOfComponents="1" format="ascii">
 1.820e-01 1.820e-01 1.819e-01 1.818e-01 1.817e-01 1.817e-01 1.816e-01 1.820e-01 1.821e-01 1.822e-01 1.822e-01 1.823e-01 1.823e-01 1.824e-01
           </DataArray>
         </CellData>
      </Piece>
   </UnstructuredGrid>
</VTKFile>
