<?xml version="1.0"?>
<VTKFile type="UnstructuredGrid" version="0.1" byte_order="LittleEndian">
   <UnstructuredGrid>
      <Piece NumberOfPoints="210" NumberOfCells="19">
         <Points>
            <DataArray type="Float32" Name="Position" NumberOfComponents="3" format="ascii">
-0.143	-5.000	0.143
-0.031	-5.004	0.199
0.092	-5.006	0.180
0.180	-5.005	0.091
0.199	-5.003	-0.032
0.143	-5.000	-0.143
0.031	-4.996	-0.199
-0.092	-4.994	-0.180
-0.180	-4.995	-0.091
-0.199	-4.997	0.032
-0.128	-4.250	0.159
-0.018	-4.252	0.215
0.105	-4.253	0.196
0.193	-4.254	0.108
0.213	-4.252	-0.015
0.156	-4.251	-0.126
0.046	-4.249	-0.183
-0.077	-4.247	-0.163
-0.165	-4.247	-0.075
-0.185	-4.248	0.048
-0.125	-3.560	0.158
-0.014	-3.560	0.215
0.109	-3.561	0.195
0.197	-3.561	0.108
0.216	-3.561	-0.015
0.160	-3.561	-0.126
0.049	-3.561	-0.183
-0.073	-3.560	-0.163
-0.161	-3.560	-0.076
-0.181	-3.560	0.047
-0.124	-2.400	0.158
-0.013	-2.401	0.214
0.109	-2.401	0.195
0.197	-2.401	0.107
0.216	-2.401	-0.016
0.160	-2.401	-0.126
0.050	-2.400	-0.182
-0.073	-2.400	-0.163
-0.161	-2.400	-0.075
-0.180	-2.400	0.047
-0.123	-1.800	0.158
-0.012	-1.800	0.215
0.110	-1.800	0.196
0.198	-1.801	0.108
0.218	-1.801	-0.014
0.162	-1.801	-0.125
0.051	-1.801	-0.181
-0.071	-1.801	-0.162
-0.159	-1.800	-0.075
-0.179	-1.800	0.048
-0.121	-1.200	0.155
-0.010	-1.200	0.212
0.112	-1.201	0.192
0.200	-1.201	0.105
0.219	-1.201	-0.017
0.163	-1.201	-0.128
0.053	-1.200	-0.184
-0.069	-1.200	-0.165
-0.157	-1.200	-0.077
-0.177	-1.200	0.045
-0.119	-0.301	0.161
-0.008	-0.301	0.217
0.114	-0.302	0.197
0.201	-0.302	0.110
0.221	-0.301	-0.012
0.164	-0.300	-0.123
0.054	-0.300	-0.179
-0.068	-0.299	-0.159
-0.156	-0.299	-0.072
-0.175	-0.300	0.051
-0.115	0.559	0.165
-0.005	0.559	0.221
0.118	0.558	0.201
0.205	0.559	0.114
0.224	0.559	-0.008
0.168	0.559	-0.118
0.058	0.560	-0.175
-0.064	0.560	-0.155
-0.152	0.560	-0.068
-0.171	0.560	0.054
-0.112	1.439	0.167
-0.002	1.439	0.223
0.120	1.439	0.204
0.207	1.439	0.116
0.227	1.439	-0.006
0.171	1.440	-0.116
0.060	1.440	-0.172
-0.062	1.440	-0.153
-0.149	1.440	-0.065
-0.168	1.440	0.057
-0.111	1.999	0.168
-0.001	1.999	0.225
0.121	1.999	0.205
0.208	1.999	0.118
0.228	1.999	-0.004
0.172	2.000	-0.114
0.061	2.000	-0.171
-0.061	2.000	-0.151
-0.148	2.000	-0.064
-0.167	2.000	0.058
0.031	-4.997	-0.034
0.045	-4.996	-0.009
0.042	-4.997	0.019
0.023	-4.998	0.040
-0.005	-5.001	0.046
-0.031	-5.003	0.034
-0.045	-5.004	0.009
-0.042	-5.003	-0.019
-0.023	-5.002	-0.040
0.005	-4.999	-0.046
0.088	-5.701	-0.040
0.103	-5.701	-0.015
0.100	-5.702	0.013
0.081	-5.704	0.034
0.053	-5.707	0.040
0.028	-5.708	0.029
0.013	-5.708	0.004
0.016	-5.707	-0.024
0.035	-5.705	-0.045
0.063	-5.703	-0.051
0.142	-6.404	-0.085
0.157	-6.403	-0.060
0.154	-6.405	-0.032
0.136	-6.408	-0.011
0.108	-6.410	-0.005
0.082	-6.412	-0.016
0.068	-6.412	-0.040
0.071	-6.411	-0.068
0.089	-6.408	-0.090
0.117	-6.405	-0.096
0.212	-7.108	-0.107
0.226	-7.107	-0.083
0.223	-7.108	-0.055
0.204	-7.110	-0.034
0.176	-7.112	-0.028
0.151	-7.114	-0.040
0.137	-7.115	-0.064
0.140	-7.114	-0.092
0.159	-7.112	-0.113
0.186	-7.110	-0.119
0.269	-7.816	-0.104
0.282	-7.814	-0.079
0.277	-7.812	-0.051
0.257	-7.812	-0.031
0.230	-7.813	-0.027
0.205	-7.816	-0.040
0.192	-7.818	-0.065
0.197	-7.819	-0.092
0.217	-7.819	-0.112
0.244	-7.818	-0.116
0.291	-8.520	-0.023
0.303	-8.516	0.002
0.298	-8.513	0.029
0.277	-8.512	0.048
0.249	-8.512	0.052
0.225	-8.515	0.039
0.213	-8.519	0.013
0.219	-8.522	-0.014
0.239	-8.523	-0.033
0.267	-8.523	-0.036
0.329	-9.217	0.069
0.342	-9.213	0.094
0.337	-9.211	0.121
0.318	-9.211	0.141
0.290	-9.213	0.146
0.266	-9.217	0.133
0.253	-9.221	0.109
0.257	-9.223	0.081
0.277	-9.223	0.061
0.305	-9.221	0.057
0.434	-9.911	0.119
0.448	-9.907	0.143
0.444	-9.905	0.170
0.426	-9.907	0.191
0.399	-9.912	0.197
0.374	-9.917	0.185
0.361	-9.921	0.161
0.364	-9.922	0.134
0.382	-9.920	0.113
0.409	-9.916	0.107
0.575	-10.602	0.159
0.589	-10.597	0.183
0.586	-10.596	0.211
0.567	-10.598	0.232
0.540	-10.603	0.237
0.515	-10.609	0.226
0.502	-10.613	0.202
0.505	-10.614	0.174
0.524	-10.612	0.154
0.550	-10.607	0.148
0.704	-11.295	0.218
0.717	-11.291	0.242
0.713	-11.289	0.270
0.694	-11.291	0.290
0.667	-11.295	0.296
0.643	-11.300	0.284
0.629	-11.305	0.260
0.633	-11.306	0.232
0.652	-11.305	0.212
0.679	-11.301	0.206
0.817	-11.991	0.277
0.830	-11.987	0.301
0.826	-11.985	0.328
0.807	-11.987	0.349
0.780	-11.991	0.354
0.755	-11.996	0.342
0.742	-12.000	0.318
0.746	-12.001	0.291
0.765	-12.000	0.270
0.792	-11.996	0.265
		    </DataArray>
         </Points>
         <Cells>
            <DataArray type="Int32" Name="connectivity" NumberOfComponents="1" format="ascii">
 0 10 1 11 2 12 3 13 4 14 5 15 6 16 7 17 8 18 9 19 0 10
 10 20 11 21 12 22 13 23 14 24 15 25 16 26 17 27 18 28 19 29 10 20
 20 30 21 31 22 32 23 33 24 34 25 35 26 36 27 37 28 38 29 39 20 30
 30 40 31 41 32 42 33 43 34 44 35 45 36 46 37 47 38 48 39 49 30 40
 40 50 41 51 42 52 43 53 44 54 45 55 46 56 47 57 48 58 49 59 40 50
 50 60 51 61 52 62 53 63 54 64 55 65 56 66 57 67 58 68 59 69 50 60
 60 70 61 71 62 72 63 73 64 74 65 75 66 76 67 77 68 78 69 79 60 70
 70 80 71 81 72 82 73 83 74 84 75 85 76 86 77 87 78 88 79 89 70 80
 80 90 81 91 82 92 83 93 84 94 85 95 86 96 87 97 88 98 89 99 80 90
 100 110 101 111 102 112 103 113 104 114 105 115 106 116 107 117 108 118 109 119 100 110
 110 120 111 121 112 122 113 123 114 124 115 125 116 126 117 127 118 128 119 129 110 120
 120 130 121 131 122 132 123 133 124 134 125 135 126 136 127 137 128 138 129 139 120 130
 130 140 131 141 132 142 133 143 134 144 135 145 136 146 137 147 138 148 139 149 130 140
 140 150 141 151 142 152 143 153 144 154 145 155 146 156 147 157 148 158 149 159 140 150
 150 160 151 161 152 162 153 163 154 164 155 165 156 166 157 167 158 168 159 169 150 160
 160 170 161 171 162 172 163 173 164 174 165 175 166 176 167 177 168 178 169 179 160 170
 170 180 171 181 172 182 173 183 174 184 175 185 176 186 177 187 178 188 179 189 170 180
 180 190 181 191 182 192 183 193 184 194 185 195 186 196 187 197 188 198 189 199 180 190
 190 200 191 201 192 202 193 203 194 204 195 205 196 206 197 207 198 208 199 209 190 200

            </DataArray>
            <DataArray type="Int32" Name="offsets" NumberOfComponents="1" format="ascii">
 22 44 66 88 110 132 154 176 198 220 242 264 286 308 330 352 374 396 418
            </DataArray>
            <DataArray type="UInt8"  Name="types" NumberOfComponents="1" format="ascii">
6 6 6 6 6 6 6 6 6 6 6 6 6 6 6 6 6 6 6
            </DataArray>
         </Cells>
         <CellData>
           <DataArray type="Float32" Name="combinedRootClassID" NumberOfComponents="1" format="ascii">
 -2.000e+00 -2.000e+00 -2.000e+00 -2.000e+00 -2.000e+00 -2.000e+00 -2.000e+00 -2.000e+00 -2.000e+00 -4.000e+00 -4.000e+00 -4.000e+00 -4.000e+00 -4.000e+00 -4.000e+00 -4.000e+00 -4.000e+00 -4.000e+00 -4.000e+00
           </DataArray>
           <DataArray type="Float32" Name="nitrate/Cmin" NumberOfComponents="1" format="ascii">
 1.000e-03 1.000e-03 1.000e-03 1.000e-03 1.000e-03 1.000e-03 1.000e-03 1.000e-03 1.000e-03 1.000e-03 1.000e-03 1.000e-03 1.000e-03 1.000e-03 1.000e-03 1.000e-03 1.000e-03 1.000e-03 1.000e-03
           </DataArray>
           <DataArray type="Float32" Name="nitrate/Imax" NumberOfComponents="1" format="ascii">
 1.900e+00 1.900e+00 1.900e+00 1.900e+00 1.900e+00 1.900e+00 1.900e+00 1.900e+00 1.900e+00 1.900e+00 1.900e+00 1.900e+00 1.900e+00 1.900e+00 1.900e+00 1.900e+00 1.900e+00 1.900e+00 1.900e+00
           </DataArray>
           <DataArray type="Float32" Name="nitrate/Km" NumberOfComponents="1" format="ascii">
 1.610e-02 1.610e-02 1.610e-02 1.610e-02 1.610e-02 1.610e-02 1.610e-02 1.610e-02 1.610e-02 1.610e-02 1.610e-02 1.610e-02 1.610e-02 1.610e-02 1.610e-02 1.610e-02 1.610e-02 1.610e-02 1.610e-02
           </DataArray>
           <DataArray type="Float32" Name="nitrate/minimalNutrientConcentration" NumberOfComponents="1" format="ascii">
 6.000e+02 6.000e+02 6.000e+02 6.000e+02 6.000e+02 6.000e+02 6.000e+02 6.000e+02 6.000e+02 6.000e+02 6.000e+02 6.000e+02 6.000e+02 6.000e+02 6.000e+02 6.000e+02 6.000e+02 6.000e+02 6.000e+02
           </DataArray>
           <DataArray type="Float32" Name="nitrate/nutrientConcentrationAtTheRootSurface" NumberOfComponents="1" format="ascii">
 2.268e-01 1.950e-01 1.694e-01 1.199e-01 9.846e-02 7.285e-02 4.462e-02 0.000e+00 0.000e+00 2.268e-01 2.507e-01 2.665e-01 2.825e-01 2.995e-01 3.111e-01 3.177e-01 3.259e-01 3.397e-01 3.495e-01
           </DataArray>
           <DataArray type="Float32" Name="nitrate/optimalNutrientConcentration" NumberOfComponents="1" format="ascii">
 1.200e+03 1.200e+03 1.200e+03 1.200e+03 1.200e+03 1.200e+03 1.200e+03 1.200e+03 1.200e+03 1.200e+03 1.200e+03 1.200e+03 1.200e+03 1.200e+03 1.200e+03 1.200e+03 1.200e+03 1.200e+03 1.200e+03
           </DataArray>
           <DataArray type="Float32" Name="nitrate/rootSegmentMinimalNutrientContent" NumberOfComponents="1" format="ascii">
 5.421e+00 4.957e+00 8.309e+00 4.283e+00 4.276e+00 6.406e+00 6.111e+00 6.246e+00 3.970e+00 2.666e-01 2.641e-01 2.619e-01 2.600e-01 2.583e-01 2.569e-01 2.557e-01 2.549e-01 2.542e-01 2.538e-01
           </DataArray>
           <DataArray type="Float32" Name="nitrate/rootSegmentNutrientUptake" NumberOfComponents="1" format="ascii">
 0.000e+00 1.810e-01 1.625e-01 1.245e-01 1.017e-01 7.503e-02 3.256e-02 0.000e+00 0.000e+00 0.000e+00 1.995e-01 1.920e-01 1.817e-01 1.706e-01 1.565e-01 1.331e-01 1.074e-01 7.760e-02 4.023e-02
           </DataArray>
           <DataArray type="Float32" Name="nitrate/rootSegmentOptimalNutrientContent" NumberOfComponents="1" format="ascii">
 1.084e+01 9.915e+00 1.662e+01 8.565e+00 8.553e+00 1.281e+01 1.222e+01 1.249e+01 7.941e+00 5.331e-01 5.282e-01 5.238e-01 5.199e-01 5.166e-01 5.138e-01 5.115e-01 5.097e-01 5.084e-01 5.077e-01
           </DataArray>
           <DataArray type="Float32" Name="parentRootClassID" NumberOfComponents="1" format="ascii">
 -3.000e+00 -3.000e+00 -3.000e+00 -3.000e+00 -3.000e+00 -3.000e+00 -3.000e+00 -3.000e+00 -3.000e+00 -3.000e+00 -3.000e+00 -3.000e+00 -3.000e+00 -3.000e+00 -3.000e+00 -3.000e+00 -3.000e+00 -3.000e+00 -3.000e+00
           </DataArray>
           <DataArray type="Float32" Name="plantID" NumberOfComponents="1" format="ascii">
 4.000e+00 4.000e+00 4.000e+00 4.000e+00 4.000e+00 4.000e+00 4.000e+00 4.000e+00 4.000e+00 4.000e+00 4.000e+00 4.000e+00 4.000e+00 4.000e+00 4.000e+00 4.000e+00 4.000e+00 4.000e+00 4.000e+00
           </DataArray>
           <DataArray type="Float32" Name="plantTypeID" NumberOfComponents="1" format="ascii">
 0.000e+00 0.000e+00 0.000e+00 0.000e+00 0.000e+00 0.000e+00 0.000e+00 0.000e+00 0.000e+00 0.000e+00 0.000e+00 0.000e+00 0.000e+00 0.000e+00 0.000e+00 0.000e+00 0.000e+00 0.000e+00 0.000e+00
           </DataArray>
           <DataArray type="Float32" Name="rootCircumference" NumberOfComponents="1" format="ascii">
 1.269e+00 1.265e+00 1.263e+00 1.261e+00 1.260e+00 1.259e+00 1.258e+00 1.258e+00 1.257e+00 2.898e-01 2.885e-01 2.873e-01 2.862e-01 2.853e-01 2.845e-01 2.839e-01 2.834e-01 2.830e-01 2.828e-01
           </DataArray>
           <DataArray type="Float32" Name="rootClassID" NumberOfComponents="1" format="ascii">
 -2.000e+00 -2.000e+00 -2.000e+00 -2.000e+00 -2.000e+00 -2.000e+00 -2.000e+00 -2.000e+00 -2.000e+00 -4.000e+00 -4.000e+00 -4.000e+00 -4.000e+00 -4.000e+00 -4.000e+00 -4.000e+00 -4.000e+00 -4.000e+00 -4.000e+00
           </DataArray>
           <DataArray type="Float32" Name="rootDiameter" NumberOfComponents="1" format="ascii">
 4.039e-01 4.027e-01 4.021e-01 4.014e-01 4.011e-01 4.009e-01 4.005e-01 4.003e-01 4.001e-01 9.225e-02 9.182e-02 9.144e-02 9.110e-02 9.081e-02 9.056e-02 9.036e-02 9.020e-02 9.009e-02 9.002e-02
           </DataArray>
           <DataArray type="Float32" Name="rootHairDensity" NumberOfComponents="1" format="ascii">
 0.000e+00 0.000e+00 0.000e+00 0.000e+00 0.000e+00 0.000e+00 0.000e+00 0.000e+00 0.000e+00 2.000e+03 2.000e+03 2.000e+03 2.000e+03 2.000e+03 2.000e+03 2.000e+03 2.000e+03 2.000e+03 2.000e+03
           </DataArray>
           <DataArray type="Float32" Name="rootHairDiameter" NumberOfComponents="1" format="ascii">
 5.000e-04 5.000e-04 5.000e-04 5.000e-04 5.000e-04 5.000e-04 5.000e-04 5.000e-04 5.000e-04 5.000e-04 5.000e-04 5.000e-04 5.000e-04 5.000e-04 5.000e-04 5.000e-04 5.000e-04 5.000e-04 5.000e-04
           </DataArray>
           <DataArray type="Float32" Name="rootHairLength" NumberOfComponents="1" format="ascii">
 3.000e-02 3.000e-02 3.000e-02 2.400e-02 1.800e-02 1.200e-02 3.000e-03 0.000e+00 0.000e+00 3.000e-02 3.000e-02 3.000e-02 3.000e-02 2.400e-02 1.500e-02 6.000e-03 0.000e+00 0.000e+00 0.000e+00
           </DataArray>
           <DataArray type="Float32" Name="rootHairSurfaceArea" NumberOfComponents="1" format="ascii">
 0.000e+00 0.000e+00 0.000e+00 0.000e+00 0.000e+00 0.000e+00 0.000e+00 0.000e+00 0.000e+00 9.425e-02 9.425e-02 9.425e-02 9.425e-02 7.540e-02 4.712e-02 1.885e-02 0.000e+00 0.000e+00 0.000e+00
           </DataArray>
           <DataArray type="Float32" Name="rootLength2Base" NumberOfComponents="1" format="ascii">
 0.000e+00 7.500e-01 1.440e+00 2.600e+00 3.200e+00 3.800e+00 4.700e+00 5.560e+00 6.440e+00 0.000e+00 7.071e-01 1.414e+00 2.121e+00 2.828e+00 3.535e+00 4.243e+00 4.950e+00 5.657e+00 6.364e+00
           </DataArray>
           <DataArray type="Float32" Name="rootPotentialSecondaryGrowth" NumberOfComponents="1" format="ascii">
 4.039e-01 4.027e-01 4.021e-01 4.014e-01 4.011e-01 4.009e-01 4.005e-01 4.003e-01 4.001e-01 9.225e-02 9.182e-02 9.144e-02 9.110e-02 9.081e-02 9.056e-02 9.036e-02 9.020e-02 9.009e-02 9.002e-02
           </DataArray>
           <DataArray type="Float32" Name="rootSegmentAge" NumberOfComponents="1" format="ascii">
 3.000e+00 2.500e+00 2.200e+00 1.800e+00 1.600e+00 1.400e+00 1.100e+00 8.000e-01 4.000e-01 3.000e+00 2.700e+00 2.400e+00 2.100e+00 1.800e+00 1.500e+00 1.200e+00 9.000e-01 6.000e-01 3.000e-01
           </DataArray>
           <DataArray type="Float32" Name="rootSegmentCarbonCostOfExudates" NumberOfComponents="1" format="ascii">
 0.000e+00 0.000e+00 0.000e+00 0.000e+00 0.000e+00 0.000e+00 0.000e+00 0.000e+00 0.000e+00 3.343e-05 2.983e-05 2.646e-05 2.305e-05 1.987e-05 1.652e-05 1.317e-05 9.537e-06 5.904e-06 1.984e-06
           </DataArray>
           <DataArray type="Float32" Name="rootSegmentDryWeight" NumberOfComponents="1" format="ascii">
 9.035e-03 8.262e-03 1.385e-02 7.138e-03 7.127e-03 1.068e-02 1.019e-02 1.041e-02 6.617e-03 4.443e-04 4.401e-04 4.365e-04 4.333e-04 4.305e-04 4.281e-04 4.262e-04 4.248e-04 4.237e-04 4.231e-04
           </DataArray>
           <DataArray type="Float32" Name="rootSegmentLength" NumberOfComponents="1" format="ascii">
 7.500e-01 6.900e-01 1.160e+00 6.000e-01 6.000e-01 9.000e-01 8.600e-01 8.800e-01 5.600e-01 7.071e-01 7.071e-01 7.071e-01 7.071e-01 7.071e-01 7.071e-01 7.071e-01 7.071e-01 7.071e-01 7.071e-01
           </DataArray>
           <DataArray type="Float32" Name="rootSegmentLengthDuration" NumberOfComponents="1" format="ascii">
 2.045e+00 1.621e+00 2.315e+00 1.020e+00 9.000e-01 1.130e+00 8.247e-01 5.387e-01 1.227e-01 2.019e+00 1.807e+00 1.595e+00 1.383e+00 1.171e+00 9.585e-01 7.464e-01 5.343e-01 3.221e-01 1.139e-01
           </DataArray>
           <DataArray type="Float32" Name="rootSegmentRespiration" NumberOfComponents="1" format="ascii">
 3.614e-04 3.305e-04 5.539e-04 3.212e-04 3.564e-04 5.872e-04 6.366e-04 7.287e-04 5.294e-04 1.777e-05 1.761e-05 1.746e-05 1.733e-05 1.937e-05 2.248e-05 2.557e-05 2.867e-05 3.178e-05 3.490e-05
           </DataArray>
           <DataArray type="Float32" Name="rootSegmentSecondaryPotentialCarbonSinkForGrowth" NumberOfComponents="1" format="ascii">
 6.642e-05 4.452e-05 5.427e-05 2.022e-05 1.574e-05 1.645e-05 9.113e-06 3.846e-06 3.721e-07 8.705e-06 6.954e-06 5.404e-06 4.053e-06 2.900e-06 1.941e-06 1.176e-06 6.033e-07 2.221e-07 3.172e-08
           </DataArray>
           <DataArray type="Float32" Name="rootSegmentSurfaceArea" NumberOfComponents="1" format="ascii">
 9.518e-01 8.730e-01 1.465e+00 7.567e-01 7.561e-01 1.133e+00 1.082e+00 1.107e+00 7.038e-01 2.049e-01 2.040e-01 2.031e-01 2.024e-01 2.017e-01 2.012e-01 2.007e-01 2.004e-01 2.001e-01 2.000e-01
           </DataArray>
           <DataArray type="Float32" Name="rootSegmentVolume" NumberOfComponents="1" format="ascii">
 9.611e-02 8.790e-02 1.473e-01 7.593e-02 7.582e-02 1.136e-01 1.084e-01 1.107e-01 7.040e-02 4.726e-03 4.682e-03 4.643e-03 4.609e-03 4.580e-03 4.555e-03 4.534e-03 4.519e-03 4.507e-03 4.501e-03
           </DataArray>
           <DataArray type="Float32" Name="rootSegmentWaterUptake" NumberOfComponents="1" format="ascii">
 4.431e-03 4.077e-03 6.853e-03 3.545e-03 3.545e-03 5.317e-03 5.065e-03 0.000e+00 0.000e+00 4.178e-03 4.178e-03 4.178e-03 4.178e-03 4.178e-03 4.178e-03 4.178e-03 4.038e-03 3.351e-03 1.437e-03
           </DataArray>
           <DataArray type="Float32" Name="spatialRootDensity" NumberOfComponents="1" format="ascii">
 3.376e-01 1.688e-01 0.000e+00 0.000e+00 0.000e+00 0.000e+00 0.000e+00 0.000e+00 0.000e+00 3.438e-01 1.790e-01 0.000e+00 0.000e+00 0.000e+00 0.000e+00 0.000e+00 0.000e+00 0.000e+00 0.000e+00
           </DataArray>
           <DataArray type="Float32" Name="volumetricWaterContentAtTheRootSurface" NumberOfComponents="1" format="ascii">
 2.034e-01 2.035e-01 2.036e-01 2.038e-01 2.039e-01 2.041e-01 2.042e-01 0.000e+00 0.000e+00 2.034e-01 2.032e-01 2.031e-01 2.030e-01 2.029e-01 2.028e-01 2.027e-01 2.025e-01 2.024e-01 2.023e-01
           </DataArray>
         </CellData>
      </Piece>
   </UnstructuredGrid>
</VTKFile>
