<?xml version="1.0"?>
<VTKFile type="UnstructuredGrid" version="0.1" byte_order="LittleEndian">
   <UnstructuredGrid>
      <Piece NumberOfPoints="1420" NumberOfCells="95">
         <Points>
            <DataArray type="Float32" Name="Position" NumberOfComponents="3" format="ascii">
0.024	-4.989	-0.024
0.027	-4.972	-0.012
0.019	-4.962	0.005
0.005	-4.963	0.020
-0.011	-4.974	0.028
-0.023	-4.991	0.025
-0.026	-5.008	0.013
-0.018	-5.018	-0.004
-0.004	-5.017	-0.020
0.012	-5.006	-0.027
0.522	-5.401	0.427
0.526	-5.386	0.441
0.520	-5.377	0.459
0.506	-5.378	0.474
0.488	-5.388	0.481
0.475	-5.403	0.476
0.470	-5.418	0.462
0.477	-5.427	0.444
0.491	-5.426	0.429
0.508	-5.416	0.423
0.949	-6.069	0.813
0.956	-6.057	0.829
0.951	-6.050	0.848
0.936	-6.050	0.863
0.917	-6.058	0.868
0.901	-6.070	0.862
0.894	-6.081	0.845
0.899	-6.088	0.826
0.914	-6.088	0.811
0.933	-6.080	0.806
1.201	-6.658	1.058
1.209	-6.648	1.075
1.205	-6.642	1.094
1.190	-6.642	1.109
1.170	-6.648	1.114
1.154	-6.658	1.106
1.146	-6.669	1.089
1.150	-6.675	1.070
1.165	-6.675	1.055
1.185	-6.668	1.050
-0.004	-4.964	-0.021
0.013	-4.960	-0.009
0.025	-4.967	0.006
0.028	-4.984	0.019
0.020	-5.002	0.025
0.005	-5.016	0.022
-0.012	-5.020	0.010
-0.024	-5.013	-0.005
-0.027	-4.997	-0.018
-0.019	-4.978	-0.024
0.448	-5.330	-0.557
0.466	-5.328	-0.546
0.477	-5.335	-0.530
0.477	-5.350	-0.515
0.467	-5.367	-0.508
0.450	-5.379	-0.510
0.432	-5.382	-0.522
0.421	-5.374	-0.538
0.421	-5.359	-0.552
0.431	-5.342	-0.560
0.834	-5.955	-1.056
0.851	-5.954	-1.044
0.860	-5.962	-1.027
0.857	-5.975	-1.011
0.844	-5.989	-1.002
0.825	-5.998	-1.004
0.808	-5.998	-1.016
0.799	-5.990	-1.034
0.801	-5.977	-1.050
0.815	-5.963	-1.058
1.060	-6.480	-1.387
1.079	-6.471	-1.387
1.100	-6.474	-1.387
1.114	-6.489	-1.387
1.118	-6.510	-1.387
1.108	-6.528	-1.387
1.089	-6.538	-1.387
1.069	-6.535	-1.387
1.054	-6.520	-1.387
1.051	-6.499	-1.387
-0.026	-4.983	0.020
-0.023	-4.967	0.008
-0.011	-4.959	-0.008
0.006	-4.963	-0.020
0.020	-4.978	-0.024
0.027	-4.997	-0.019
0.024	-5.013	-0.007
0.012	-5.021	0.008
-0.005	-5.017	0.021
-0.019	-5.002	0.025
-0.510	-5.296	-0.523
-0.505	-5.283	-0.539
-0.491	-5.280	-0.554
-0.473	-5.287	-0.563
-0.459	-5.302	-0.562
-0.453	-5.320	-0.552
-0.458	-5.333	-0.536
-0.472	-5.336	-0.521
-0.490	-5.329	-0.512
-0.504	-5.313	-0.513
-0.925	-5.906	-1.011
-0.924	-5.895	-1.029
-0.912	-5.890	-1.045
-0.893	-5.895	-1.055
-0.876	-5.906	-1.053
-0.866	-5.920	-1.041
-0.867	-5.932	-1.024
-0.879	-5.936	-1.007
-0.897	-5.932	-0.998
-0.915	-5.920	-0.999
-1.145	-6.448	-1.378
-1.136	-6.460	-1.365
-1.138	-6.471	-1.346
-1.151	-6.474	-1.330
-1.170	-6.469	-1.322
-1.187	-6.458	-1.325
-1.197	-6.445	-1.339
-1.195	-6.435	-1.357
-1.182	-6.432	-1.374
-1.163	-6.437	-1.381
0.022	-5.016	0.005
0.027	-5.001	0.019
0.021	-4.983	0.027
0.007	-4.967	0.024
-0.009	-4.960	0.013
-0.021	-4.964	-0.004
-0.026	-4.979	-0.018
-0.020	-4.997	-0.026
-0.006	-5.013	-0.023
0.010	-5.020	-0.012
-0.480	-5.362	0.493
-0.477	-5.350	0.509
-0.484	-5.332	0.519
-0.498	-5.317	0.518
-0.515	-5.310	0.508
-0.527	-5.313	0.491
-0.531	-5.326	0.475
-0.523	-5.343	0.465
-0.509	-5.358	0.465
-0.492	-5.366	0.476
-0.974	-5.957	0.911
-0.971	-5.946	0.929
-0.979	-5.932	0.942
-0.995	-5.918	0.944
-1.012	-5.911	0.935
-1.025	-5.913	0.918
-1.028	-5.923	0.900
-1.019	-5.938	0.888
-1.004	-5.951	0.886
-0.986	-5.959	0.895
-1.327	-6.427	1.215
-1.317	-6.427	1.233
-1.320	-6.427	1.254
-1.335	-6.427	1.269
-1.356	-6.427	1.272
-1.375	-6.427	1.263
-1.384	-6.427	1.244
-1.381	-6.427	1.223
-1.366	-6.427	1.208
-1.345	-6.427	1.205
-0.148	-5.000	0.149
-0.033	-5.004	0.207
0.096	-5.006	0.187
0.187	-5.006	0.095
0.207	-5.003	-0.033
0.148	-5.000	-0.149
0.033	-4.996	-0.207
-0.096	-4.994	-0.187
-0.187	-4.994	-0.095
-0.207	-4.997	0.033
-0.133	-4.250	0.163
-0.019	-4.252	0.222
0.108	-4.254	0.202
0.199	-4.254	0.111
0.219	-4.253	-0.016
0.161	-4.251	-0.131
0.047	-4.249	-0.189
-0.080	-4.247	-0.169
-0.171	-4.247	-0.078
-0.191	-4.248	0.049
-0.129	-3.560	0.162
-0.015	-3.560	0.220
0.111	-3.561	0.200
0.202	-3.561	0.110
0.222	-3.561	-0.016
0.164	-3.561	-0.130
0.050	-3.561	-0.188
-0.076	-3.560	-0.168
-0.167	-3.560	-0.078
-0.187	-3.560	0.048
-0.127	-2.400	0.161
-0.014	-2.401	0.219
0.111	-2.401	0.199
0.201	-2.401	0.109
0.221	-2.401	-0.016
0.164	-2.401	-0.129
0.050	-2.400	-0.187
-0.075	-2.400	-0.167
-0.165	-2.400	-0.078
-0.185	-2.400	0.048
-0.126	-1.800	0.161
-0.013	-1.800	0.219
0.112	-1.800	0.200
0.202	-1.801	0.110
0.222	-1.801	-0.015
0.165	-1.801	-0.128
0.052	-1.801	-0.185
-0.073	-1.801	-0.166
-0.163	-1.800	-0.077
-0.183	-1.800	0.048
-0.123	-1.200	0.158
-0.011	-1.200	0.216
0.114	-1.201	0.196
0.203	-1.201	0.107
0.223	-1.201	-0.018
0.166	-1.201	-0.131
0.054	-1.200	-0.188
-0.071	-1.200	-0.168
-0.161	-1.200	-0.079
-0.181	-1.200	0.046
-0.121	-0.301	0.163
-0.009	-0.301	0.220
0.116	-0.302	0.200
0.204	-0.302	0.111
0.224	-0.301	-0.013
0.167	-0.300	-0.125
0.055	-0.300	-0.182
-0.070	-0.299	-0.162
-0.159	-0.299	-0.073
-0.178	-0.300	0.051
-0.117	0.559	0.167
-0.005	0.559	0.224
0.119	0.558	0.204
0.208	0.558	0.115
0.227	0.559	-0.009
0.170	0.559	-0.121
0.059	0.560	-0.178
-0.065	0.560	-0.158
-0.154	0.560	-0.069
-0.174	0.560	0.055
-0.114	1.439	0.169
-0.003	1.439	0.225
0.121	1.439	0.206
0.210	1.439	0.117
0.229	1.439	-0.006
0.172	1.439	-0.118
0.061	1.440	-0.175
-0.063	1.440	-0.155
-0.151	1.440	-0.067
-0.171	1.440	0.057
-0.112	2.316	0.169
-0.001	2.316	0.226
0.122	2.316	0.206
0.210	2.316	0.118
0.230	2.316	-0.005
0.173	2.316	-0.116
0.062	2.316	-0.172
-0.061	2.316	-0.153
-0.149	2.316	-0.065
-0.168	2.316	0.058
-0.111	2.569	0.168
-0.001	2.569	0.224
0.121	2.570	0.205
0.209	2.570	0.117
0.228	2.570	-0.005
0.172	2.570	-0.115
0.062	2.569	-0.171
-0.061	2.569	-0.151
-0.148	2.569	-0.064
-0.167	2.569	0.058
0.005	-5.087	-0.007
0.013	-5.085	-0.004
0.020	-5.089	0.000
0.024	-5.096	0.004
0.022	-5.105	0.007
0.015	-5.112	0.006
0.007	-5.114	0.003
-0.001	-5.110	-0.001
-0.004	-5.103	-0.005
-0.002	-5.094	-0.008
0.317	-5.353	-0.740
0.325	-5.351	-0.736
0.332	-5.355	-0.731
0.335	-5.362	-0.726
0.332	-5.371	-0.724
0.325	-5.377	-0.724
0.317	-5.379	-0.728
0.310	-5.375	-0.733
0.307	-5.368	-0.738
0.310	-5.359	-0.740
0.404	-5.429	-0.883
0.412	-5.427	-0.879
0.419	-5.431	-0.873
0.421	-5.438	-0.868
0.418	-5.446	-0.865
0.411	-5.453	-0.866
0.403	-5.454	-0.870
0.396	-5.451	-0.876
0.394	-5.443	-0.881
0.397	-5.435	-0.884
0.023	-5.190	-0.013
0.023	-5.185	-0.005
0.022	-5.185	0.004
0.021	-5.190	0.012
0.018	-5.199	0.014
0.017	-5.208	0.011
0.016	-5.213	0.003
0.017	-5.213	-0.006
0.019	-5.208	-0.013
0.022	-5.199	-0.016
0.833	-5.367	0.074
0.833	-5.362	0.082
0.833	-5.363	0.091
0.832	-5.369	0.098
0.831	-5.377	0.100
0.829	-5.386	0.097
0.829	-5.391	0.089
0.829	-5.390	0.080
0.830	-5.384	0.072
0.831	-5.375	0.070
1.296	-5.420	0.036
1.297	-5.416	0.044
1.297	-5.417	0.053
1.297	-5.423	0.060
1.296	-5.432	0.061
1.295	-5.441	0.057
1.294	-5.445	0.049
1.293	-5.444	0.040
1.293	-5.437	0.033
1.294	-5.428	0.032
0.102	-6.106	-0.026
0.103	-6.100	-0.020
0.101	-6.092	-0.016
0.094	-6.085	-0.016
0.087	-6.082	-0.021
0.081	-6.084	-0.028
0.079	-6.090	-0.035
0.082	-6.098	-0.039
0.089	-6.105	-0.038
0.096	-6.108	-0.034
-0.433	-6.566	0.514
-0.432	-6.561	0.521
-0.435	-6.553	0.526
-0.442	-6.547	0.526
-0.449	-6.544	0.522
-0.455	-6.546	0.515
-0.457	-6.551	0.508
-0.454	-6.559	0.503
-0.447	-6.565	0.503
-0.439	-6.568	0.507
-0.513	-6.679	0.606
-0.511	-6.674	0.614
-0.514	-6.667	0.619
-0.521	-6.661	0.620
-0.529	-6.658	0.617
-0.535	-6.660	0.610
-0.537	-6.665	0.602
-0.534	-6.671	0.597
-0.527	-6.677	0.596
-0.519	-6.680	0.599
0.100	-6.186	-0.047
0.097	-6.180	-0.040
0.094	-6.181	-0.031
0.092	-6.186	-0.024
0.092	-6.195	-0.021
0.094	-6.204	-0.023
0.097	-6.209	-0.030
0.100	-6.209	-0.039
0.102	-6.203	-0.046
0.102	-6.194	-0.049
0.856	-6.085	0.199
0.853	-6.079	0.206
0.851	-6.079	0.215
0.849	-6.084	0.223
0.848	-6.093	0.226
0.849	-6.102	0.223
0.851	-6.107	0.216
0.854	-6.108	0.207
0.856	-6.102	0.200
0.857	-6.094	0.197
1.008	-6.097	0.242
1.006	-6.091	0.249
1.004	-6.090	0.258
1.001	-6.095	0.266
1.000	-6.104	0.269
1.000	-6.113	0.266
1.001	-6.118	0.259
1.004	-6.119	0.250
1.006	-6.114	0.243
1.008	-6.106	0.240
0.113	-6.292	-0.054
0.116	-6.286	-0.047
0.114	-6.283	-0.038
0.108	-6.285	-0.031
0.101	-6.290	-0.028
0.095	-6.297	-0.031
0.093	-6.302	-0.037
0.095	-6.305	-0.046
0.100	-6.304	-0.053
0.108	-6.299	-0.056
0.620	-6.836	0.235
0.622	-6.830	0.242
0.620	-6.828	0.251
0.615	-6.829	0.258
0.608	-6.834	0.261
0.602	-6.841	0.258
0.599	-6.847	0.252
0.601	-6.850	0.243
0.607	-6.848	0.236
0.614	-6.843	0.233
0.115	-6.406	-0.041
0.119	-6.398	-0.037
0.119	-6.389	-0.037
0.117	-6.382	-0.042
0.112	-6.379	-0.050
0.107	-6.382	-0.057
0.104	-6.389	-0.062
0.104	-6.398	-0.061
0.106	-6.406	-0.056
0.111	-6.409	-0.049
-0.561	-6.353	0.381
-0.558	-6.346	0.386
-0.558	-6.337	0.386
-0.561	-6.329	0.381
-0.566	-6.326	0.374
-0.570	-6.329	0.366
-0.572	-6.337	0.361
-0.572	-6.346	0.361
-0.569	-6.353	0.366
-0.565	-6.356	0.373
-0.712	-6.375	0.452
-0.711	-6.368	0.458
-0.712	-6.358	0.458
-0.715	-6.351	0.454
-0.719	-6.348	0.446
-0.722	-6.351	0.438
-0.724	-6.358	0.433
-0.723	-6.367	0.432
-0.720	-6.375	0.436
-0.716	-6.378	0.444
0.133	-6.499	-0.062
0.135	-6.491	-0.058
0.132	-6.484	-0.053
0.125	-6.480	-0.048
0.116	-6.482	-0.047
0.109	-6.488	-0.048
0.106	-6.496	-0.053
0.109	-6.503	-0.058
0.117	-6.506	-0.062
0.126	-6.504	-0.064
0.263	-6.834	0.512
0.271	-6.834	0.516
0.280	-6.834	0.515
0.287	-6.834	0.508
0.288	-6.834	0.499
0.284	-6.834	0.491
0.276	-6.834	0.487
0.266	-6.834	0.488
0.260	-6.834	0.495
0.258	-6.834	0.504
0.119	-6.591	-0.051
0.121	-6.583	-0.055
0.126	-6.578	-0.061
0.133	-6.579	-0.067
0.139	-6.585	-0.071
0.142	-6.594	-0.071
0.140	-6.602	-0.067
0.135	-6.607	-0.061
0.128	-6.606	-0.055
0.122	-6.600	-0.051
-0.455	-6.742	-0.691
-0.453	-6.733	-0.695
-0.448	-6.729	-0.700
-0.441	-6.730	-0.707
-0.435	-6.736	-0.710
-0.432	-6.745	-0.710
-0.434	-6.753	-0.707
-0.440	-6.758	-0.701
-0.447	-6.757	-0.695
-0.452	-6.751	-0.691
0.148	-6.704	-0.058
0.149	-6.697	-0.052
0.147	-6.688	-0.051
0.143	-6.681	-0.054
0.138	-6.677	-0.061
0.134	-6.680	-0.069
0.133	-6.687	-0.075
0.135	-6.695	-0.077
0.139	-6.703	-0.074
0.144	-6.706	-0.066
[...]
         <CellData>
           <DataArray type="Float32" Name="combinedRootClassID" NumberOfComponents="1" format="ascii">
 -5.000e+00 -5.000e+00 -5.000e+00 -5.000e+00 -5.000e+00 -5.000e+00 -5.000e+00 -5.000e+00 -5.000e+00 -5.000e+00 -5.000e+00 -5.000e+00 -2.000e+00 -2.000e+00 -2.000e+00 -2.000e+00 -2.000e+00 -2.000e+00 -2.000e+00 -2.000e+00 -2.000e+00 -2.000e+00 -7.000e+00 -7.000e+00 -7.000e+00 -7.000e+00 -7.000e+00 -7.000e+00 -7.000e+00 -7.000e+00 -7.000e+00 -7.000e+00 -7.000e+00 -7.000e+00 -7.000e+00 -7.000e+00 -7.000e+00 -7.000e+00 -7.000e+00 -7.000e+00 -7.000e+00 -7.000e+00 -7.000e+00 -7.000e+00 -7.000e+00 -7.000e+00 -7.000e+00 -7.000e+00 -7.000e+00 -7.000e+00 -7.000e+00 -7.000e+00 -7.000e+00 -7.000e+00 -7.000e+00 -7.000e+00 -7.000e+00 -7.000e+00 -7.000e+00 -7.000e+00 -7.000e+00 -7.000e+00 -7.000e+00 -7.000e+00 -7.000e+00 -7.000e+00 -7.000e+00 -7.000e+00 -7.000e+00 -7.000e+00 -7.000e+00 -7.000e+00 -7.000e+00 -7.000e+00 -7.000e+00 -4.000e+00 -4.000e+00 -4.000e+00 -4.000e+00 -4.000e+00 -4.000e+00 -4.000e+00 -4.000e+00 -4.000e+00 -4.000e+00 -4.000e+00 -4.000e+00 -4.000e+00 -4.000e+00 -4.000e+00 -4.000e+00 -4.000e+00 -4.000e+00 -4.000e+00 -4.000e+00
           </DataArray>
           <DataArray type="Float32" Name="nitrate/Cmin" NumberOfComponents="1" format="ascii">
 1.000e-03 1.000e-03 1.000e-03 1.000e-03 1.000e-03 1.000e-03 1.000e-03 1.000e-03 1.000e-03 1.000e-03 1.000e-03 1.000e-03 1.000e-03 1.000e-03 1.000e-03 1.000e-03 1.000e-03 1.000e-03 1.000e-03 1.000e-03 1.000e-03 1.000e-03 1.000e-03 1.000e-03 1.000e-03 1.000e-03 1.000e-03 1.000e-03 1.000e-03 1.000e-03 1.000e-03 1.000e-03 1.000e-03 1.000e-03 1.000e-03 1.000e-03 1.000e-03 1.000e-03 1.000e-03 1.000e-03 1.000e-03 1.000e-03 1.000e-03 1.000e-03 1.000e-03 1.000e-03 1.000e-03 1.000e-03 1.000e-03 1.000e-03 1.000e-03 1.000e-03 1.000e-03 1.000e-03 1.000e-03 1.000e-03 1.000e-03 1.000e-03 1.000e-03 1.000e-03 1.000e-03 1.000e-03 1.000e-03 1.000e-03 1.000e-03 1.000e-03 1.000e-03 1.000e-03 1.000e-03 1.000e-03 1.000e-03 1.000e-03 1.000e-03 1.000e-03 1.000e-03 1.000e-03 1.000e-03 1.000e-03 1.000e-03 1.000e-03 1.000e-03 1.000e-03 1.000e-03 1.000e-03 1.000e-03 1.000e-03 1.000e-03 1.000e-03 1.000e-03 1.000e-03 1.000e-03 1.000e-03 1.000e-03 1.000e-03 1.000e-03
           </DataArray>
           <DataArray type="Float32" Name="nitrate/Imax" NumberOfComponents="1" format="ascii">
 1.900e+00 1.900e+00 1.900e+00 1.900e+00 1.900e+00 1.900e+00 1.900e+00 1.900e+00 1.900e+00 1.900e+00 1.900e+00 1.900e+00 1.900e+00 1.900e+00 1.900e+00 1.900e+00 1.900e+00 1.900e+00 1.900e+00 1.900e+00 1.900e+00 1.900e+00 1.900e+00 1.900e+00 1.900e+00 1.900e+00 1.900e+00 1.900e+00 1.900e+00 1.900e+00 1.900e+00 1.900e+00 1.900e+00 1.900e+00 1.900e+00 1.900e+00 1.900e+00 1.900e+00 1.900e+00 1.900e+00 1.900e+00 1.900e+00 1.900e+00 1.900e+00 1.900e+00 1.900e+00 1.900e+00 1.900e+00 1.900e+00 1.900e+00 1.900e+00 1.900e+00 1.900e+00 1.900e+00 1.900e+00 1.900e+00 1.900e+00 1.900e+00 1.900e+00 1.900e+00 1.900e+00 1.900e+00 1.900e+00 1.900e+00 1.900e+00 1.900e+00 1.900e+00 1.900e+00 1.900e+00 1.900e+00 1.900e+00 1.900e+00 1.900e+00 1.900e+00 1.900e+00 1.900e+00 1.900e+00 1.900e+00 1.900e+00 1.900e+00 1.900e+00 1.900e+00 1.900e+00 1.900e+00 1.900e+00 1.900e+00 1.900e+00 1.900e+00 1.900e+00 1.900e+00 1.900e+00 1.900e+00 1.900e+00 1.900e+00 1.900e+00
           </DataArray>
           <DataArray type="Float32" Name="nitrate/Km" NumberOfComponents="1" format="ascii">
 1.610e-02 1.610e-02 1.610e-02 1.610e-02 1.610e-02 1.610e-02 1.610e-02 1.610e-02 1.610e-02 1.610e-02 1.610e-02 1.610e-02 1.610e-02 1.610e-02 1.610e-02 1.610e-02 1.610e-02 1.610e-02 1.610e-02 1.610e-02 1.610e-02 1.610e-02 1.610e-02 1.610e-02 1.610e-02 1.610e-02 1.610e-02 1.610e-02 1.610e-02 1.610e-02 1.610e-02 1.610e-02 1.610e-02 1.610e-02 1.610e-02 1.610e-02 1.610e-02 1.610e-02 1.610e-02 1.610e-02 1.610e-02 1.610e-02 1.610e-02 1.610e-02 1.610e-02 1.610e-02 1.610e-02 1.610e-02 1.610e-02 1.610e-02 1.610e-02 1.610e-02 1.610e-02 1.610e-02 1.610e-02 1.610e-02 1.610e-02 1.610e-02 1.610e-02 1.610e-02 1.610e-02 1.610e-02 1.610e-02 1.610e-02 1.610e-02 1.610e-02 1.610e-02 1.610e-02 1.610e-02 1.610e-02 1.610e-02 1.610e-02 1.610e-02 1.610e-02 1.610e-02 1.610e-02 1.610e-02 1.610e-02 1.610e-02 1.610e-02 1.610e-02 1.610e-02 1.610e-02 1.610e-02 1.610e-02 1.610e-02 1.610e-02 1.610e-02 1.610e-02 1.610e-02 1.610e-02 1.610e-02 1.610e-02 1.610e-02 1.610e-02
           </DataArray>
           <DataArray type="Float32" Name="nitrate/minimalNutrientConcentration" NumberOfComponents="1" format="ascii">
 6.000e+02 6.000e+02 6.000e+02 6.000e+02 6.000e+02 6.000e+02 6.000e+02 6.000e+02 6.000e+02 6.000e+02 6.000e+02 6.000e+02 6.000e+02 6.000e+02 6.000e+02 6.000e+02 6.000e+02 6.000e+02 6.000e+02 6.000e+02 6.000e+02 6.000e+02 6.000e+02 6.000e+02 6.000e+02 6.000e+02 6.000e+02 6.000e+02 6.000e+02 6.000e+02 6.000e+02 6.000e+02 6.000e+02 6.000e+02 6.000e+02 6.000e+02 6.000e+02 6.000e+02 6.000e+02 6.000e+02 6.000e+02 6.000e+02 6.000e+02 6.000e+02 6.000e+02 6.000e+02 6.000e+02 6.000e+02 6.000e+02 6.000e+02 6.000e+02 6.000e+02 6.000e+02 6.000e+02 6.000e+02 6.000e+02 6.000e+02 6.000e+02 6.000e+02 6.000e+02 6.000e+02 6.000e+02 6.000e+02 6.000e+02 6.000e+02 6.000e+02 6.000e+02 6.000e+02 6.000e+02 6.000e+02 6.000e+02 6.000e+02 6.000e+02 6.000e+02 6.000e+02 6.000e+02 6.000e+02 6.000e+02 6.000e+02 6.000e+02 6.000e+02 6.000e+02 6.000e+02 6.000e+02 6.000e+02 6.000e+02 6.000e+02 6.000e+02 6.000e+02 6.000e+02 6.000e+02 6.000e+02 6.000e+02 6.000e+02 6.000e+02
           </DataArray>
           <DataArray type="Float32" Name="nitrate/nutrientConcentrationAtTheRootSurface" NumberOfComponents="1" format="ascii">
 3.474e-01 3.770e-01 4.479e-01 3.474e-01 3.565e-01 4.510e-01 3.474e-01 3.845e-01 4.652e-01 3.474e-01 3.764e-01 4.327e-01 3.474e-01 3.428e-01 3.353e-01 2.929e-01 2.650e-01 2.442e-01 2.008e-01 0.000e+00 0.000e+00 0.000e+00 3.476e-01 3.642e-01 3.489e-01 3.979e-01 3.616e-01 4.309e-01 3.648e-01 4.199e-01 3.683e-01 3.755e-01 4.014e-01 3.838e-01 3.932e-01 3.998e-01 4.014e-01 4.016e-01 4.019e-01 3.530e-01 3.963e-01 4.026e-01 4.067e-01 4.084e-01 4.107e-01 4.194e-01 4.143e-01 4.111e-01 4.127e-01 4.116e-01 4.106e-01 3.544e-01 3.973e-01 4.117e-01 4.142e-01 4.160e-01 4.161e-01 4.168e-01 4.157e-01 4.103e-01 4.079e-01 4.039e-01 4.029e-01 3.555e-01 3.889e-01 4.024e-01 3.561e-01 3.966e-01 3.562e-01 3.921e-01 3.588e-01 3.606e-01 3.939e-01 3.607e-01 4.167e-01 3.474e-01 3.556e-01 3.763e-01 4.039e-01 4.122e-01 4.166e-01 4.049e-01 4.013e-01 4.319e-01 4.333e-01 4.060e-01 3.763e-01 3.683e-01 3.535e-01 4.122e-01 4.261e-01 4.234e-01 4.097e-01 4.082e-01 4.038e-01
           </DataArray>
           <DataArray type="Float32" Name="nitrate/optimalNutrientConcentration" NumberOfComponents="1" format="ascii">
 1.200e+03 1.200e+03 1.200e+03 1.200e+03 1.200e+03 1.200e+03 1.200e+03 1.200e+03 1.200e+03 1.200e+03 1.200e+03 1.200e+03 1.200e+03 1.200e+03 1.200e+03 1.200e+03 1.200e+03 1.200e+03 1.200e+03 1.200e+03 1.200e+03 1.200e+03 1.200e+03 1.200e+03 1.200e+03 1.200e+03 1.200e+03 1.200e+03 1.200e+03 1.200e+03 1.200e+03 1.200e+03 1.200e+03 1.200e+03 1.200e+03 1.200e+03 1.200e+03 1.200e+03 1.200e+03 1.200e+03 1.200e+03 1.200e+03 1.200e+03 1.200e+03 1.200e+03 1.200e+03 1.200e+03 1.200e+03 1.200e+03 1.200e+03 1.200e+03 1.200e+03 1.200e+03 1.200e+03 1.200e+03 1.200e+03 1.200e+03 1.200e+03 1.200e+03 1.200e+03 1.200e+03 1.200e+03 1.200e+03 1.200e+03 1.200e+03 1.200e+03 1.200e+03 1.200e+03 1.200e+03 1.200e+03 1.200e+03 1.200e+03 1.200e+03 1.200e+03 1.200e+03 1.200e+03 1.200e+03 1.200e+03 1.200e+03 1.200e+03 1.200e+03 1.200e+03 1.200e+03 1.200e+03 1.200e+03 1.200e+03 1.200e+03 1.200e+03 1.200e+03 1.200e+03 1.200e+03 1.200e+03 1.200e+03 1.200e+03 1.200e+03
           </DataArray>
           <DataArray type="Float32" Name="nitrate/rootSegmentMinimalNutrientContent" NumberOfComponents="1" format="ascii">
 1.632e-01 1.811e-01 1.406e-01 1.632e-01 1.811e-01 1.406e-01 1.632e-01 1.811e-01 1.406e-01 1.632e-01 1.811e-01 1.406e-01 5.806e+00 5.260e+00 8.735e+00 4.488e+00 4.462e+00 6.659e+00 6.322e+00 6.436e+00 6.333e+00 1.809e+00 3.470e-02 7.349e-03 3.374e-02 1.886e-02 3.662e-02 6.710e-03 3.327e-02 6.343e-03 3.276e-02 3.282e-02 6.809e-03 2.747e-02 3.550e-02 3.039e-02 3.281e-02 2.477e-02 2.759e-02 3.653e-02 1.187e-02 2.516e-02 2.019e-02 2.222e-02 2.419e-02 2.245e-02 2.087e-02 1.896e-02 1.679e-02 1.566e-02 1.486e-02 3.678e-02 1.237e-02 1.183e-02 1.257e-02 1.085e-02 9.587e-03 8.374e-03 5.972e-03 5.461e-03 4.823e-03 3.363e-03 1.820e-03 3.480e-02 1.214e-02 5.152e-04 3.465e-02 5.315e-03 3.437e-02 1.296e-02 3.476e-02 3.539e-02 6.017e-03 3.354e-02 5.916e-03 3.227e-01 3.135e-01 3.050e-01 2.972e-01 2.901e-01 2.842e-01 2.794e-01 2.756e-01 2.723e-01 2.693e-01 2.666e-01 2.641e-01 2.619e-01 2.600e-01 2.583e-01 2.569e-01 2.557e-01 2.549e-01 2.542e-01 2.538e-01
           </DataArray>
           <DataArray type="Float32" Name="nitrate/rootSegmentNutrientUptake" NumberOfComponents="1" format="ascii">
 0.000e+00 1.009e-01 4.043e-02 0.000e+00 9.663e-02 4.052e-02 0.000e+00 1.014e-01 4.149e-02 0.000e+00 1.001e-01 3.919e-02 0.000e+00 4.779e-01 4.350e-01 3.442e-01 2.943e-01 2.449e-01 1.762e-01 0.000e+00 0.000e+00 0.000e+00 0.000e+00 6.320e-03 0.000e+00 2.851e-02 0.000e+00 4.351e-03 0.000e+00 4.109e-03 0.000e+00 0.000e+00 4.406e-03 0.000e+00 0.000e+00 0.000e+00 0.000e+00 0.000e+00 0.000e+00 0.000e+00 1.281e-02 0.000e+00 0.000e+00 0.000e+00 0.000e+00 0.000e+00 0.000e+00 0.000e+00 0.000e+00 0.000e+00 0.000e+00 0.000e+00 1.336e-02 0.000e+00 0.000e+00 0.000e+00 0.000e+00 0.000e+00 0.000e+00 0.000e+00 0.000e+00 0.000e+00 0.000e+00 0.000e+00 1.310e-02 0.000e+00 0.000e+00 3.437e-03 0.000e+00 1.398e-02 0.000e+00 0.000e+00 3.891e-03 0.000e+00 3.832e-03 0.000e+00 5.462e-01 5.469e-01 5.424e-01 5.457e-01 5.468e-01 5.259e-01 5.078e-01 5.056e-01 4.754e-01 4.204e-01 3.652e-01 3.190e-01 2.738e-01 2.672e-01 2.307e-01 1.847e-01 1.346e-01 8.760e-02 4.171e-02
           </DataArray>
           <DataArray type="Float32" Name="nitrate/rootSegmentOptimalNutrientContent" NumberOfComponents="1" format="ascii">
 3.265e-01 3.621e-01 2.812e-01 3.265e-01 3.621e-01 2.812e-01 3.265e-01 3.621e-01 2.812e-01 3.265e-01 3.621e-01 2.812e-01 1.161e+01 1.052e+01 1.747e+01 8.976e+00 8.924e+00 1.332e+01 1.264e+01 1.287e+01 1.267e+01 3.619e+00 6.940e-02 1.470e-02 6.748e-02 3.771e-02 7.324e-02 1.342e-02 6.653e-02 1.269e-02 6.551e-02 6.563e-02 1.362e-02 5.494e-02 7.101e-02 6.077e-02 6.562e-02 4.955e-02 5.517e-02 7.306e-02 2.373e-02 5.031e-02 4.037e-02 4.444e-02 4.838e-02 4.490e-02 4.174e-02 3.792e-02 3.359e-02 3.131e-02 2.972e-02 7.355e-02 2.475e-02 2.366e-02 2.514e-02 2.170e-02 1.917e-02 1.675e-02 1.194e-02 1.092e-02 9.646e-03 6.727e-03 3.640e-03 6.961e-02 2.429e-02 1.030e-03 6.930e-02 1.063e-02 6.875e-02 2.591e-02 6.952e-02 7.078e-02 1.203e-02 6.708e-02 1.183e-02 6.454e-01 6.270e-01 6.100e-01 5.944e-01 5.802e-01 5.683e-01 5.587e-01 5.512e-01 5.446e-01 5.386e-01 5.331e-01 5.282e-01 5.238e-01 5.199e-01 5.166e-01 5.138e-01 5.115e-01 5.097e-01 5.084e-01 5.077e-01
           </DataArray>
           <DataArray type="Float32" Name="parentRootClassID" NumberOfComponents="1" format="ascii">
 -2.000e+00 -2.000e+00 -2.000e+00 -2.000e+00 -2.000e+00 -2.000e+00 -2.000e+00 -2.000e+00 -2.000e+00 -2.000e+00 -2.000e+00 -2.000e+00 -3.000e+00 -3.000e+00 -3.000e+00 -3.000e+00 -3.000e+00 -3.000e+00 -3.000e+00 -3.000e+00 -3.000e+00 -3.000e+00 -4.000e+00 -4.000e+00 -4.000e+00 -4.000e+00 -4.000e+00 -4.000e+00 -4.000e+00 -4.000e+00 -4.000e+00 -4.000e+00 -4.000e+00 -4.000e+00 -4.000e+00 -4.000e+00 -4.000e+00 -4.000e+00 -4.000e+00 -4.000e+00 -4.000e+00 -4.000e+00 -4.000e+00 -4.000e+00 -4.000e+00 -4.000e+00 -4.000e+00 -4.000e+00 -4.000e+00 -4.000e+00 -4.000e+00 -4.000e+00 -4.000e+00 -4.000e+00 -4.000e+00 -4.000e+00 -4.000e+00 -4.000e+00 -4.000e+00 -4.000e+00 -4.000e+00 -4.000e+00 -4.000e+00 -4.000e+00 -4.000e+00 -4.000e+00 -4.000e+00 -4.000e+00 -4.000e+00 -4.000e+00 -4.000e+00 -4.000e+00 -4.000e+00 -4.000e+00 -4.000e+00 -3.000e+00 -3.000e+00 -3.000e+00 -3.000e+00 -3.000e+00 -3.000e+00 -3.000e+00 -3.000e+00 -3.000e+00 -3.000e+00 -3.000e+00 -3.000e+00 -3.000e+00 -3.000e+00 -3.000e+00 -3.000e+00 -3.000e+00 -3.000e+00 -3.000e+00 -3.000e+00
           </DataArray>
           <DataArray type="Float32" Name="plantID" NumberOfComponents="1" format="ascii">
 7.000e+00 7.000e+00 7.000e+00 7.000e+00 7.000e+00 7.000e+00 7.000e+00 7.000e+00 7.000e+00 7.000e+00 7.000e+00 7.000e+00 7.000e+00 7.000e+00 7.000e+00 7.000e+00 7.000e+00 7.000e+00 7.000e+00 7.000e+00 7.000e+00 7.000e+00 7.000e+00 7.000e+00 7.000e+00 7.000e+00 7.000e+00 7.000e+00 7.000e+00 7.000e+00 7.000e+00 7.000e+00 7.000e+00 7.000e+00 7.000e+00 7.000e+00 7.000e+00 7.000e+00 7.000e+00 7.000e+00 7.000e+00 7.000e+00 7.000e+00 7.000e+00 7.000e+00 7.000e+00 7.000e+00 7.000e+00 7.000e+00 7.000e+00 7.000e+00 7.000e+00 7.000e+00 7.000e+00 7.000e+00 7.000e+00 7.000e+00 7.000e+00 7.000e+00 7.000e+00 7.000e+00 7.000e+00 7.000e+00 7.000e+00 7.000e+00 7.000e+00 7.000e+00 7.000e+00 7.000e+00 7.000e+00 7.000e+00 7.000e+00 7.000e+00 7.000e+00 7.000e+00 7.000e+00 7.000e+00 7.000e+00 7.000e+00 7.000e+00 7.000e+00 7.000e+00 7.000e+00 7.000e+00 7.000e+00 7.000e+00 7.000e+00 7.000e+00 7.000e+00 7.000e+00 7.000e+00 7.000e+00 7.000e+00 7.000e+00 7.000e+00
           </DataArray>
           <DataArray type="Float32" Name="plantTypeID" NumberOfComponents="1" format="ascii">
 0.000e+00 0.000e+00 0.000e+00 0.000e+00 0.000e+00 0.000e+00 0.000e+00 0.000e+00 0.000e+00 0.000e+00 0.000e+00 0.000e+00 0.000e+00 0.000e+00 0.000e+00 0.000e+00 0.000e+00 0.000e+00 0.000e+00 0.000e+00 0.000e+00 0.000e+00 0.000e+00 0.000e+00 0.000e+00 0.000e+00 0.000e+00 0.000e+00 0.000e+00 0.000e+00 0.000e+00 0.000e+00 0.000e+00 0.000e+00 0.000e+00 0.000e+00 0.000e+00 0.000e+00 0.000e+00 0.000e+00 0.000e+00 0.000e+00 0.000e+00 0.000e+00 0.000e+00 0.000e+00 0.000e+00 0.000e+00 0.000e+00 0.000e+00 0.000e+00 0.000e+00 0.000e+00 0.000e+00 0.000e+00 0.000e+00 0.000e+00 0.000e+00 0.000e+00 0.000e+00 0.000e+00 0.000e+00 0.000e+00 0.000e+00 0.000e+00 0.000e+00 0.000e+00 0.000e+00 0.000e+00 0.000e+00 0.000e+00 0.000e+00 0.000e+00 0.000e+00 0.000e+00 0.000e+00 0.000e+00 0.000e+00 0.000e+00 0.000e+00 0.000e+00 0.000e+00 0.000e+00 0.000e+00 0.000e+00 0.000e+00 0.000e+00 0.000e+00 0.000e+00 0.000e+00 0.000e+00 0.000e+00 0.000e+00 0.000e+00 0.000e+00
           </DataArray>
           <DataArray type="Float32" Name="rootCircumference" NumberOfComponents="1" format="ascii">
 2.136e-01 2.136e-01 2.136e-01 2.136e-01 2.136e-01 2.136e-01 2.136e-01 2.136e-01 2.136e-01 2.136e-01 2.136e-01 2.136e-01 1.320e+00 1.307e+00 1.300e+00 1.291e+00 1.287e+00 1.284e+00 1.280e+00 1.276e+00 1.273e+00 1.265e+00 9.431e-02 9.425e-02 9.430e-02 9.425e-02 9.428e-02 9.425e-02 9.428e-02 9.425e-02 9.428e-02 9.427e-02 9.425e-02 9.427e-02 9.427e-02 9.427e-02 9.427e-02 9.427e-02 9.426e-02 9.430e-02 9.425e-02 9.426e-02 9.426e-02 9.426e-02 9.426e-02 9.426e-02 9.426e-02 9.426e-02 9.425e-02 9.425e-02 9.425e-02 9.430e-02 9.425e-02 9.425e-02 9.425e-02 9.425e-02 9.425e-02 9.425e-02 9.425e-02 9.425e-02 9.425e-02 9.425e-02 9.425e-02 9.429e-02 9.425e-02 9.425e-02 9.429e-02 9.425e-02 9.429e-02 9.425e-02 9.429e-02 9.428e-02 9.425e-02 9.428e-02 9.425e-02 3.189e-01 3.143e-01 3.100e-01 3.060e-01 3.023e-01 2.992e-01 2.967e-01 2.947e-01 2.929e-01 2.913e-01 2.898e-01 2.885e-01 2.873e-01 2.862e-01 2.853e-01 2.845e-01 2.839e-01 2.834e-01 2.830e-01 2.828e-01
           </DataArray>
           <DataArray type="Float32" Name="rootClassID" NumberOfComponents="1" format="ascii">
 9.900e+01 9.900e+01 9.900e+01 9.900e+01 9.900e+01 9.900e+01 9.900e+01 9.900e+01 9.900e+01 9.900e+01 9.900e+01 9.900e+01 -2.000e+00 -2.000e+00 -2.000e+00 -2.000e+00 -2.000e+00 -2.000e+00 -2.000e+00 -2.000e+00 -2.000e+00 -2.000e+00 9.700e+01 9.700e+01 9.700e+01 9.700e+01 9.700e+01 9.700e+01 9.700e+01 9.700e+01 9.700e+01 9.700e+01 9.700e+01 9.700e+01 9.700e+01 9.700e+01 9.700e+01 9.700e+01 9.700e+01 9.700e+01 9.700e+01 9.700e+01 9.700e+01 9.700e+01 9.700e+01 9.700e+01 9.700e+01 9.700e+01 9.700e+01 9.700e+01 9.700e+01 9.700e+01 9.700e+01 9.700e+01 9.700e+01 9.700e+01 9.700e+01 9.700e+01 9.700e+01 9.700e+01 9.700e+01 9.700e+01 9.700e+01 9.700e+01 9.700e+01 9.700e+01 9.700e+01 9.700e+01 9.700e+01 9.700e+01 9.700e+01 9.700e+01 9.700e+01 9.700e+01 9.700e+01 -4.000e+00 -4.000e+00 -4.000e+00 -4.000e+00 -4.000e+00 -4.000e+00 -4.000e+00 -4.000e+00 -4.000e+00 -4.000e+00 -4.000e+00 -4.000e+00 -4.000e+00 -4.000e+00 -4.000e+00 -4.000e+00 -4.000e+00 -4.000e+00 -4.000e+00 -4.000e+00
           </DataArray>
           <DataArray type="Float32" Name="rootDiameter" NumberOfComponents="1" format="ascii">
 6.800e-02 6.800e-02 6.800e-02 6.800e-02 6.800e-02 6.800e-02 6.800e-02 6.800e-02 6.800e-02 6.800e-02 6.800e-02 6.800e-02 4.201e-01 4.160e-01 4.137e-01 4.109e-01 4.097e-01 4.087e-01 4.074e-01 4.063e-01 4.051e-01 4.027e-01 3.002e-02 3.000e-02 3.002e-02 3.000e-02 3.001e-02 3.000e-02 3.001e-02 3.000e-02 3.001e-02 3.001e-02 3.000e-02 3.001e-02 3.001e-02 3.001e-02 3.001e-02 3.001e-02 3.001e-02 3.002e-02 3.000e-02 3.000e-02 3.000e-02 3.000e-02 3.000e-02 3.000e-02 3.000e-02 3.000e-02 3.000e-02 3.000e-02 3.000e-02 3.002e-02 3.000e-02 3.000e-02 3.000e-02 3.000e-02 3.000e-02 3.000e-02 3.000e-02 3.000e-02 3.000e-02 3.000e-02 3.000e-02 3.001e-02 3.000e-02 3.000e-02 3.001e-02 3.000e-02 3.001e-02 3.000e-02 3.001e-02 3.001e-02 3.000e-02 3.001e-02 3.000e-02 1.015e-01 1.000e-01 9.868e-02 9.741e-02 9.624e-02 9.525e-02 9.444e-02 9.380e-02 9.324e-02 9.272e-02 9.225e-02 9.182e-02 9.144e-02 9.110e-02 9.081e-02 9.056e-02 9.036e-02 9.020e-02 9.009e-02 9.002e-02
           </DataArray>
           <DataArray type="Float32" Name="rootHairDensity" NumberOfComponents="1" format="ascii">
 2.000e+03 2.000e+03 2.000e+03 2.000e+03 2.000e+03 2.000e+03 2.000e+03 2.000e+03 2.000e+03 2.000e+03 2.000e+03 2.000e+03 0.000e+00 0.000e+00 0.000e+00 0.000e+00 0.000e+00 0.000e+00 0.000e+00 0.000e+00 0.000e+00 0.000e+00 2.000e+03 2.000e+03 2.000e+03 2.000e+03 2.000e+03 2.000e+03 2.000e+03 2.000e+03 2.000e+03 2.000e+03 2.000e+03 2.000e+03 2.000e+03 2.000e+03 2.000e+03 2.000e+03 2.000e+03 2.000e+03 2.000e+03 2.000e+03 2.000e+03 2.000e+03 2.000e+03 2.000e+03 2.000e+03 2.000e+03 2.000e+03 2.000e+03 2.000e+03 2.000e+03 2.000e+03 2.000e+03 2.000e+03 2.000e+03 2.000e+03 2.000e+03 2.000e+03 2.000e+03 2.000e+03 2.000e+03 2.000e+03 2.000e+03 2.000e+03 2.000e+03 2.000e+03 2.000e+03 2.000e+03 2.000e+03 2.000e+03 2.000e+03 2.000e+03 2.000e+03 2.000e+03 2.000e+03 2.000e+03 2.000e+03 2.000e+03 2.000e+03 2.000e+03 2.000e+03 2.000e+03 2.000e+03 2.000e+03 2.000e+03 2.000e+03 2.000e+03 2.000e+03 2.000e+03 2.000e+03 2.000e+03 2.000e+03 2.000e+03 2.000e+03
           </DataArray>
           <DataArray type="Float32" Name="rootHairDiameter" NumberOfComponents="1" format="ascii">
 5.000e-04 5.000e-04 5.000e-04 5.000e-04 5.000e-04 5.000e-04 5.000e-04 5.000e-04 5.000e-04 5.000e-04 5.000e-04 5.000e-04 5.000e-04 5.000e-04 5.000e-04 5.000e-04 5.000e-04 5.000e-04 5.000e-04 5.000e-04 5.000e-04 5.000e-04 5.000e-04 5.000e-04 5.000e-04 5.000e-04 5.000e-04 5.000e-04 5.000e-04 5.000e-04 5.000e-04 5.000e-04 5.000e-04 5.000e-04 5.000e-04 5.000e-04 5.000e-04 5.000e-04 5.000e-04 5.000e-04 5.000e-04 5.000e-04 5.000e-04 5.000e-04 5.000e-04 5.000e-04 5.000e-04 5.000e-04 5.000e-04 5.000e-04 5.000e-04 5.000e-04 5.000e-04 5.000e-04 5.000e-04 5.000e-04 5.000e-04 5.000e-04 5.000e-04 5.000e-04 5.000e-04 5.000e-04 5.000e-04 5.000e-04 5.000e-04 5.000e-04 5.000e-04 5.000e-04 5.000e-04 5.000e-04 5.000e-04 5.000e-04 5.000e-04 5.000e-04 5.000e-04 5.000e-04 5.000e-04 5.000e-04 5.000e-04 5.000e-04 5.000e-04 5.000e-04 5.000e-04 5.000e-04 5.000e-04 5.000e-04 5.000e-04 5.000e-04 5.000e-04 5.000e-04 5.000e-04 5.000e-04 5.000e-04 5.000e-04 5.000e-04
           </DataArray>
           <DataArray type="Float32" Name="rootHairLength" NumberOfComponents="1" format="ascii">