<?xml version="1.0"?>
<VTKFile type="UnstructuredGrid" version="0.1" byte_order="LittleEndian">
   <UnstructuredGrid>
      <Piece NumberOfPoints="4590" NumberOfCells="323">
         <Points>
            <DataArray type="Float32" Name="Position" NumberOfComponents="3" format="ascii">
0.119	-5.035	0.085
0.122	-5.036	0.094
0.120	-5.037	0.103
0.113	-5.036	0.109
0.104	-5.034	0.110
0.096	-5.032	0.105
0.093	-5.030	0.097
0.095	-5.030	0.088
0.102	-5.030	0.082
0.111	-5.032	0.081
0.072	-5.243	0.059
0.076	-5.245	0.068
0.074	-5.246	0.077
0.067	-5.245	0.083
0.058	-5.243	0.084
0.050	-5.241	0.079
0.047	-5.239	0.071
0.049	-5.238	0.062
0.056	-5.239	0.056
0.065	-5.241	0.055
0.215	-5.102	0.172
0.213	-5.094	0.175
0.208	-5.089	0.182
0.202	-5.091	0.189
0.198	-5.097	0.194
0.197	-5.106	0.195
0.199	-5.115	0.191
0.204	-5.119	0.185
0.210	-5.118	0.178
0.214	-5.111	0.173
0.339	-5.109	0.271
0.336	-5.101	0.275
0.331	-5.096	0.281
0.326	-5.098	0.288
0.321	-5.104	0.293
0.320	-5.113	0.294
0.322	-5.121	0.291
0.327	-5.126	0.284
0.333	-5.124	0.277
0.337	-5.118	0.272
0.304	-5.200	0.272
0.308	-5.193	0.276
0.307	-5.183	0.277
0.302	-5.176	0.275
0.294	-5.174	0.271
0.286	-5.177	0.266
0.282	-5.184	0.263
0.283	-5.193	0.262
0.289	-5.201	0.263
0.297	-5.203	0.267
0.241	-5.220	0.382
0.245	-5.213	0.386
0.244	-5.204	0.387
0.238	-5.196	0.385
0.231	-5.194	0.381
0.223	-5.197	0.376
0.219	-5.204	0.373
0.220	-5.214	0.372
0.226	-5.221	0.373
0.234	-5.223	0.378
0.396	-5.278	0.342
0.399	-5.281	0.350
0.396	-5.282	0.359
0.389	-5.281	0.365
0.381	-5.279	0.366
0.373	-5.275	0.361
0.370	-5.272	0.353
0.373	-5.270	0.344
0.380	-5.271	0.338
0.389	-5.274	0.337
0.359	-5.383	0.315
0.362	-5.386	0.324
0.359	-5.387	0.333
0.352	-5.386	0.339
0.343	-5.384	0.340
0.336	-5.380	0.335
0.333	-5.377	0.327
0.336	-5.376	0.318
0.343	-5.376	0.312
0.352	-5.379	0.311
0.468	-5.359	0.420
0.474	-5.356	0.427
0.478	-5.359	0.435
0.480	-5.366	0.440
0.479	-5.375	0.441
0.475	-5.383	0.437
0.470	-5.386	0.430
0.465	-5.383	0.423
0.463	-5.376	0.417
0.464	-5.367	0.416
0.548	-5.379	0.368
0.556	-5.374	0.368
0.566	-5.376	0.368
0.572	-5.382	0.368
0.574	-5.392	0.368
0.569	-5.400	0.368
0.561	-5.404	0.368
0.552	-5.403	0.368
0.545	-5.396	0.368
0.544	-5.387	0.368
0.567	-5.469	0.490
0.565	-5.460	0.493
0.559	-5.456	0.499
0.553	-5.456	0.506
0.549	-5.463	0.512
0.547	-5.472	0.513
0.550	-5.480	0.510
0.555	-5.485	0.504
0.561	-5.484	0.497
0.566	-5.478	0.492
0.637	-5.470	0.551
0.634	-5.462	0.554
0.629	-5.457	0.560
0.623	-5.458	0.567
0.619	-5.464	0.572
0.617	-5.473	0.573
0.619	-5.482	0.571
0.625	-5.487	0.564
0.631	-5.486	0.557
0.635	-5.480	0.552
0.647	-5.575	0.561
0.650	-5.580	0.568
0.649	-5.583	0.577
0.643	-5.583	0.584
0.634	-5.581	0.586
0.626	-5.577	0.583
0.622	-5.572	0.576
0.624	-5.569	0.568
0.630	-5.569	0.561
0.639	-5.571	0.558
0.627	-5.627	0.539
0.631	-5.632	0.546
0.629	-5.635	0.555
0.623	-5.635	0.562
0.614	-5.633	0.564
0.606	-5.629	0.561
0.602	-5.624	0.554
0.604	-5.621	0.545
0.610	-5.621	0.539
0.619	-5.623	0.536
0.721	-5.688	0.632
0.724	-5.693	0.639
0.721	-5.696	0.647
0.714	-5.695	0.654
0.705	-5.691	0.655
0.699	-5.686	0.651
0.697	-5.680	0.644
0.700	-5.678	0.635
0.707	-5.679	0.629
0.715	-5.683	0.628
0.703	-5.721	0.615
0.705	-5.726	0.622
0.702	-5.728	0.631
0.695	-5.728	0.637
0.687	-5.724	0.638
0.681	-5.718	0.635
0.678	-5.713	0.627
0.681	-5.710	0.619
0.688	-5.711	0.613
0.696	-5.715	0.611
0.777	-5.789	0.700
0.782	-5.787	0.706
0.787	-5.790	0.714
0.790	-5.797	0.719
0.788	-5.806	0.720
0.784	-5.813	0.716
0.778	-5.816	0.710
0.773	-5.813	0.702
0.771	-5.806	0.697
0.772	-5.797	0.696
0.794	-5.793	0.686
0.799	-5.791	0.693
0.804	-5.793	0.700
0.807	-5.801	0.705
0.805	-5.810	0.706
0.801	-5.817	0.703
0.795	-5.820	0.696
0.790	-5.817	0.689
0.788	-5.810	0.684
0.789	-5.801	0.683
0.024	-4.989	-0.024
0.027	-4.972	-0.012
0.019	-4.962	0.005
0.005	-4.963	0.021
-0.011	-4.974	0.028
-0.023	-4.991	0.025
-0.026	-5.008	0.013
-0.018	-5.018	-0.004
-0.004	-5.017	-0.020
0.012	-5.006	-0.027
0.522	-5.401	0.427
0.526	-5.386	0.441
0.520	-5.377	0.459
0.506	-5.378	0.474
0.488	-5.388	0.481
0.475	-5.403	0.476
0.470	-5.418	0.462
0.477	-5.427	0.444
0.491	-5.426	0.429
0.508	-5.416	0.422
0.949	-6.069	0.813
0.956	-6.057	0.829
0.951	-6.050	0.848
0.936	-6.050	0.863
0.917	-6.058	0.868
0.901	-6.070	0.862
0.894	-6.081	0.845
0.899	-6.088	0.826
0.914	-6.088	0.811
0.933	-6.080	0.806
1.201	-6.658	1.058
1.209	-6.649	1.075
1.205	-6.643	1.095
1.190	-6.643	1.110
1.171	-6.649	1.114
1.153	-6.658	1.106
1.145	-6.667	1.089
1.150	-6.673	1.069
1.165	-6.673	1.054
1.184	-6.667	1.050
1.427	-7.395	1.288
1.435	-7.387	1.306
1.431	-7.382	1.326
1.416	-7.382	1.341
1.396	-7.386	1.344
1.378	-7.393	1.336
1.369	-7.401	1.318
1.374	-7.406	1.298
1.389	-7.406	1.283
1.409	-7.402	1.280
1.559	-7.957	1.455
1.567	-7.950	1.473
1.563	-7.945	1.493
1.547	-7.944	1.508
1.527	-7.947	1.511
1.509	-7.954	1.502
1.501	-7.961	1.484
1.505	-7.966	1.464
1.520	-7.967	1.449
1.541	-7.964	1.446
1.668	-8.574	1.640
1.676	-8.568	1.658
1.672	-8.563	1.678
1.656	-8.562	1.692
1.636	-8.564	1.695
1.618	-8.570	1.686
1.609	-8.576	1.667
1.614	-8.581	1.647
1.629	-8.582	1.633
1.650	-8.580	1.631
1.758	-9.251	1.813
1.766	-9.245	1.831
1.762	-9.241	1.851
1.747	-9.240	1.866
1.726	-9.242	1.869
1.708	-9.247	1.859
1.699	-9.253	1.841
1.703	-9.257	1.820
1.719	-9.258	1.806
1.740	-9.256	1.803
1.863	-9.985	1.962
1.872	-9.980	1.980
1.868	-9.976	2.001
1.852	-9.975	2.015
1.832	-9.977	2.018
1.813	-9.982	2.008
1.805	-9.987	1.990
1.809	-9.990	1.970
1.824	-9.991	1.955
1.845	-9.989	1.952
1.954	-10.760	2.113
1.963	-10.755	2.132
1.959	-10.753	2.152
1.944	-10.752	2.167
1.924	-10.754	2.170
1.905	-10.758	2.160
1.896	-10.762	2.142
1.900	-10.765	2.121
1.915	-10.766	2.107
1.936	-10.764	2.104
2.056	-11.544	2.222
2.065	-11.541	2.240
2.062	-11.539	2.261
2.047	-11.539	2.276
2.026	-11.541	2.279
2.008	-11.544	2.270
1.998	-11.548	2.251
2.002	-11.550	2.231
2.017	-11.550	2.216
2.037	-11.548	2.212
2.156	-12.333	2.311
2.165	-12.330	2.330
2.162	-12.328	2.350
2.147	-12.328	2.365
2.127	-12.330	2.369
2.108	-12.333	2.360
2.099	-12.336	2.341
2.102	-12.338	2.320
2.117	-12.337	2.305
2.137	-12.336	2.302
2.227	-13.127	2.371
2.237	-13.125	2.389
2.234	-13.124	2.410
2.219	-13.124	2.425
2.198	-13.126	2.429
2.179	-13.128	2.419
2.170	-13.130	2.401
2.173	-13.131	2.380
2.187	-13.131	2.365
2.208	-13.129	2.361
2.260	-13.525	2.385
2.270	-13.523	2.404
2.267	-13.523	2.425
2.253	-13.523	2.440
2.232	-13.525	2.443
2.213	-13.527	2.434
2.204	-13.528	2.416
2.206	-13.529	2.395
2.221	-13.528	2.380
2.242	-13.527	2.376
0.088	-5.013	-0.116
0.095	-5.010	-0.110
0.102	-5.013	-0.105
0.106	-5.020	-0.102
0.106	-5.030	-0.102
0.102	-5.037	-0.105
0.095	-5.040	-0.110
0.088	-5.037	-0.115
0.083	-5.029	-0.119
0.084	-5.020	-0.119
0.224	-5.018	-0.295
0.231	-5.015	-0.290
0.238	-5.018	-0.285
0.242	-5.025	-0.281
0.242	-5.035	-0.281
0.237	-5.042	-0.284
0.230	-5.045	-0.290
0.223	-5.042	-0.295
0.219	-5.034	-0.298
0.219	-5.025	-0.298
0.193	-5.076	-0.226
0.191	-5.069	-0.221
0.187	-5.067	-0.213
0.183	-5.070	-0.206
0.180	-5.078	-0.201
0.180	-5.087	-0.202
0.182	-5.094	-0.207
0.186	-5.097	-0.215
0.190	-5.093	-0.223
0.193	-5.086	-0.227
0.341	-5.086	-0.148
0.339	-5.079	-0.143
0.335	-5.077	-0.135
0.331	-5.080	-0.127
0.328	-5.088	-0.123
0.328	-5.097	-0.124
0.330	-5.104	-0.129
0.334	-5.107	-0.137
0.338	-5.103	-0.145
0.341	-5.096	-0.149
0.266	-5.140	-0.321
0.273	-5.138	-0.316
0.280	-5.141	-0.310
0.284	-5.148	-0.306
0.283	-5.157	-0.305
0.278	-5.165	-0.308
0.271	-5.167	-0.314
0.265	-5.164	-0.320
0.261	-5.157	-0.323
0.262	-5.148	-0.324
0.360	-5.154	-0.437
0.368	-5.151	-0.432
0.374	-5.154	-0.426
0.378	-5.162	-0.422
0.377	-5.171	-0.422
0.372	-5.178	-0.425
0.365	-5.181	-0.430
0.359	-5.178	-0.436
0.355	-5.170	-0.440
0.356	-5.161	-0.440
0.357	-5.229	-0.425
0.356	-5.222	-0.418
0.353	-5.220	-0.410
0.349	-5.224	-0.402
0.346	-5.232	-0.399
0.345	-5.241	-0.400
0.345	-5.248	-0.407
0.348	-5.249	-0.415
0.352	-5.246	-0.423
0.356	-5.238	-0.426
0.507	-5.265	-0.366
0.507	-5.258	-0.359
0.504	-5.256	-0.351
0.500	-5.260	-0.343
0.496	-5.268	-0.339
0.495	-5.277	-0.341
0.496	-5.284	-0.347
0.499	-5.286	-0.356
0.503	-5.282	-0.364
0.506	-5.274	-0.367
0.419	-5.313	-0.511
0.426	-5.310	-0.506
0.432	-5.313	-0.500
0.436	-5.321	-0.496
0.436	-5.330	-0.496
0.432	-5.337	-0.500
0.426	-5.340	-0.506
0.419	-5.337	-0.512
0.415	-5.330	-0.515
0.415	-5.320	-0.515
0.492	-5.313	-0.593
0.498	-5.310	-0.587
0.505	-5.313	-0.581
0.509	-5.321	-0.578
0.509	-5.330	-0.578
0.505	-5.338	-0.581
0.498	-5.340	-0.587
0.491	-5.338	-0.593
0.487	-5.330	-0.597
0.488	-5.321	-0.597
0.491	-5.407	-0.602
0.499	-5.404	-0.597
0.506	-5.407	-0.593
0.510	-5.415	-0.589
0.510	-5.424	-0.589
0.505	-5.431	-0.592
0.498	-5.434	-0.597
0.491	-5.431	-0.602
0.486	-5.424	-0.605
0.486	-5.415	-0.605
0.548	-5.410	-0.689
0.555	-5.407	-0.684
0.563	-5.410	-0.679
0.567	-5.417	-0.676
0.567	-5.426	-0.676
0.562	-5.434	-0.679
0.555	-5.437	-0.684
0.548	-5.434	-0.689
0.543	-5.426	-0.692
0.543	-5.417	-0.692
0.576	-5.513	-0.698
0.575	-5.505	-0.693
0.571	-5.502	-0.685
0.566	-5.505	-0.678
0.562	-5.513	-0.673
0.561	-5.522	-0.674
0.563	-5.529	-0.680
0.566	-5.532	-0.688
0.571	-5.529	-0.695
0.575	-5.522	-0.699
0.624	-5.522	-0.672
0.623	-5.515	-0.667
0.619	-5.512	-0.659
0.614	-5.515	-0.651
0.611	-5.522	-0.647
0.609	-5.531	-0.648
0.611	-5.539	-0.653
0.614	-5.541	-0.661
0.619	-5.539	-0.669
0.623	-5.531	-0.673
0.629	-5.607	-0.779
0.636	-5.604	-0.774
0.643	-5.607	-0.769
0.647	-5.615	-0.765
0.647	-5.624	-0.765
0.643	-5.631	-0.768
0.635	-5.634	-0.774
0.628	-5.631	-0.779
0.624	-5.624	-0.782
0.624	-5.614	-0.782
0.661	-5.609	-0.819
0.661	-5.605	-0.811
0.661	-5.606	-0.802
0.661	-5.613	-0.796
0.661	-5.622	-0.794
0.661	-5.630	-0.798
0.661	-5.634	-0.807
0.661	-5.633	-0.816
0.661	-5.626	-0.822
0.661	-5.617	-0.824
0.707	-5.722	-0.869
0.705	-5.714	-0.864
0.700	-5.711	-0.857
0.696	-5.714	-0.849
0.692	-5.721	-0.845
0.691	-5.730	-0.845
0.694	-5.738	-0.850
0.698	-5.741	-0.858
0.703	-5.738	-0.865
0.706	-5.731	-0.870
0.707	-5.717	-0.846
0.715	-5.713	-0.846
0.724	-5.714	-0.846
0.731	-5.721	-0.846
0.732	-5.730	-0.846
0.728	-5.738	-0.846
0.719	-5.743	-0.846
0.710	-5.741	-0.846
[...]
         <CellData>
           <DataArray type="Float32" Name="combinedRootClassID" NumberOfComponents="1" format="ascii">
 -1.300e+01 -1.300e+01 -1.300e+01 -1.300e+01 -1.300e+01 -1.300e+01 -1.300e+01 -1.300e+01 -1.300e+01 -5.000e+00 -5.000e+00 -5.000e+00 -5.000e+00 -5.000e+00 -5.000e+00 -5.000e+00 -5.000e+00 -5.000e+00 -5.000e+00 -5.000e+00 -5.000e+00 -5.000e+00 -1.300e+01 -1.300e+01 -1.300e+01 -1.300e+01 -1.300e+01 -1.300e+01 -1.300e+01 -1.300e+01 -1.300e+01 -5.000e+00 -5.000e+00 -5.000e+00 -5.000e+00 -5.000e+00 -5.000e+00 -5.000e+00 -5.000e+00 -5.000e+00 -5.000e+00 -5.000e+00 -5.000e+00 -5.000e+00 -1.300e+01 -1.300e+01 -1.300e+01 -1.300e+01 -1.300e+01 -1.300e+01 -1.300e+01 -1.300e+01 -1.300e+01 -5.000e+00 -5.000e+00 -5.000e+00 -5.000e+00 -5.000e+00 -5.000e+00 -5.000e+00 -5.000e+00 -5.000e+00 -5.000e+00 -5.000e+00 -5.000e+00 -5.000e+00 -1.300e+01 -1.300e+01 -1.300e+01 -1.300e+01 -1.300e+01 -1.300e+01 -1.300e+01 -1.300e+01 -1.300e+01 -5.000e+00 -5.000e+00 -5.000e+00 -5.000e+00 -5.000e+00 -5.000e+00 -5.000e+00 -5.000e+00 -5.000e+00 -5.000e+00 -5.000e+00 -5.000e+00 -5.000e+00 -9.000e+00 -9.000e+00 -9.000e+00 -9.000e+00 -9.000e+00 -9.000e+00 -9.000e+00 -9.000e+00 -9.000e+00 -9.000e+00 -9.000e+00 -9.000e+00 -2.000e+00 -2.000e+00 -2.000e+00 -2.000e+00 -2.000e+00 -2.000e+00 -2.000e+00 -2.000e+00 -2.000e+00 -2.000e+00 -7.000e+00 -7.000e+00 -7.000e+00 -7.000e+00 -7.000e+00 -7.000e+00 -7.000e+00 -7.000e+00 -7.000e+00 -7.000e+00 -7.000e+00 -7.000e+00 -7.000e+00 -7.000e+00 -7.000e+00 -7.000e+00 -7.000e+00 -7.000e+00 -7.000e+00 -7.000e+00 -7.000e+00 -7.000e+00 -7.000e+00 -7.000e+00 -7.000e+00 -7.000e+00 -7.000e+00 -7.000e+00 -7.000e+00 -7.000e+00 -7.000e+00 -7.000e+00 -7.000e+00 -7.000e+00 -7.000e+00 -7.000e+00 -7.000e+00 -7.000e+00 -7.000e+00 -7.000e+00 -7.000e+00 -7.000e+00 -7.000e+00 -7.000e+00 -7.000e+00 -7.000e+00 -7.000e+00 -7.000e+00 -7.000e+00 -7.000e+00 -7.000e+00 -7.000e+00 -7.000e+00 -7.000e+00 -7.000e+00 -7.000e+00 -7.000e+00 -7.000e+00 -7.000e+00 -7.000e+00 -7.000e+00 -7.000e+00 -7.000e+00 -7.000e+00 -7.000e+00 -7.000e+00 -7.000e+00 -7.000e+00 -7.000e+00 -7.000e+00 -7.000e+00 -7.000e+00 -7.000e+00 -7.000e+00 -7.000e+00 -7.000e+00 -7.000e+00 -7.000e+00 -7.000e+00 -7.000e+00 -7.000e+00 -7.000e+00 -7.000e+00 -7.000e+00 -7.000e+00 -7.000e+00 -7.000e+00 -7.000e+00 -7.000e+00 -7.000e+00 -7.000e+00 -7.000e+00 -7.000e+00 -7.000e+00 -7.000e+00 -7.000e+00 -7.000e+00 -7.000e+00 -7.000e+00 -7.000e+00 -7.000e+00 -7.000e+00 -7.000e+00 -7.000e+00 -7.000e+00 -7.000e+00 -7.000e+00 -7.000e+00 -7.000e+00 -7.000e+00 -7.000e+00 -7.000e+00 -7.000e+00 -7.000e+00 -7.000e+00 -7.000e+00 -7.000e+00 -7.000e+00 -7.000e+00 -7.000e+00 -7.000e+00 -7.000e+00 -7.000e+00 -7.000e+00 -7.000e+00 -7.000e+00 -7.000e+00 -7.000e+00 -7.000e+00 -7.000e+00 -7.000e+00 -7.000e+00 -7.000e+00 -7.000e+00 -7.000e+00 -7.000e+00 -7.000e+00 -7.000e+00 -7.000e+00 -7.000e+00 -7.000e+00 -7.000e+00 -7.000e+00 -7.000e+00 -7.000e+00 -7.000e+00 -7.000e+00 -7.000e+00 -7.000e+00 -7.000e+00 -7.000e+00 -7.000e+00 -7.000e+00 -7.000e+00 -7.000e+00 -7.000e+00 -7.000e+00 -7.000e+00 -7.000e+00 -7.000e+00 -7.000e+00 -7.000e+00 -7.000e+00 -7.000e+00 -7.000e+00 -7.000e+00 -7.000e+00 -7.000e+00 -7.000e+00 -7.000e+00 -7.000e+00 -7.000e+00 -7.000e+00 -7.000e+00 -7.000e+00 -7.000e+00 -7.000e+00 -7.000e+00 -7.000e+00 -7.000e+00 -7.000e+00 -7.000e+00 -1.100e+01 -1.100e+01 -1.100e+01 -1.100e+01 -4.000e+00 -4.000e+00 -4.000e+00 -4.000e+00 -4.000e+00 -4.000e+00 -4.000e+00 -4.000e+00 -4.000e+00 -4.000e+00 -4.000e+00 -4.000e+00 -4.000e+00 -4.000e+00 -4.000e+00 -4.000e+00 -4.000e+00 -4.000e+00 -4.000e+00 -4.000e+00 -4.000e+00 -4.000e+00 -4.000e+00 -4.000e+00 -4.000e+00 -4.000e+00 -4.000e+00
           </DataArray>
           <DataArray type="Float32" Name="nitrate/Cmin" NumberOfComponents="1" format="ascii">
 1.000e-03 1.000e-03 1.000e-03 1.000e-03 1.000e-03 1.000e-03 1.000e-03 1.000e-03 1.000e-03 1.000e-03 1.000e-03 1.000e-03 1.000e-03 1.000e-03 1.000e-03 1.000e-03 1.000e-03 1.000e-03 1.000e-03 1.000e-03 1.000e-03 1.000e-03 1.000e-03 1.000e-03 1.000e-03 1.000e-03 1.000e-03 1.000e-03 1.000e-03 1.000e-03 1.000e-03 1.000e-03 1.000e-03 1.000e-03 1.000e-03 1.000e-03 1.000e-03 1.000e-03 1.000e-03 1.000e-03 1.000e-03 1.000e-03 1.000e-03 1.000e-03 1.000e-03 1.000e-03 1.000e-03 1.000e-03 1.000e-03 1.000e-03 1.000e-03 1.000e-03 1.000e-03 1.000e-03 1.000e-03 1.000e-03 1.000e-03 1.000e-03 1.000e-03 1.000e-03 1.000e-03 1.000e-03 1.000e-03 1.000e-03 1.000e-03 1.000e-03 1.000e-03 1.000e-03 1.000e-03 1.000e-03 1.000e-03 1.000e-03 1.000e-03 1.000e-03 1.000e-03 1.000e-03 1.000e-03 1.000e-03 1.000e-03 1.000e-03 1.000e-03 1.000e-03 1.000e-03 1.000e-03 1.000e-03 1.000e-03 1.000e-03 1.000e-03 1.000e-03 1.000e-03 1.000e-03 1.000e-03 1.000e-03 1.000e-03 1.000e-03 1.000e-03 1.000e-03 1.000e-03 1.000e-03 1.000e-03 1.000e-03 1.000e-03 1.000e-03 1.000e-03 1.000e-03 1.000e-03 1.000e-03 1.000e-03 1.000e-03 1.000e-03 1.000e-03 1.000e-03 1.000e-03 1.000e-03 1.000e-03 1.000e-03 1.000e-03 1.000e-03 1.000e-03 1.000e-03 1.000e-03 1.000e-03 1.000e-03 1.000e-03 1.000e-03 1.000e-03 1.000e-03 1.000e-03 1.000e-03 1.000e-03 1.000e-03 1.000e-03 1.000e-03 1.000e-03 1.000e-03 1.000e-03 1.000e-03 1.000e-03 1.000e-03 1.000e-03 1.000e-03 1.000e-03 1.000e-03 1.000e-03 1.000e-03 1.000e-03 1.000e-03 1.000e-03 1.000e-03 1.000e-03 1.000e-03 1.000e-03 1.000e-03 1.000e-03 1.000e-03 1.000e-03 1.000e-03 1.000e-03 1.000e-03 1.000e-03 1.000e-03 1.000e-03 1.000e-03 1.000e-03 1.000e-03 1.000e-03 1.000e-03 1.000e-03 1.000e-03 1.000e-03 1.000e-03 1.000e-03 1.000e-03 1.000e-03 1.000e-03 1.000e-03 1.000e-03 1.000e-03 1.000e-03 1.000e-03 1.000e-03 1.000e-03 1.000e-03 1.000e-03 1.000e-03 1.000e-03 1.000e-03 1.000e-03 1.000e-03 1.000e-03 1.000e-03 1.000e-03 1.000e-03 1.000e-03 1.000e-03 1.000e-03 1.000e-03 1.000e-03 1.000e-03 1.000e-03 1.000e-03 1.000e-03 1.000e-03 1.000e-03 1.000e-03 1.000e-03 1.000e-03 1.000e-03 1.000e-03 1.000e-03 1.000e-03 1.000e-03 1.000e-03 1.000e-03 1.000e-03 1.000e-03 1.000e-03 1.000e-03 1.000e-03 1.000e-03 1.000e-03 1.000e-03 1.000e-03 1.000e-03 1.000e-03 1.000e-03 1.000e-03 1.000e-03 1.000e-03 1.000e-03 1.000e-03 1.000e-03 1.000e-03 1.000e-03 1.000e-03 1.000e-03 1.000e-03 1.000e-03 1.000e-03 1.000e-03 1.000e-03 1.000e-03 1.000e-03 1.000e-03 1.000e-03 1.000e-03 1.000e-03 1.000e-03 1.000e-03 1.000e-03 1.000e-03 1.000e-03 1.000e-03 1.000e-03 1.000e-03 1.000e-03 1.000e-03 1.000e-03 1.000e-03 1.000e-03 1.000e-03 1.000e-03 1.000e-03 1.000e-03 1.000e-03 1.000e-03 1.000e-03 1.000e-03 1.000e-03 1.000e-03 1.000e-03 1.000e-03 1.000e-03 1.000e-03 1.000e-03 1.000e-03 1.000e-03 1.000e-03 1.000e-03 1.000e-03 1.000e-03 1.000e-03 1.000e-03 1.000e-03 1.000e-03 1.000e-03 1.000e-03 1.000e-03 1.000e-03 1.000e-03 1.000e-03 1.000e-03 1.000e-03 1.000e-03 1.000e-03 1.000e-03 1.000e-03 1.000e-03 1.000e-03 1.000e-03 1.000e-03 1.000e-03 1.000e-03 1.000e-03 1.000e-03 1.000e-03 1.000e-03 1.000e-03 1.000e-03 1.000e-03 1.000e-03 1.000e-03 1.000e-03 1.000e-03 1.000e-03 1.000e-03 1.000e-03 1.000e-03 1.000e-03 1.000e-03 1.000e-03 1.000e-03 1.000e-03
           </DataArray>
           <DataArray type="Float32" Name="nitrate/Imax" NumberOfComponents="1" format="ascii">
 1.900e+00 1.900e+00 1.900e+00 1.900e+00 1.900e+00 1.900e+00 1.900e+00 1.900e+00 1.900e+00 1.900e+00 1.900e+00 1.900e+00 1.900e+00 1.900e+00 1.900e+00 1.900e+00 1.900e+00 1.900e+00 1.900e+00 1.900e+00 1.900e+00 1.900e+00 1.900e+00 1.900e+00 1.900e+00 1.900e+00 1.900e+00 1.900e+00 1.900e+00 1.900e+00 1.900e+00 1.900e+00 1.900e+00 1.900e+00 1.900e+00 1.900e+00 1.900e+00 1.900e+00 1.900e+00 1.900e+00 1.900e+00 1.900e+00 1.900e+00 1.900e+00 1.900e+00 1.900e+00 1.900e+00 1.900e+00 1.900e+00 1.900e+00 1.900e+00 1.900e+00 1.900e+00 1.900e+00 1.900e+00 1.900e+00 1.900e+00 1.900e+00 1.900e+00 1.900e+00 1.900e+00 1.900e+00 1.900e+00 1.900e+00 1.900e+00 1.900e+00 1.900e+00 1.900e+00 1.900e+00 1.900e+00 1.900e+00 1.900e+00 1.900e+00 1.900e+00 1.900e+00 1.900e+00 1.900e+00 1.900e+00 1.900e+00 1.900e+00 1.900e+00 1.900e+00 1.900e+00 1.900e+00 1.900e+00 1.900e+00 1.900e+00 1.900e+00 1.900e+00 1.900e+00 1.900e+00 1.900e+00 1.900e+00 1.900e+00 1.900e+00 1.900e+00 1.900e+00 1.900e+00 1.900e+00 1.900e+00 1.900e+00 1.900e+00 1.900e+00 1.900e+00 1.900e+00 1.900e+00 1.900e+00 1.900e+00 1.900e+00 1.900e+00 1.900e+00 1.900e+00 1.900e+00 1.900e+00 1.900e+00 1.900e+00 1.900e+00 1.900e+00 1.900e+00 1.900e+00 1.900e+00 1.900e+00 1.900e+00 1.900e+00 1.900e+00 1.900e+00 1.900e+00 1.900e+00 1.900e+00 1.900e+00 1.900e+00 1.900e+00 1.900e+00 1.900e+00 1.900e+00 1.900e+00 1.900e+00 1.900e+00 1.900e+00 1.900e+00 1.900e+00 1.900e+00 1.900e+00 1.900e+00 1.900e+00 1.900e+00 1.900e+00 1.900e+00 1.900e+00 1.900e+00 1.900e+00 1.900e+00 1.900e+00 1.900e+00 1.900e+00 1.900e+00 1.900e+00 1.900e+00 1.900e+00 1.900e+00 1.900e+00 1.900e+00 1.900e+00 1.900e+00 1.900e+00 1.900e+00 1.900e+00 1.900e+00 1.900e+00 1.900e+00 1.900e+00 1.900e+00 1.900e+00 1.900e+00 1.900e+00 1.900e+00 1.900e+00 1.900e+00 1.900e+00 1.900e+00 1.900e+00 1.900e+00 1.900e+00 1.900e+00 1.900e+00 1.900e+00 1.900e+00 1.900e+00 1.900e+00 1.900e+00 1.900e+00 1.900e+00 1.900e+00 1.900e+00 1.900e+00 1.900e+00 1.900e+00 1.900e+00 1.900e+00 1.900e+00 1.900e+00 1.900e+00 1.900e+00 1.900e+00 1.900e+00 1.900e+00 1.900e+00 1.900e+00 1.900e+00 1.900e+00 1.900e+00 1.900e+00 1.900e+00 1.900e+00 1.900e+00 1.900e+00 1.900e+00 1.900e+00 1.900e+00 1.900e+00 1.900e+00 1.900e+00 1.900e+00 1.900e+00 1.900e+00 1.900e+00 1.900e+00 1.900e+00 1.900e+00 1.900e+00 1.900e+00 1.900e+00 1.900e+00 1.900e+00 1.900e+00 1.900e+00 1.900e+00 1.900e+00 1.900e+00 1.900e+00 1.900e+00 1.900e+00 1.900e+00 1.900e+00 1.900e+00 1.900e+00 1.900e+00 1.900e+00 1.900e+00 1.900e+00 1.900e+00 1.900e+00 1.900e+00 1.900e+00 1.900e+00 1.900e+00 1.900e+00 1.900e+00 1.900e+00 1.900e+00 1.900e+00 1.900e+00 1.900e+00 1.900e+00 1.900e+00 1.900e+00 1.900e+00 1.900e+00 1.900e+00 1.900e+00 1.900e+00 1.900e+00 1.900e+00 1.900e+00 1.900e+00 1.900e+00 1.900e+00 1.900e+00 1.900e+00 1.900e+00 1.900e+00 1.900e+00 1.900e+00 1.900e+00 1.900e+00 1.900e+00 1.900e+00 1.900e+00 1.900e+00 1.900e+00 1.900e+00 1.900e+00 1.900e+00 1.900e+00 1.900e+00 1.900e+00 1.900e+00 1.900e+00 1.900e+00 1.900e+00 1.900e+00 1.900e+00 1.900e+00 1.900e+00 1.900e+00 1.900e+00 1.900e+00 1.900e+00 1.900e+00 1.900e+00 1.900e+00 1.900e+00 1.900e+00 1.900e+00 1.900e+00 1.900e+00 1.900e+00 1.900e+00 1.900e+00 1.900e+00 1.900e+00 1.900e+00 1.900e+00
           </DataArray>
           <DataArray type="Float32" Name="nitrate/Km" NumberOfComponents="1" format="ascii">
 1.610e-02 1.610e-02 1.610e-02 1.610e-02 1.610e-02 1.610e-02 1.610e-02 1.610e-02 1.610e-02 1.610e-02 1.610e-02 1.610e-02 1.610e-02 1.610e-02 1.610e-02 1.610e-02 1.610e-02 1.610e-02 1.610e-02 1.610e-02 1.610e-02 1.610e-02 1.610e-02 1.610e-02 1.610e-02 1.610e-02 1.610e-02 1.610e-02 1.610e-02 1.610e-02 1.610e-02 1.610e-02 1.610e-02 1.610e-02 1.610e-02 1.610e-02 1.610e-02 1.610e-02 1.610e-02 1.610e-02 1.610e-02 1.610e-02 1.610e-02 1.610e-02 1.610e-02 1.610e-02 1.610e-02 1.610e-02 1.610e-02 1.610e-02 1.610e-02 1.610e-02 1.610e-02 1.610e-02 1.610e-02 1.610e-02 1.610e-02 1.610e-02 1.610e-02 1.610e-02 1.610e-02 1.610e-02 1.610e-02 1.610e-02 1.610e-02 1.610e-02 1.610e-02 1.610e-02 1.610e-02 1.610e-02 1.610e-02 1.610e-02 1.610e-02 1.610e-02 1.610e-02 1.610e-02 1.610e-02 1.610e-02 1.610e-02 1.610e-02 1.610e-02 1.610e-02 1.610e-02 1.610e-02 1.610e-02 1.610e-02 1.610e-02 1.610e-02 1.610e-02 1.610e-02 1.610e-02 1.610e-02 1.610e-02 1.610e-02 1.610e-02 1.610e-02 1.610e-02 1.610e-02 1.610e-02 1.610e-02 1.610e-02 1.610e-02 1.610e-02 1.610e-02 1.610e-02 1.610e-02 1.610e-02 1.610e-02 1.610e-02 1.610e-02 1.610e-02 1.610e-02 1.610e-02 1.610e-02 1.610e-02 1.610e-02 1.610e-02 1.610e-02 1.610e-02 1.610e-02 1.610e-02 1.610e-02 1.610e-02 1.610e-02 1.610e-02 1.610e-02 1.610e-02 1.610e-02 1.610e-02 1.610e-02 1.610e-02 1.610e-02 1.610e-02 1.610e-02 1.610e-02 1.610e-02 1.610e-02 1.610e-02 1.610e-02 1.610e-02 1.610e-02 1.610e-02 1.610e-02 1.610e-02 1.610e-02 1.610e-02 1.610e-02 1.610e-02 1.610e-02 1.610e-02 1.610e-02 1.610e-02 1.610e-02 1.610e-02 1.610e-02 1.610e-02 1.610e-02 1.610e-02 1.610e-02 1.610e-02 1.610e-02 1.610e-02 1.610e-02 1.610e-02 1.610e-02 1.610e-02 1.610e-02 1.610e-02 1.610e-02 1.610e-02 1.610e-02 1.610e-02 1.610e-02 1.610e-02 1.610e-02 1.610e-02 1.610e-02 1.610e-02 1.610e-02 1.610e-02 1.610e-02 1.610e-02 1.610e-02 1.610e-02 1.610e-02 1.610e-02 1.610e-02 1.610e-02 1.610e-02 1.610e-02 1.610e-02 1.610e-02 1.610e-02 1.610e-02 1.610e-02 1.610e-02 1.610e-02 1.610e-02 1.610e-02 1.610e-02 1.610e-02 1.610e-02 1.610e-02 1.610e-02 1.610e-02 1.610e-02 1.610e-02 1.610e-02 1.610e-02 1.610e-02 1.610e-02 1.610e-02 1.610e-02 1.610e-02 1.610e-02 1.610e-02 1.610e-02 1.610e-02 1.610e-02 1.610e-02 1.610e-02 1.610e-02 1.610e-02 1.610e-02 1.610e-02 1.610e-02 1.610e-02 1.610e-02 1.610e-02 1.610e-02 1.610e-02 1.610e-02 1.610e-02 1.610e-02 1.610e-02 1.610e-02 1.610e-02 1.610e-02 1.610e-02 1.610e-02 1.610e-02 1.610e-02 1.610e-02 1.610e-02 1.610e-02 1.610e-02 1.610e-02 1.610e-02 1.610e-02 1.610e-02 1.610e-02 1.610e-02 1.610e-02 1.610e-02 1.610e-02 1.610e-02 1.610e-02 1.610e-02 1.610e-02 1.610e-02 1.610e-02 1.610e-02 1.610e-02 1.610e-02 1.610e-02 1.610e-02 1.610e-02 1.610e-02 1.610e-02 1.610e-02 1.610e-02 1.610e-02 1.610e-02 1.610e-02 1.610e-02 1.610e-02 1.610e-02 1.610e-02 1.610e-02 1.610e-02 1.610e-02 1.610e-02 1.610e-02 1.610e-02 1.610e-02 1.610e-02 1.610e-02 1.610e-02 1.610e-02 1.610e-02 1.610e-02 1.610e-02 1.610e-02 1.610e-02 1.610e-02 1.610e-02 1.610e-02 1.610e-02 1.610e-02 1.610e-02 1.610e-02 1.610e-02 1.610e-02 1.610e-02 1.610e-02 1.610e-02 1.610e-02 1.610e-02 1.610e-02 1.610e-02 1.610e-02 1.610e-02 1.610e-02 1.610e-02 1.610e-02 1.610e-02 1.610e-02 1.610e-02 1.610e-02 1.610e-02 1.610e-02 1.610e-02 1.610e-02
           </DataArray>
           <DataArray type="Float32" Name="nitrate/minimalNutrientConcentration" NumberOfComponents="1" format="ascii">
 6.000e+02 6.000e+02 6.000e+02 6.000e+02 6.000e+02 6.000e+02 6.000e+02 6.000e+02 6.000e+02 6.000e+02 6.000e+02 6.000e+02 6.000e+02 6.000e+02 6.000e+02 6.000e+02 6.000e+02 6.000e+02 6.000e+02 6.000e+02 6.000e+02 6.000e+02 6.000e+02 6.000e+02 6.000e+02 6.000e+02 6.000e+02 6.000e+02 6.000e+02 6.000e+02 6.000e+02 6.000e+02 6.000e+02 6.000e+02 6.000e+02 6.000e+02 6.000e+02 6.000e+02 6.000e+02 6.000e+02 6.000e+02 6.000e+02 6.000e+02 6.000e+02 6.000e+02 6.000e+02 6.000e+02 6.000e+02 6.000e+02 6.000e+02 6.000e+02 6.000e+02 6.000e+02 6.000e+02 6.000e+02 6.000e+02 6.000e+02 6.000e+02 6.000e+02 6.000e+02 6.000e+02 6.000e+02 6.000e+02 6.000e+02 6.000e+02 6.000e+02 6.000e+02 6.000e+02 6.000e+02 6.000e+02 6.000e+02 6.000e+02 6.000e+02 6.000e+02 6.000e+02 6.000e+02 6.000e+02 6.000e+02 6.000e+02 6.000e+02 6.000e+02 6.000e+02 6.000e+02 6.000e+02 6.000e+02 6.000e+02 6.000e+02 6.000e+02 6.000e+02 6.000e+02 6.000e+02 6.000e+02 6.000e+02 6.000e+02 6.000e+02 6.000e+02 6.000e+02 6.000e+02 6.000e+02 6.000e+02 6.000e+02 6.000e+02 6.000e+02 6.000e+02 6.000e+02 6.000e+02 6.000e+02 6.000e+02 6.000e+02 6.000e+02 6.000e+02 6.000e+02 6.000e+02 6.000e+02 6.000e+02 6.000e+02 6.000e+02 6.000e+02 6.000e+02 6.000e+02 6.000e+02 6.000e+02 6.000e+02 6.000e+02 6.000e+02 6.000e+02 6.000e+02 6.000e+02 6.000e+02 6.000e+02 6.000e+02 6.000e+02 6.000e+02 6.000e+02 6.000e+02 6.000e+02 6.000e+02 6.000e+02 6.000e+02 6.000e+02 6.000e+02 6.000e+02 6.000e+02 6.000e+02 6.000e+02 6.000e+02 6.000e+02 6.000e+02 6.000e+02 6.000e+02 6.000e+02 6.000e+02 6.000e+02 6.000e+02 6.000e+02 6.000e+02 6.000e+02 6.000e+02 6.000e+02 6.000e+02 6.000e+02 6.000e+02 6.000e+02 6.000e+02 6.000e+02 6.000e+02 6.000e+02 6.000e+02 6.000e+02 6.000e+02 6.000e+02 6.000e+02 6.000e+02 6.000e+02 6.000e+02 6.000e+02 6.000e+02 6.000e+02 6.000e+02 6.000e+02 6.000e+02 6.000e+02 6.000e+02 6.000e+02 6.000e+02 6.000e+02 6.000e+02 6.000e+02 6.000e+02 6.000e+02 6.000e+02 6.000e+02 6.000e+02 6.000e+02 6.000e+02 6.000e+02 6.000e+02 6.000e+02 6.000e+02 6.000e+02 6.000e+02 6.000e+02 6.000e+02 6.000e+02 6.000e+02 6.000e+02 6.000e+02 6.000e+02 6.000e+02 6.000e+02 6.000e+02 6.000e+02 6.000e+02 6.000e+02 6.000e+02 6.000e+02 6.000e+02 6.000e+02 6.000e+02 6.000e+02 6.000e+02 6.000e+02 6.000e+02 6.000e+02 6.000e+02 6.000e+02 6.000e+02 6.000e+02 6.000e+02 6.000e+02 6.000e+02 6.000e+02 6.000e+02 6.000e+02 6.000e+02 6.000e+02 6.000e+02 6.000e+02 6.000e+02 6.000e+02 6.000e+02 6.000e+02 6.000e+02 6.000e+02 6.000e+02 6.000e+02 6.000e+02 6.000e+02 6.000e+02 6.000e+02 6.000e+02 6.000e+02 6.000e+02 6.000e+02 6.000e+02 6.000e+02 6.000e+02 6.000e+02 6.000e+02 6.000e+02 6.000e+02 6.000e+02 6.000e+02 6.000e+02 6.000e+02 6.000e+02 6.000e+02 6.000e+02 6.000e+02 6.000e+02 6.000e+02 6.000e+02 6.000e+02 6.000e+02 6.000e+02 6.000e+02 6.000e+02 6.000e+02 6.000e+02 6.000e+02 6.000e+02 6.000e+02 6.000e+02 6.000e+02 6.000e+02 6.000e+02 6.000e+02 6.000e+02 6.000e+02 6.000e+02 6.000e+02 6.000e+02 6.000e+02 6.000e+02 6.000e+02 6.000e+02 6.000e+02 6.000e+02 6.000e+02 6.000e+02 6.000e+02 6.000e+02 6.000e+02 6.000e+02 6.000e+02 6.000e+02 6.000e+02 6.000e+02 6.000e+02 6.000e+02 6.000e+02 6.000e+02 6.000e+02 6.000e+02 6.000e+02 6.000e+02 6.000e+02 6.000e+02 6.000e+02 6.000e+02 6.000e+02 6.000e+02 6.000e+02
           </DataArray>
           <DataArray type="Float32" Name="nitrate/nutrientConcentrationAtTheRootSurface" NumberOfComponents="1" format="ascii">