<?xml version="1.0"?>
<VTKFile type="UnstructuredGrid" version="0.1" byte_order="LittleEndian">
   <UnstructuredGrid>
      <Piece NumberOfPoints="13380" NumberOfCells="937">
         <Points>
            <DataArray type="Float32" Name="Position" NumberOfComponents="3" format="ascii">
0.118	-5.034	0.085
0.122	-5.037	0.093
0.120	-5.038	0.102
0.113	-5.037	0.109
0.104	-5.036	0.110
0.096	-5.033	0.106
0.093	-5.030	0.098
0.095	-5.029	0.089
0.102	-5.029	0.082
0.110	-5.031	0.081
-0.085	-5.855	-0.081
-0.081	-5.857	-0.073
-0.082	-5.859	-0.064
-0.089	-5.859	-0.057
-0.098	-5.858	-0.056
-0.106	-5.856	-0.059
-0.110	-5.853	-0.067
-0.109	-5.852	-0.076
-0.103	-5.851	-0.083
-0.094	-5.852	-0.085
-0.137	-6.480	-0.223
-0.132	-6.482	-0.215
-0.133	-6.484	-0.206
-0.139	-6.486	-0.199
-0.148	-6.485	-0.197
-0.156	-6.484	-0.200
-0.161	-6.482	-0.207
-0.161	-6.480	-0.216
-0.155	-6.479	-0.223
-0.146	-6.479	-0.226
0.213	-5.099	0.171
0.211	-5.092	0.176
0.207	-5.089	0.184
0.203	-5.092	0.192
0.199	-5.100	0.196
0.199	-5.109	0.195
0.201	-5.116	0.190
0.205	-5.119	0.182
0.210	-5.116	0.175
0.213	-5.108	0.170
0.955	-5.167	0.573
0.954	-5.160	0.578
0.950	-5.158	0.587
0.946	-5.161	0.594
0.943	-5.169	0.598
0.942	-5.178	0.597
0.943	-5.185	0.591
0.947	-5.187	0.583
0.951	-5.184	0.575
0.954	-5.176	0.571
1.289	-5.262	0.712
1.288	-5.255	0.718
1.285	-5.253	0.727
1.281	-5.256	0.734
1.277	-5.264	0.738
1.275	-5.273	0.736
1.276	-5.280	0.730
1.279	-5.282	0.722
1.283	-5.278	0.714
1.287	-5.271	0.710
0.923	-6.044	0.815
0.921	-6.035	0.818
0.916	-6.030	0.823
0.909	-6.029	0.829
0.904	-6.034	0.834
0.901	-6.043	0.836
0.903	-6.052	0.834
0.908	-6.058	0.829
0.914	-6.058	0.822
0.920	-6.053	0.817
1.525	-6.088	1.454
1.523	-6.079	1.456
1.518	-6.073	1.461
1.511	-6.072	1.467
1.505	-6.077	1.472
1.502	-6.085	1.474
1.504	-6.094	1.472
1.509	-6.100	1.468
1.516	-6.101	1.462
1.522	-6.096	1.456
1.717	-6.092	1.688
1.716	-6.083	1.689
1.711	-6.076	1.693
1.703	-6.075	1.699
1.697	-6.080	1.704
1.694	-6.088	1.707
1.695	-6.097	1.706
1.700	-6.104	1.701
1.707	-6.105	1.695
1.714	-6.100	1.690
0.979	-6.163	0.870
0.985	-6.167	0.875
0.987	-6.172	0.882
0.983	-6.176	0.890
0.975	-6.177	0.895
0.966	-6.175	0.895
0.960	-6.170	0.890
0.958	-6.165	0.882
0.962	-6.162	0.875
0.970	-6.161	0.870
0.816	-6.866	0.446
0.823	-6.870	0.452
0.824	-6.875	0.460
0.819	-6.878	0.467
0.811	-6.879	0.472
0.802	-6.876	0.471
0.796	-6.872	0.465
0.795	-6.868	0.457
0.799	-6.865	0.449
0.807	-6.864	0.445
0.773	-7.216	0.293
0.779	-7.219	0.300
0.779	-7.223	0.308
0.775	-7.225	0.316
0.766	-7.226	0.319
0.757	-7.224	0.318
0.751	-7.221	0.311
0.750	-7.217	0.303
0.755	-7.214	0.296
0.764	-7.214	0.292
1.039	-6.307	0.941
1.042	-6.300	0.945
1.041	-6.291	0.947
1.036	-6.284	0.945
1.028	-6.281	0.940
1.021	-6.284	0.935
1.018	-6.291	0.930
1.019	-6.300	0.929
1.024	-6.308	0.931
1.032	-6.310	0.935
0.572	-6.481	1.617
0.576	-6.473	1.622
0.574	-6.465	1.624
0.568	-6.457	1.623
0.561	-6.455	1.618
0.554	-6.457	1.612
0.551	-6.465	1.607
0.553	-6.473	1.605
0.558	-6.481	1.607
0.566	-6.483	1.611
0.436	-6.557	1.782
0.439	-6.550	1.788
0.437	-6.541	1.790
0.431	-6.534	1.789
0.424	-6.531	1.784
0.417	-6.534	1.778
0.415	-6.541	1.772
0.417	-6.549	1.770
0.422	-6.556	1.771
0.430	-6.559	1.776
1.083	-6.414	0.981
1.091	-6.418	0.979
1.096	-6.425	0.982
1.097	-6.432	0.988
1.093	-6.436	0.995
1.086	-6.436	1.000
1.078	-6.432	1.002
1.072	-6.425	0.999
1.071	-6.418	0.993
1.075	-6.414	0.986
0.692	-6.953	0.417
0.700	-6.956	0.414
0.706	-6.963	0.415
0.708	-6.971	0.419
0.704	-6.977	0.426
0.697	-6.979	0.431
0.689	-6.976	0.434
0.683	-6.969	0.433
0.681	-6.961	0.429
0.685	-6.955	0.423
0.482	-7.113	0.090
0.488	-7.108	0.084
0.496	-7.109	0.079
0.503	-7.114	0.078
0.507	-7.123	0.079
0.506	-7.131	0.084
0.500	-7.135	0.089
0.492	-7.135	0.094
0.485	-7.129	0.096
0.481	-7.121	0.094
1.137	-6.545	1.032
1.141	-6.542	1.039
1.143	-6.544	1.048
1.143	-6.550	1.054
1.141	-6.559	1.056
1.137	-6.566	1.053
1.133	-6.570	1.045
1.130	-6.568	1.036
1.130	-6.562	1.030
1.133	-6.553	1.028
1.887	-6.808	0.772
1.891	-6.804	0.779
1.892	-6.806	0.788
1.892	-6.812	0.795
1.889	-6.821	0.797
1.886	-6.829	0.793
1.882	-6.832	0.786
1.880	-6.831	0.777
1.881	-6.825	0.770
1.883	-6.816	0.768
2.383	-7.009	0.699
2.383	-7.001	0.703
2.383	-6.992	0.702
2.383	-6.985	0.695
2.383	-6.984	0.686
2.383	-6.988	0.678
2.383	-6.996	0.673
2.383	-7.005	0.675
2.383	-7.012	0.681
2.383	-7.013	0.690
1.196	-6.684	1.080
1.195	-6.676	1.085
1.191	-6.673	1.093
1.186	-6.675	1.100
1.182	-6.682	1.104
1.180	-6.691	1.104
1.181	-6.699	1.099
1.184	-6.702	1.091
1.190	-6.700	1.083
1.194	-6.693	1.079
1.881	-6.880	1.497
1.882	-6.873	1.502
1.878	-6.869	1.510
1.872	-6.870	1.517
1.866	-6.876	1.521
1.863	-6.885	1.520
1.862	-6.892	1.514
1.866	-6.896	1.507
1.872	-6.895	1.500
1.878	-6.889	1.496
2.083	-7.053	1.675
2.083	-7.048	1.683
2.083	-7.050	1.692
2.083	-7.056	1.699
2.083	-7.065	1.700
2.083	-7.074	1.696
2.083	-7.078	1.688
2.083	-7.076	1.678
2.083	-7.070	1.672
2.083	-7.061	1.670
1.247	-6.824	1.127
1.246	-6.815	1.129
1.242	-6.809	1.134
1.234	-6.808	1.140
1.228	-6.812	1.145
1.225	-6.821	1.147
1.226	-6.830	1.145
1.231	-6.836	1.140
1.238	-6.837	1.134
1.244	-6.833	1.129
1.815	-6.888	1.812
1.814	-6.879	1.815
1.810	-6.873	1.820
1.803	-6.872	1.826
1.796	-6.877	1.831
1.793	-6.885	1.832
1.793	-6.894	1.830
1.798	-6.900	1.825
1.805	-6.901	1.818
1.811	-6.896	1.814
1.988	-6.951	2.004
1.988	-6.943	2.007
1.984	-6.937	2.013
1.977	-6.937	2.020
1.970	-6.942	2.024
1.967	-6.950	2.025
1.967	-6.959	2.021
1.971	-6.964	2.015
1.978	-6.965	2.009
1.985	-6.960	2.005
1.291	-6.959	1.169
1.290	-6.950	1.172
1.284	-6.945	1.177
1.278	-6.945	1.184
1.272	-6.950	1.189
1.270	-6.959	1.191
1.272	-6.968	1.188
1.277	-6.973	1.183
1.284	-6.973	1.176
1.289	-6.968	1.171
1.894	-6.990	1.765
1.892	-6.981	1.768
1.887	-6.976	1.773
1.881	-6.975	1.780
1.875	-6.981	1.785
1.873	-6.990	1.787
1.875	-6.998	1.784
1.880	-7.004	1.779
1.886	-7.004	1.772
1.892	-6.999	1.767
1.931	-6.992	1.804
1.929	-6.983	1.806
1.924	-6.977	1.811
1.918	-6.977	1.818
1.912	-6.982	1.823
1.910	-6.991	1.825
1.911	-7.000	1.823
1.916	-7.006	1.817
1.923	-7.006	1.811
1.929	-7.001	1.806
1.334	-7.101	1.213
1.335	-7.091	1.214
1.330	-7.084	1.218
1.323	-7.082	1.223
1.315	-7.086	1.228
1.311	-7.094	1.229
1.310	-7.103	1.228
1.315	-7.110	1.224
1.322	-7.112	1.219
1.330	-7.108	1.214
1.811	-7.225	1.940
1.812	-7.216	1.942
1.808	-7.209	1.946
1.801	-7.206	1.950
1.792	-7.209	1.954
1.787	-7.216	1.955
1.786	-7.225	1.954
1.790	-7.233	1.950
1.797	-7.235	1.945
1.806	-7.233	1.942
1.882	-7.278	2.117
1.884	-7.269	2.119
1.880	-7.261	2.123
1.873	-7.258	2.127
1.864	-7.260	2.130
1.858	-7.267	2.130
1.856	-7.275	2.128
1.860	-7.283	2.125
1.868	-7.287	2.120
1.876	-7.285	2.118
1.357	-7.224	1.255
1.363	-7.221	1.261
1.369	-7.224	1.268
1.371	-7.232	1.273
1.370	-7.241	1.274
1.364	-7.248	1.272
1.358	-7.250	1.266
1.352	-7.247	1.259
1.350	-7.240	1.254
1.352	-7.231	1.252
1.953	-7.423	0.677
1.959	-7.420	0.683
1.965	-7.423	0.690
1.967	-7.431	0.695
1.966	-7.440	0.697
1.961	-7.447	0.693
1.954	-7.450	0.687
1.949	-7.447	0.681
1.946	-7.439	0.676
1.948	-7.430	0.674
2.233	-7.495	0.426
2.239	-7.492	0.433
2.244	-7.495	0.440
2.247	-7.503	0.445
2.245	-7.512	0.446
2.241	-7.519	0.442
2.234	-7.522	0.436
2.229	-7.519	0.429
2.226	-7.512	0.424
2.228	-7.502	0.423
0.304	-5.200	0.272
0.309	-5.192	0.275
0.308	-5.183	0.276
0.302	-5.176	0.274
0.294	-5.174	0.271
0.286	-5.177	0.267
0.282	-5.184	0.264
0.283	-5.194	0.263
0.288	-5.201	0.264
0.297	-5.203	0.268
-0.066	-5.305	1.057
-0.062	-5.297	1.060
-0.063	-5.288	1.062
-0.069	-5.281	1.061
-0.078	-5.279	1.058
-0.085	-5.282	1.053
-0.089	-5.289	1.050
-0.088	-5.298	1.048
-0.082	-5.305	1.049
-0.073	-5.308	1.052
-0.167	-5.387	1.268
-0.164	-5.380	1.272
-0.165	-5.371	1.275
-0.172	-5.364	1.275
-0.180	-5.362	1.271
-0.187	-5.365	1.267
-0.191	-5.373	1.262
-0.189	-5.381	1.260
-0.183	-5.388	1.260
-0.174	-5.390	1.263
1.405	-7.387	1.310
1.409	-7.379	1.314
1.408	-7.370	1.315
1.403	-7.363	1.313
1.396	-7.360	1.308
1.389	-7.363	1.302
1.385	-7.370	1.298
1.386	-7.379	1.297
1.391	-7.387	1.299
1.398	-7.390	1.305
0.896	-7.505	1.982
0.900	-7.498	1.986
0.899	-7.489	1.987
0.893	-7.482	1.986
0.885	-7.479	1.981
0.878	-7.482	1.976
0.875	-7.489	1.972
0.876	-7.498	1.970
0.881	-7.506	1.972
0.889	-7.508	1.976
0.839	-7.537	2.085
0.842	-7.530	2.090
0.841	-7.521	2.091
0.835	-7.514	2.090
0.827	-7.512	2.087
0.820	-7.515	2.082
0.816	-7.522	2.077
0.817	-7.531	2.075
0.823	-7.538	2.077
0.832	-7.540	2.080
1.436	-7.505	1.337
1.444	-7.510	1.338
1.448	-7.516	1.343
1.446	-7.522	1.351
1.440	-7.525	1.357
1.431	-7.523	1.360
1.423	-7.518	1.358
1.420	-7.512	1.353
1.421	-7.506	1.346
1.427	-7.504	1.340
1.146	-8.128	0.784
1.154	-8.133	0.786
1.158	-8.139	0.791
1.156	-8.145	0.798
1.150	-8.147	0.805
1.141	-8.146	0.808
1.134	-8.141	0.806
1.130	-8.135	0.801
1.131	-8.129	0.794
1.138	-8.126	0.787
1.465	-7.641	1.383
1.471	-7.639	1.389
1.477	-7.641	1.396
1.479	-7.649	1.401
1.479	-7.658	1.402
1.474	-7.666	1.398
1.468	-7.668	1.391
1.463	-7.665	1.384
1.460	-7.658	1.380
1.461	-7.649	1.379
2.147	-7.745	0.819
2.152	-7.742	0.825
2.158	-7.745	0.832
2.161	-7.752	0.837
2.160	-7.761	0.838
2.156	-7.769	0.834
2.150	-7.772	0.827
2.145	-7.769	0.820
2.142	-7.761	0.816
2.143	-7.752	0.815
2.269	-7.770	0.731
2.273	-7.770	0.740
2.272	-7.770	0.749
2.265	-7.770	0.755
2.256	-7.770	0.757
2.248	-7.770	0.753
2.244	-7.770	0.744
2.245	-7.770	0.735
2.252	-7.770	0.729
2.261	-7.770	0.727
1.498	-7.783	1.422
1.502	-7.780	1.430
1.506	-7.782	1.438
1.507	-7.789	1.444
1.506	-7.799	1.445
1.503	-7.806	1.441
1.498	-7.809	1.433
1.494	-7.807	1.425
1.493	-7.800	1.419
1.494	-7.790	1.418
2.243	-7.926	1.038
2.248	-7.923	1.045
2.253	-7.926	1.053
2.254	-7.933	1.058
2.252	-7.942	1.060
2.248	-7.949	1.056
2.243	-7.952	1.049
2.239	-7.950	1.041
2.238	-7.942	1.035
2.239	-7.933	1.034
2.293	-7.943	1.003
2.299	-7.940	1.010
2.303	-7.943	1.017
2.304	-7.950	1.023
2.302	-7.959	1.025
2.298	-7.966	1.021
2.292	-7.969	1.015
2.288	-7.966	1.007
2.286	-7.959	1.001
2.288	-7.950	1.000
1.542	-7.939	1.464
1.541	-7.930	1.465
1.536	-7.923	1.469
1.529	-7.921	1.474
1.522	-7.924	1.479
1.518	-7.932	1.481
1.518	-7.941	1.480
1.523	-7.948	1.477
[...]
         <CellData>
           <DataArray type="Float32" Name="combinedRootClassID" NumberOfComponents="1" format="ascii">
 -1.300e+01 -1.300e+01 -1.300e+01 -1.300e+01 -1.300e+01 -1.300e+01 -1.300e+01 -1.300e+01 -1.300e+01 -1.300e+01 -1.300e+01 -1.300e+01 -1.300e+01 -1.300e+01 -1.300e+01 -1.300e+01 -1.300e+01 -1.300e+01 -1.300e+01 -1.300e+01 -1.300e+01 -1.300e+01 -1.300e+01 -1.300e+01 -1.300e+01 -1.300e+01 -1.300e+01 -1.300e+01 -1.300e+01 -1.300e+01 -1.300e+01 -1.300e+01 -1.300e+01 -1.300e+01 -1.300e+01 -1.300e+01 -1.300e+01 -1.300e+01 -1.300e+01 -1.300e+01 -1.300e+01 -1.300e+01 -1.300e+01 -1.300e+01 -1.300e+01 -1.300e+01 -1.300e+01 -1.300e+01 -1.300e+01 -1.300e+01 -1.300e+01 -1.300e+01 -1.300e+01 -1.300e+01 -1.300e+01 -1.300e+01 -1.300e+01 -1.300e+01 -1.300e+01 -1.300e+01 -1.300e+01 -1.300e+01 -1.300e+01 -1.300e+01 -1.300e+01 -1.300e+01 -1.300e+01 -1.300e+01 -1.300e+01 -1.300e+01 -1.300e+01 -1.300e+01 -1.300e+01 -1.300e+01 -1.300e+01 -1.300e+01 -1.300e+01 -1.300e+01 -1.300e+01 -1.300e+01 -1.300e+01 -1.300e+01 -1.300e+01 -1.300e+01 -1.300e+01 -1.300e+01 -1.300e+01 -1.300e+01 -5.000e+00 -5.000e+00 -5.000e+00 -5.000e+00 -5.000e+00 -5.000e+00 -5.000e+00 -5.000e+00 -5.000e+00 -5.000e+00 -5.000e+00 -5.000e+00 -5.000e+00 -5.000e+00 -5.000e+00 -5.000e+00 -5.000e+00 -5.000e+00 -5.000e+00 -5.000e+00 -5.000e+00 -5.000e+00 -5.000e+00 -1.300e+01 -1.300e+01 -1.300e+01 -1.300e+01 -1.300e+01 -1.300e+01 -1.300e+01 -1.300e+01 -1.300e+01 -1.300e+01 -1.300e+01 -1.300e+01 -1.300e+01 -1.300e+01 -1.300e+01 -1.300e+01 -1.300e+01 -1.300e+01 -1.300e+01 -1.300e+01 -1.300e+01 -1.300e+01 -1.300e+01 -1.300e+01 -1.300e+01 -1.300e+01 -1.300e+01 -1.300e+01 -1.300e+01 -1.300e+01 -1.300e+01 -1.300e+01 -1.300e+01 -1.300e+01 -1.300e+01 -1.300e+01 -1.300e+01 -1.300e+01 -1.300e+01 -1.300e+01 -1.300e+01 -1.300e+01 -1.300e+01 -1.300e+01 -1.300e+01 -1.300e+01 -1.300e+01 -1.300e+01 -1.300e+01 -1.300e+01 -1.300e+01 -1.300e+01 -1.300e+01 -1.300e+01 -1.300e+01 -1.300e+01 -1.300e+01 -1.300e+01 -1.300e+01 -1.300e+01 -1.300e+01 -1.300e+01 -1.300e+01 -1.300e+01 -1.300e+01 -1.300e+01 -1.300e+01 -1.300e+01 -1.300e+01 -1.300e+01 -1.300e+01 -1.300e+01 -1.300e+01 -1.300e+01 -1.300e+01 -1.300e+01 -1.300e+01 -1.300e+01 -1.300e+01 -1.300e+01 -1.300e+01 -1.300e+01 -1.300e+01 -1.300e+01 -1.300e+01 -1.300e+01 -5.000e+00 -5.000e+00 -5.000e+00 -5.000e+00 -5.000e+00 -5.000e+00 -5.000e+00 -5.000e+00 -5.000e+00 -5.000e+00 -5.000e+00 -5.000e+00 -5.000e+00 -5.000e+00 -5.000e+00 -5.000e+00 -5.000e+00 -5.000e+00 -5.000e+00 -5.000e+00 -5.000e+00 -5.000e+00 -5.000e+00 -1.300e+01 -1.300e+01 -1.300e+01 -1.300e+01 -1.300e+01 -1.300e+01 -1.300e+01 -1.300e+01 -1.300e+01 -1.300e+01 -1.300e+01 -1.300e+01 -1.300e+01 -1.300e+01 -1.300e+01 -1.300e+01 -1.300e+01 -1.300e+01 -1.300e+01 -1.300e+01 -1.300e+01 -1.300e+01 -1.300e+01 -1.300e+01 -1.300e+01 -1.300e+01 -1.300e+01 -1.300e+01 -1.300e+01 -1.300e+01 -1.300e+01 -1.300e+01 -1.300e+01 -1.300e+01 -1.300e+01 -1.300e+01 -1.300e+01 -1.300e+01 -1.300e+01 -1.300e+01 -1.300e+01 -1.300e+01 -1.300e+01 -1.300e+01 -1.300e+01 -1.300e+01 -1.300e+01 -1.300e+01 -1.300e+01 -1.300e+01 -1.300e+01 -1.300e+01 -1.300e+01 -1.300e+01 -1.300e+01 -1.300e+01 -1.300e+01 -1.300e+01 -1.300e+01 -1.300e+01 -1.300e+01 -1.300e+01 -1.300e+01 -1.300e+01 -1.300e+01 -1.300e+01 -1.300e+01 -1.300e+01 -1.300e+01 -1.300e+01 -1.300e+01 -1.300e+01 -1.300e+01 -1.300e+01 -1.300e+01 -1.300e+01 -1.300e+01 -1.300e+01 -1.300e+01 -1.300e+01 -1.300e+01 -1.300e+01 -1.300e+01 -1.300e+01 -1.300e+01 -1.300e+01 -1.300e+01 -5.000e+00 -5.000e+00 -5.000e+00 -5.000e+00 -5.000e+00 -5.000e+00 -5.000e+00 -5.000e+00 -5.000e+00 -5.000e+00 -5.000e+00 -5.000e+00 -5.000e+00 -5.000e+00 -5.000e+00 -5.000e+00 -5.000e+00 -5.000e+00 -5.000e+00 -5.000e+00 -5.000e+00 -5.000e+00 -5.000e+00 -1.300e+01 -1.300e+01 -1.300e+01 -1.300e+01 -1.300e+01 -1.300e+01 -1.300e+01 -1.300e+01 -1.300e+01 -1.300e+01 -1.300e+01 -1.300e+01 -1.300e+01 -1.300e+01 -1.300e+01 -1.300e+01 -1.300e+01 -1.300e+01 -1.300e+01 -1.300e+01 -1.300e+01 -1.300e+01 -1.300e+01 -1.300e+01 -1.300e+01 -1.300e+01 -1.300e+01 -1.300e+01 -1.300e+01 -1.300e+01 -1.300e+01 -1.300e+01 -1.300e+01 -1.300e+01 -1.300e+01 -1.300e+01 -1.300e+01 -1.300e+01 -1.300e+01 -1.300e+01 -1.300e+01 -1.300e+01 -1.300e+01 -1.300e+01 -1.300e+01 -1.300e+01 -1.300e+01 -1.300e+01 -1.300e+01 -1.300e+01 -1.300e+01 -1.300e+01 -1.300e+01 -1.300e+01 -1.300e+01 -1.300e+01 -1.300e+01 -1.300e+01 -1.300e+01 -1.300e+01 -1.300e+01 -1.300e+01 -1.300e+01 -1.300e+01 -1.300e+01 -1.300e+01 -1.300e+01 -1.300e+01 -1.300e+01 -1.300e+01 -1.300e+01 -1.300e+01 -1.300e+01 -1.300e+01 -1.300e+01 -1.300e+01 -1.300e+01 -1.300e+01 -1.300e+01 -1.300e+01 -1.300e+01 -1.300e+01 -1.300e+01 -1.300e+01 -1.300e+01 -1.300e+01 -5.000e+00 -5.000e+00 -5.000e+00 -5.000e+00 -5.000e+00 -5.000e+00 -5.000e+00 -5.000e+00 -5.000e+00 -5.000e+00 -5.000e+00 -5.000e+00 -5.000e+00 -5.000e+00 -5.000e+00 -5.000e+00 -5.000e+00 -5.000e+00 -5.000e+00 -5.000e+00 -5.000e+00 -5.000e+00 -5.000e+00 -9.000e+00 -9.000e+00 -9.000e+00 -9.000e+00 -9.000e+00 -9.000e+00 -9.000e+00 -9.000e+00 -9.000e+00 -9.000e+00 -9.000e+00 -9.000e+00 -9.000e+00 -9.000e+00 -9.000e+00 -9.000e+00 -9.000e+00 -9.000e+00 -9.000e+00 -9.000e+00 -9.000e+00 -9.000e+00 -9.000e+00 -9.000e+00 -9.000e+00 -9.000e+00 -9.000e+00 -9.000e+00 -9.000e+00 -9.000e+00 -9.000e+00 -9.000e+00 -9.000e+00 -9.000e+00 -9.000e+00 -9.000e+00 -9.000e+00 -9.000e+00 -9.000e+00 -9.000e+00 -9.000e+00 -9.000e+00 -9.000e+00 -9.000e+00 -9.000e+00 -9.000e+00 -9.000e+00 -9.000e+00 -2.000e+00 -2.000e+00 -2.000e+00 -2.000e+00 -2.000e+00 -2.000e+00 -2.000e+00 -2.000e+00 -2.000e+00 -2.000e+00 -7.000e+00 -7.000e+00 -7.000e+00 -7.000e+00 -7.000e+00 -7.000e+00 -7.000e+00 -7.000e+00 -7.000e+00 -7.000e+00 -7.000e+00 -7.000e+00 -7.000e+00 -7.000e+00 -7.000e+00 -7.000e+00 -7.000e+00 -7.000e+00 -7.000e+00 -7.000e+00 -7.000e+00 -7.000e+00 -7.000e+00 -7.000e+00 -7.000e+00 -7.000e+00 -7.000e+00 -7.000e+00 -7.000e+00 -7.000e+00 -7.000e+00 -7.000e+00 -7.000e+00 -7.000e+00 -7.000e+00 -7.000e+00 -7.000e+00 -7.000e+00 -7.000e+00 -7.000e+00 -7.000e+00 -7.000e+00 -7.000e+00 -7.000e+00 -7.000e+00 -7.000e+00 -7.000e+00 -7.000e+00 -7.000e+00 -7.000e+00 -7.000e+00 -7.000e+00 -7.000e+00 -7.000e+00 -7.000e+00 -7.000e+00 -7.000e+00 -7.000e+00 -7.000e+00 -7.000e+00 -7.000e+00 -7.000e+00 -7.000e+00 -7.000e+00 -7.000e+00 -7.000e+00 -7.000e+00 -7.000e+00 -7.000e+00 -7.000e+00 -7.000e+00 -7.000e+00 -7.000e+00 -7.000e+00 -7.000e+00 -7.000e+00 -7.000e+00 -7.000e+00 -7.000e+00 -7.000e+00 -7.000e+00 -7.000e+00 -7.000e+00 -7.000e+00 -7.000e+00 -7.000e+00 -7.000e+00 -7.000e+00 -7.000e+00 -7.000e+00 -7.000e+00 -7.000e+00 -7.000e+00 -7.000e+00 -7.000e+00 -7.000e+00 -7.000e+00 -7.000e+00 -7.000e+00 -7.000e+00 -7.000e+00 -7.000e+00 -7.000e+00 -7.000e+00 -7.000e+00 -7.000e+00 -7.000e+00 -7.000e+00 -7.000e+00 -7.000e+00 -7.000e+00 -7.000e+00 -7.000e+00 -7.000e+00 -7.000e+00 -7.000e+00 -7.000e+00 -7.000e+00 -7.000e+00 -7.000e+00 -7.000e+00 -7.000e+00 -7.000e+00 -7.000e+00 -7.000e+00 -7.000e+00 -7.000e+00 -7.000e+00 -7.000e+00 -7.000e+00 -7.000e+00 -7.000e+00 -7.000e+00 -7.000e+00 -7.000e+00 -7.000e+00 -7.000e+00 -7.000e+00 -7.000e+00 -7.000e+00 -7.000e+00 -7.000e+00 -7.000e+00 -7.000e+00 -7.000e+00 -7.000e+00 -7.000e+00 -7.000e+00 -7.000e+00 -7.000e+00 -7.000e+00 -7.000e+00 -7.000e+00 -7.000e+00 -7.000e+00 -7.000e+00 -7.000e+00 -7.000e+00 -7.000e+00 -7.000e+00 -7.000e+00 -7.000e+00 -7.000e+00 -7.000e+00 -7.000e+00 -7.000e+00 -7.000e+00 -7.000e+00 -7.000e+00 -7.000e+00 -7.000e+00 -7.000e+00 -7.000e+00 -7.000e+00 -7.000e+00 -7.000e+00 -7.000e+00 -7.000e+00 -7.000e+00 -7.000e+00 -7.000e+00 -7.000e+00 -7.000e+00 -7.000e+00 -7.000e+00 -7.000e+00 -7.000e+00 -7.000e+00 -7.000e+00 -7.000e+00 -7.000e+00 -7.000e+00 -7.000e+00 -7.000e+00 -7.000e+00 -7.000e+00 -7.000e+00 -7.000e+00 -7.000e+00 -7.000e+00 -7.000e+00 -7.000e+00 -7.000e+00 -7.000e+00 -7.000e+00 -7.000e+00 -7.000e+00 -7.000e+00 -7.000e+00 -7.000e+00 -7.000e+00 -7.000e+00 -7.000e+00 -7.000e+00 -7.000e+00 -7.000e+00 -7.000e+00 -7.000e+00 -7.000e+00 -7.000e+00 -7.000e+00 -7.000e+00 -7.000e+00 -7.000e+00 -7.000e+00 -7.000e+00 -7.000e+00 -7.000e+00 -7.000e+00 -7.000e+00 -7.000e+00 -7.000e+00 -7.000e+00 -7.000e+00 -7.000e+00 -7.000e+00 -7.000e+00 -7.000e+00 -7.000e+00 -7.000e+00 -7.000e+00 -7.000e+00 -7.000e+00 -7.000e+00 -7.000e+00 -7.000e+00 -7.000e+00 -7.000e+00 -7.000e+00 -7.000e+00 -7.000e+00 -7.000e+00 -7.000e+00 -7.000e+00 -7.000e+00 -7.000e+00 -7.000e+00 -7.000e+00 -7.000e+00 -7.000e+00 -7.000e+00 -7.000e+00 -7.000e+00 -7.000e+00 -7.000e+00 -7.000e+00 -7.000e+00 -7.000e+00 -7.000e+00 -7.000e+00 -7.000e+00 -7.000e+00 -7.000e+00 -7.000e+00 -7.000e+00 -7.000e+00 -7.000e+00 -7.000e+00 -7.000e+00 -7.000e+00 -7.000e+00 -7.000e+00 -7.000e+00 -7.000e+00 -7.000e+00 -7.000e+00 -7.000e+00 -7.000e+00 -7.000e+00 -7.000e+00 -7.000e+00 -7.000e+00 -7.000e+00 -7.000e+00 -7.000e+00 -7.000e+00 -7.000e+00 -7.000e+00 -7.000e+00 -7.000e+00 -7.000e+00 -7.000e+00 -7.000e+00 -7.000e+00 -7.000e+00 -7.000e+00 -7.000e+00 -7.000e+00 -7.000e+00 -7.000e+00 -7.000e+00 -7.000e+00 -7.000e+00 -7.000e+00 -7.000e+00 -7.000e+00 -7.000e+00 -7.000e+00 -7.000e+00 -7.000e+00 -7.000e+00 -7.000e+00 -7.000e+00 -7.000e+00 -7.000e+00 -7.000e+00 -7.000e+00 -7.000e+00 -7.000e+00 -7.000e+00 -7.000e+00 -7.000e+00 -7.000e+00 -7.000e+00 -7.000e+00 -7.000e+00 -7.000e+00 -7.000e+00 -7.000e+00 -7.000e+00 -7.000e+00 -7.000e+00 -7.000e+00 -7.000e+00 -7.000e+00 -7.000e+00 -7.000e+00 -7.000e+00 -7.000e+00 -7.000e+00 -7.000e+00 -7.000e+00 -7.000e+00 -7.000e+00 -7.000e+00 -7.000e+00 -7.000e+00 -7.000e+00 -7.000e+00 -7.000e+00 -7.000e+00 -7.000e+00 -7.000e+00 -7.000e+00 -7.000e+00 -7.000e+00 -7.000e+00 -7.000e+00 -7.000e+00 -7.000e+00 -7.000e+00 -7.000e+00 -7.000e+00 -7.000e+00 -7.000e+00 -7.000e+00 -7.000e+00 -7.000e+00 -7.000e+00 -7.000e+00 -7.000e+00 -7.000e+00 -7.000e+00 -7.000e+00 -7.000e+00 -7.000e+00 -7.000e+00 -7.000e+00 -7.000e+00 -7.000e+00 -7.000e+00 -7.000e+00 -7.000e+00 -1.500e+01 -1.100e+01 -1.100e+01 -1.100e+01 -1.100e+01 -1.100e+01 -1.100e+01 -1.100e+01 -1.100e+01 -1.100e+01 -1.100e+01 -1.100e+01 -1.100e+01 -1.100e+01 -4.000e+00 -4.000e+00 -4.000e+00 -4.000e+00 -4.000e+00 -4.000e+00 -4.000e+00 -4.000e+00 -4.000e+00 -4.000e+00 -4.000e+00 -4.000e+00 -4.000e+00 -4.000e+00 -4.000e+00 -4.000e+00 -4.000e+00 -4.000e+00 -4.000e+00 -4.000e+00 -4.000e+00 -4.000e+00 -4.000e+00 -4.000e+00 -4.000e+00 -4.000e+00 -4.000e+00 -4.000e+00 -4.000e+00 -4.000e+00 -4.000e+00 -4.000e+00 -4.000e+00
           </DataArray>
           <DataArray type="Float32" Name="nitrate/Cmin" NumberOfComponents="1" format="ascii">
 1.000e-03 1.000e-03 1.000e-03 1.000e-03 1.000e-03 1.000e-03 1.000e-03 1.000e-03 1.000e-03 1.000e-03 1.000e-03 1.000e-03 1.000e-03 1.000e-03 1.000e-03 1.000e-03 1.000e-03 1.000e-03 1.000e-03 1.000e-03 1.000e-03 1.000e-03 1.000e-03 1.000e-03 1.000e-03 1.000e-03 1.000e-03 1.000e-03 1.000e-03 1.000e-03 1.000e-03 1.000e-03 1.000e-03 1.000e-03 1.000e-03 1.000e-03 1.000e-03 1.000e-03 1.000e-03 1.000e-03 1.000e-03 1.000e-03 1.000e-03 1.000e-03 1.000e-03 1.000e-03 1.000e-03 1.000e-03 1.000e-03 1.000e-03 1.000e-03 1.000e-03 1.000e-03 1.000e-03 1.000e-03 1.000e-03 1.000e-03 1.000e-03 1.000e-03 1.000e-03 1.000e-03 1.000e-03 1.000e-03 1.000e-03 1.000e-03 1.000e-03 1.000e-03 1.000e-03 1.000e-03 1.000e-03 1.000e-03 1.000e-03 1.000e-03 1.000e-03 1.000e-03 1.000e-03 1.000e-03 1.000e-03 1.000e-03 1.000e-03 1.000e-03 1.000e-03 1.000e-03 1.000e-03 1.000e-03 1.000e-03 1.000e-03 1.000e-03 1.000e-03 1.000e-03 1.000e-03 1.000e-03 1.000e-03 1.000e-03 1.000e-03 1.000e-03 1.000e-03 1.000e-03 1.000e-03 1.000e-03 1.000e-03 1.000e-03 1.000e-03 1.000e-03 1.000e-03 1.000e-03 1.000e-03 1.000e-03 1.000e-03 1.000e-03 1.000e-03 1.000e-03 1.000e-03 1.000e-03 1.000e-03 1.000e-03 1.000e-03 1.000e-03 1.000e-03 1.000e-03 1.000e-03 1.000e-03 1.000e-03 1.000e-03 1.000e-03 1.000e-03 1.000e-03 1.000e-03 1.000e-03 1.000e-03 1.000e-03 1.000e-03 1.000e-03 1.000e-03 1.000e-03 1.000e-03 1.000e-03 1.000e-03 1.000e-03 1.000e-03 1.000e-03 1.000e-03 1.000e-03 1.000e-03 1.000e-03 1.000e-03 1.000e-03 1.000e-03 1.000e-03 1.000e-03 1.000e-03 1.000e-03 1.000e-03 1.000e-03 1.000e-03 1.000e-03 1.000e-03 1.000e-03 1.000e-03 1.000e-03 1.000e-03 1.000e-03 1.000e-03 1.000e-03 1.000e-03 1.000e-03 1.000e-03 1.000e-03 1.000e-03 1.000e-03 1.000e-03 1.000e-03 1.000e-03 1.000e-03 1.000e-03 1.000e-03 1.000e-03 1.000e-03 1.000e-03 1.000e-03 1.000e-03 1.000e-03 1.000e-03 1.000e-03 1.000e-03 1.000e-03 1.000e-03 1.000e-03 1.000e-03 1.000e-03 1.000e-03 1.000e-03 1.000e-03 1.000e-03 1.000e-03 1.000e-03 1.000e-03 1.000e-03 1.000e-03 1.000e-03 1.000e-03 1.000e-03 1.000e-03 1.000e-03 1.000e-03 1.000e-03 1.000e-03 1.000e-03 1.000e-03 1.000e-03 1.000e-03 1.000e-03 1.000e-03 1.000e-03 1.000e-03 1.000e-03 1.000e-03 1.000e-03 1.000e-03 1.000e-03 1.000e-03 1.000e-03 1.000e-03 1.000e-03 1.000e-03 1.000e-03 1.000e-03 1.000e-03 1.000e-03 1.000e-03 1.000e-03 1.000e-03 1.000e-03 1.000e-03 1.000e-03 1.000e-03 1.000e-03 1.000e-03 1.000e-03 1.000e-03 1.000e-03 1.000e-03 1.000e-03 1.000e-03 1.000e-03 1.000e-03 1.000e-03 1.000e-03 1.000e-03 1.000e-03 1.000e-03 1.000e-03 1.000e-03 1.000e-03 1.000e-03 1.000e-03 1.000e-03 1.000e-03 1.000e-03 1.000e-03 1.000e-03 1.000e-03 1.000e-03 1.000e-03 1.000e-03 1.000e-03 1.000e-03 1.000e-03 1.000e-03 1.000e-03 1.000e-03 1.000e-03 1.000e-03 1.000e-03 1.000e-03 1.000e-03 1.000e-03 1.000e-03 1.000e-03 1.000e-03 1.000e-03 1.000e-03 1.000e-03 1.000e-03 1.000e-03 1.000e-03 1.000e-03 1.000e-03 1.000e-03 1.000e-03 1.000e-03 1.000e-03 1.000e-03 1.000e-03 1.000e-03 1.000e-03 1.000e-03 1.000e-03 1.000e-03 1.000e-03 1.000e-03 1.000e-03 1.000e-03 1.000e-03 1.000e-03 1.000e-03 1.000e-03 1.000e-03 1.000e-03 1.000e-03 1.000e-03 1.000e-03 1.000e-03 1.000e-03 1.000e-03 1.000e-03 1.000e-03 1.000e-03 1.000e-03 1.000e-03 1.000e-03 1.000e-03 1.000e-03 1.000e-03 1.000e-03 1.000e-03 1.000e-03 1.000e-03 1.000e-03 1.000e-03 1.000e-03 1.000e-03 1.000e-03 1.000e-03 1.000e-03 1.000e-03 1.000e-03 1.000e-03 1.000e-03 1.000e-03 1.000e-03 1.000e-03 1.000e-03 1.000e-03 1.000e-03 1.000e-03 1.000e-03 1.000e-03 1.000e-03 1.000e-03 1.000e-03 1.000e-03 1.000e-03 1.000e-03 1.000e-03 1.000e-03 1.000e-03 1.000e-03 1.000e-03 1.000e-03 1.000e-03 1.000e-03 1.000e-03 1.000e-03 1.000e-03 1.000e-03 1.000e-03 1.000e-03 1.000e-03 1.000e-03 1.000e-03 1.000e-03 1.000e-03 1.000e-03 1.000e-03 1.000e-03 1.000e-03 1.000e-03 1.000e-03 1.000e-03 1.000e-03 1.000e-03 1.000e-03 1.000e-03 1.000e-03 1.000e-03 1.000e-03 1.000e-03 1.000e-03 1.000e-03 1.000e-03 1.000e-03 1.000e-03 1.000e-03 1.000e-03 1.000e-03 1.000e-03 1.000e-03 1.000e-03 1.000e-03 1.000e-03 1.000e-03 1.000e-03 1.000e-03 1.000e-03 1.000e-03 1.000e-03 1.000e-03 1.000e-03 1.000e-03 1.000e-03 1.000e-03 1.000e-03 1.000e-03 1.000e-03 1.000e-03 1.000e-03 1.000e-03 1.000e-03 1.000e-03 1.000e-03 1.000e-03 1.000e-03 1.000e-03 1.000e-03 1.000e-03 1.000e-03 1.000e-03 1.000e-03 1.000e-03 1.000e-03 1.000e-03 1.000e-03 1.000e-03 1.000e-03 1.000e-03 1.000e-03 1.000e-03 1.000e-03 1.000e-03 1.000e-03 1.000e-03 1.000e-03 1.000e-03 1.000e-03 1.000e-03 1.000e-03 1.000e-03 1.000e-03 1.000e-03 1.000e-03 1.000e-03 1.000e-03 1.000e-03 1.000e-03 1.000e-03 1.000e-03 1.000e-03 1.000e-03 1.000e-03 1.000e-03 1.000e-03 1.000e-03 1.000e-03 1.000e-03 1.000e-03 1.000e-03 1.000e-03 1.000e-03 1.000e-03 1.000e-03 1.000e-03 1.000e-03 1.000e-03 1.000e-03 1.000e-03 1.000e-03 1.000e-03 1.000e-03 1.000e-03 1.000e-03 1.000e-03 1.000e-03 1.000e-03 1.000e-03 1.000e-03 1.000e-03 1.000e-03 1.000e-03 1.000e-03 1.000e-03 1.000e-03 1.000e-03 1.000e-03 1.000e-03 1.000e-03 1.000e-03 1.000e-03 1.000e-03 1.000e-03 1.000e-03 1.000e-03 1.000e-03 1.000e-03 1.000e-03 1.000e-03 1.000e-03 1.000e-03 1.000e-03 1.000e-03 1.000e-03 1.000e-03 1.000e-03 1.000e-03 1.000e-03 1.000e-03 1.000e-03 1.000e-03 1.000e-03 1.000e-03 1.000e-03 1.000e-03 1.000e-03 1.000e-03 1.000e-03 1.000e-03 1.000e-03 1.000e-03 1.000e-03 1.000e-03 1.000e-03 1.000e-03 1.000e-03 1.000e-03 1.000e-03 1.000e-03 1.000e-03 1.000e-03 1.000e-03 1.000e-03 1.000e-03 1.000e-03 1.000e-03 1.000e-03 1.000e-03 1.000e-03 1.000e-03 1.000e-03 1.000e-03 1.000e-03 1.000e-03 1.000e-03 1.000e-03 1.000e-03 1.000e-03 1.000e-03 1.000e-03 1.000e-03 1.000e-03 1.000e-03 1.000e-03 1.000e-03 1.000e-03 1.000e-03 1.000e-03 1.000e-03 1.000e-03 1.000e-03 1.000e-03 1.000e-03 1.000e-03 1.000e-03 1.000e-03 1.000e-03 1.000e-03 1.000e-03 1.000e-03 1.000e-03 1.000e-03 1.000e-03 1.000e-03 1.000e-03 1.000e-03 1.000e-03 1.000e-03 1.000e-03 1.000e-03 1.000e-03 1.000e-03 1.000e-03 1.000e-03 1.000e-03 1.000e-03 1.000e-03 1.000e-03 1.000e-03 1.000e-03 1.000e-03 1.000e-03 1.000e-03 1.000e-03 1.000e-03 1.000e-03 1.000e-03 1.000e-03 1.000e-03 1.000e-03 1.000e-03 1.000e-03 1.000e-03 1.000e-03 1.000e-03 1.000e-03 1.000e-03 1.000e-03 1.000e-03 1.000e-03 1.000e-03 1.000e-03 1.000e-03 1.000e-03 1.000e-03 1.000e-03 1.000e-03 1.000e-03 1.000e-03 1.000e-03 1.000e-03 1.000e-03 1.000e-03 1.000e-03 1.000e-03 1.000e-03 1.000e-03 1.000e-03 1.000e-03 1.000e-03 1.000e-03 1.000e-03 1.000e-03 1.000e-03 1.000e-03 1.000e-03 1.000e-03 1.000e-03 1.000e-03 1.000e-03 1.000e-03 1.000e-03 1.000e-03 1.000e-03 1.000e-03 1.000e-03 1.000e-03 1.000e-03 1.000e-03 1.000e-03 1.000e-03 1.000e-03 1.000e-03 1.000e-03 1.000e-03 1.000e-03 1.000e-03 1.000e-03 1.000e-03 1.000e-03 1.000e-03 1.000e-03 1.000e-03 1.000e-03 1.000e-03 1.000e-03 1.000e-03 1.000e-03 1.000e-03 1.000e-03 1.000e-03 1.000e-03 1.000e-03 1.000e-03 1.000e-03 1.000e-03 1.000e-03 1.000e-03 1.000e-03 1.000e-03 1.000e-03 1.000e-03 1.000e-03 1.000e-03 1.000e-03 1.000e-03 1.000e-03 1.000e-03 1.000e-03 1.000e-03 1.000e-03 1.000e-03 1.000e-03 1.000e-03 1.000e-03 1.000e-03 1.000e-03 1.000e-03 1.000e-03 1.000e-03 1.000e-03 1.000e-03 1.000e-03 1.000e-03 1.000e-03 1.000e-03 1.000e-03 1.000e-03 1.000e-03 1.000e-03 1.000e-03 1.000e-03 1.000e-03 1.000e-03 1.000e-03 1.000e-03 1.000e-03 1.000e-03 1.000e-03 1.000e-03 1.000e-03 1.000e-03 1.000e-03 1.000e-03 1.000e-03 1.000e-03 1.000e-03 1.000e-03 1.000e-03 1.000e-03 1.000e-03 1.000e-03 1.000e-03 1.000e-03 1.000e-03 1.000e-03 1.000e-03 1.000e-03 1.000e-03 1.000e-03 1.000e-03 1.000e-03 1.000e-03 1.000e-03 1.000e-03 1.000e-03 1.000e-03 1.000e-03 1.000e-03 1.000e-03 1.000e-03 1.000e-03 1.000e-03 1.000e-03 1.000e-03 1.000e-03 1.000e-03 1.000e-03 1.000e-03 1.000e-03 1.000e-03 1.000e-03 1.000e-03 1.000e-03 1.000e-03 1.000e-03 1.000e-03 1.000e-03 1.000e-03 1.000e-03 1.000e-03 1.000e-03 1.000e-03 1.000e-03 1.000e-03 1.000e-03 1.000e-03 1.000e-03 1.000e-03 1.000e-03 1.000e-03 1.000e-03 1.000e-03 1.000e-03 1.000e-03 1.000e-03 1.000e-03 1.000e-03 1.000e-03 1.000e-03 1.000e-03 1.000e-03 1.000e-03 1.000e-03 1.000e-03 1.000e-03 1.000e-03 1.000e-03 1.000e-03 1.000e-03 1.000e-03 1.000e-03 1.000e-03 1.000e-03 1.000e-03 1.000e-03 1.000e-03 1.000e-03 1.000e-03 1.000e-03 1.000e-03 1.000e-03 1.000e-03 1.000e-03 1.000e-03 1.000e-03 1.000e-03 1.000e-03 1.000e-03 1.000e-03 1.000e-03 1.000e-03 1.000e-03 1.000e-03 1.000e-03 1.000e-03 1.000e-03 1.000e-03 1.000e-03 1.000e-03 1.000e-03 1.000e-03 1.000e-03 1.000e-03 1.000e-03 1.000e-03 1.000e-03 1.000e-03 1.000e-03 1.000e-03 1.000e-03 1.000e-03 1.000e-03 1.000e-03 1.000e-03 1.000e-03 1.000e-03 1.000e-03 1.000e-03 1.000e-03 1.000e-03 1.000e-03 1.000e-03 1.000e-03 1.000e-03 1.000e-03 1.000e-03 1.000e-03 1.000e-03 1.000e-03 1.000e-03 1.000e-03 1.000e-03 1.000e-03 1.000e-03 1.000e-03 1.000e-03 1.000e-03 1.000e-03 1.000e-03 1.000e-03 1.000e-03 1.000e-03 1.000e-03 1.000e-03 1.000e-03 1.000e-03 1.000e-03 1.000e-03 1.000e-03 1.000e-03 1.000e-03 1.000e-03 1.000e-03 1.000e-03 1.000e-03 1.000e-03 1.000e-03 1.000e-03 1.000e-03 1.000e-03 1.000e-03 1.000e-03 1.000e-03 1.000e-03 1.000e-03 1.000e-03 1.000e-03 1.000e-03 1.000e-03 1.000e-03 1.000e-03 1.000e-03 1.000e-03 1.000e-03 1.000e-03 1.000e-03 1.000e-03 1.000e-03 1.000e-03 1.000e-03 1.000e-03 1.000e-03 1.000e-03 1.000e-03 1.000e-03 1.000e-03 1.000e-03 1.000e-03 1.000e-03 1.000e-03 1.000e-03 1.000e-03 1.000e-03 1.000e-03 1.000e-03 1.000e-03 1.000e-03 1.000e-03 1.000e-03
           </DataArray>