<?xml version="1.0"?>
<VTKFile type="UnstructuredGrid" version="0.1" byte_order="LittleEndian">
   <UnstructuredGrid>
      <Piece NumberOfPoints="58290" NumberOfCells="4249">
         <Points>
            <DataArray type="Float32" Name="Position" NumberOfComponents="3" format="ascii">
0.118	-5.034	0.085
0.122	-5.037	0.093
0.120	-5.038	0.102
0.113	-5.037	0.109
0.104	-5.036	0.110
0.096	-5.033	0.106
0.093	-5.030	0.098
0.095	-5.029	0.089
0.102	-5.029	0.082
0.110	-5.031	0.081
-0.085	-5.854	-0.081
-0.081	-5.857	-0.073
-0.082	-5.858	-0.064
-0.088	-5.859	-0.057
-0.098	-5.858	-0.056
-0.106	-5.856	-0.059
-0.110	-5.854	-0.067
-0.109	-5.852	-0.076
-0.103	-5.852	-0.083
-0.094	-5.853	-0.085
-0.126	-6.674	-0.250
-0.121	-6.675	-0.241
-0.123	-6.675	-0.232
-0.129	-6.676	-0.225
-0.138	-6.676	-0.224
-0.146	-6.675	-0.228
-0.151	-6.674	-0.236
-0.150	-6.674	-0.245
-0.143	-6.673	-0.252
-0.134	-6.673	-0.253
-0.111	-7.514	-0.211
-0.108	-7.512	-0.203
-0.109	-7.511	-0.194
-0.116	-7.511	-0.188
-0.125	-7.511	-0.187
-0.134	-7.512	-0.191
-0.137	-7.513	-0.199
-0.136	-7.514	-0.208
-0.129	-7.514	-0.215
-0.120	-7.514	-0.216
-0.076	-8.375	-0.038
-0.073	-8.373	-0.030
-0.075	-8.370	-0.021
-0.082	-8.369	-0.015
-0.091	-8.370	-0.014
-0.099	-8.372	-0.019
-0.102	-8.374	-0.027
-0.100	-8.376	-0.036
-0.093	-8.377	-0.042
-0.084	-8.377	-0.043
-0.072	-8.405	-0.028
-0.069	-8.402	-0.020
-0.071	-8.399	-0.012
-0.078	-8.398	-0.006
-0.087	-8.399	-0.005
-0.095	-8.402	-0.009
-0.098	-8.405	-0.017
-0.096	-8.407	-0.026
-0.089	-8.408	-0.032
-0.080	-8.407	-0.033
0.213	-5.099	0.171
0.211	-5.092	0.176
0.207	-5.089	0.184
0.203	-5.092	0.192
0.199	-5.100	0.196
0.199	-5.109	0.195
0.201	-5.116	0.190
0.205	-5.119	0.182
0.210	-5.116	0.175
0.213	-5.108	0.170
0.956	-5.168	0.573
0.954	-5.160	0.578
0.951	-5.158	0.587
0.947	-5.161	0.594
0.943	-5.169	0.598
0.941	-5.178	0.597
0.943	-5.185	0.591
0.946	-5.187	0.583
0.950	-5.184	0.575
0.954	-5.177	0.571
1.695	-5.447	0.894
1.694	-5.440	0.900
1.690	-5.437	0.908
1.685	-5.439	0.915
1.681	-5.446	0.919
1.679	-5.455	0.918
1.680	-5.463	0.913
1.683	-5.466	0.905
1.688	-5.463	0.897
1.693	-5.456	0.893
2.396	-5.588	1.380
2.394	-5.580	1.385
2.390	-5.576	1.392
2.385	-5.579	1.399
2.381	-5.585	1.404
2.379	-5.595	1.404
2.381	-5.602	1.399
2.385	-5.606	1.392
2.391	-5.604	1.384
2.395	-5.597	1.380
2.628	-5.615	1.531
2.626	-5.608	1.535
2.622	-5.604	1.543
2.617	-5.606	1.550
2.613	-5.614	1.555
2.612	-5.623	1.555
2.614	-5.631	1.550
2.618	-5.634	1.543
2.623	-5.632	1.535
2.627	-5.624	1.531
0.923	-6.044	0.815
0.921	-6.035	0.818
0.916	-6.030	0.823
0.909	-6.029	0.829
0.904	-6.034	0.834
0.901	-6.043	0.836
0.903	-6.052	0.834
0.908	-6.058	0.829
0.914	-6.058	0.822
0.920	-6.053	0.817
1.525	-6.088	1.454
1.523	-6.079	1.456
1.518	-6.073	1.461
1.511	-6.072	1.467
1.505	-6.077	1.472
1.502	-6.085	1.474
1.504	-6.094	1.472
1.509	-6.100	1.468
1.516	-6.101	1.462
1.522	-6.096	1.456
2.064	-6.107	2.106
2.064	-6.097	2.107
2.059	-6.091	2.111
2.051	-6.089	2.116
2.045	-6.093	2.121
2.041	-6.102	2.124
2.042	-6.111	2.123
2.047	-6.117	2.119
2.054	-6.119	2.113
2.061	-6.115	2.108
2.586	-6.137	2.828
2.586	-6.128	2.829
2.581	-6.121	2.833
2.574	-6.119	2.838
2.567	-6.122	2.843
2.563	-6.130	2.845
2.563	-6.140	2.844
2.568	-6.147	2.840
2.575	-6.148	2.834
2.582	-6.145	2.830
2.900	-6.198	3.277
2.899	-6.189	3.278
2.895	-6.182	3.282
2.888	-6.180	3.288
2.880	-6.184	3.292
2.876	-6.192	3.294
2.876	-6.201	3.293
2.881	-6.208	3.289
2.888	-6.210	3.283
2.895	-6.206	3.279
2.419	-19.201	2.320
2.421	-19.194	2.325
2.420	-19.184	2.326
2.417	-19.177	2.322
2.412	-19.174	2.315
2.407	-19.176	2.307
2.405	-19.184	2.302
2.406	-19.193	2.301
2.409	-19.201	2.305
2.414	-19.204	2.312
1.714	-19.301	2.763
1.717	-19.294	2.768
1.716	-19.285	2.769
1.712	-19.277	2.765
1.706	-19.274	2.758
1.701	-19.277	2.751
1.699	-19.284	2.746
1.700	-19.293	2.745
1.704	-19.301	2.748
1.709	-19.304	2.755
1.233	-19.406	3.147
1.236	-19.399	3.152
1.235	-19.390	3.153
1.231	-19.382	3.150
1.225	-19.379	3.143
1.220	-19.381	3.136
1.217	-19.389	3.131
1.218	-19.398	3.130
1.222	-19.405	3.133
1.228	-19.408	3.140
2.424	-19.351	2.317
2.426	-19.344	2.323
2.424	-19.335	2.324
2.420	-19.327	2.321
2.415	-19.324	2.314
2.411	-19.326	2.306
2.409	-19.333	2.300
2.410	-19.342	2.299
2.415	-19.350	2.302
2.420	-19.353	2.309
1.739	-19.537	2.754
1.742	-19.529	2.760
1.740	-19.520	2.761
1.736	-19.513	2.758
1.730	-19.510	2.751
1.725	-19.512	2.744
1.723	-19.519	2.739
1.724	-19.528	2.737
1.728	-19.536	2.740
1.734	-19.539	2.747
1.120	-19.700	3.336
1.123	-19.693	3.341
1.121	-19.684	3.344
1.116	-19.676	3.342
1.109	-19.674	3.336
1.103	-19.676	3.330
1.100	-19.683	3.324
1.102	-19.692	3.322
1.107	-19.699	3.324
1.114	-19.702	3.330
1.036	-19.753	3.440
1.038	-19.746	3.446
1.036	-19.738	3.449
1.030	-19.731	3.447
1.023	-19.728	3.443
1.016	-19.730	3.436
1.014	-19.737	3.431
1.016	-19.746	3.428
1.022	-19.753	3.429
1.029	-19.756	3.434
2.412	-19.478	2.309
2.418	-19.475	2.303
2.427	-19.478	2.299
2.433	-19.485	2.300
2.435	-19.493	2.304
2.432	-19.499	2.310
2.425	-19.502	2.316
2.417	-19.499	2.319
2.411	-19.492	2.319
2.409	-19.484	2.315
2.015	-19.885	1.695
2.023	-19.885	1.691
2.031	-19.890	1.689
2.036	-19.897	1.692
2.036	-19.905	1.697
2.031	-19.909	1.704
2.023	-19.910	1.708
2.015	-19.905	1.710
2.010	-19.898	1.707
2.011	-19.890	1.702
1.798	-20.261	1.198
1.803	-20.259	1.206
1.803	-20.259	1.215
1.798	-20.261	1.222
1.790	-20.265	1.225
1.782	-20.269	1.222
1.777	-20.271	1.215
1.777	-20.271	1.205
1.782	-20.269	1.198
1.790	-20.265	1.195
2.431	-19.651	2.316
2.431	-19.644	2.322
2.428	-19.635	2.323
2.425	-19.627	2.318
2.423	-19.624	2.310
2.422	-19.626	2.301
2.423	-19.633	2.295
2.425	-19.642	2.294
2.428	-19.650	2.298
2.430	-19.653	2.307
1.611	-19.879	2.468
1.611	-19.872	2.474
1.609	-19.863	2.475
1.606	-19.855	2.470
1.603	-19.852	2.462
1.601	-19.854	2.453
1.601	-19.861	2.447
1.603	-19.871	2.446
1.606	-19.878	2.451
1.609	-19.881	2.459
1.150	-19.968	2.636
1.151	-19.961	2.642
1.149	-19.952	2.643
1.146	-19.945	2.638
1.143	-19.942	2.630
1.140	-19.944	2.622
1.140	-19.951	2.616
1.141	-19.960	2.615
1.144	-19.968	2.620
1.148	-19.971	2.628
2.442	-19.799	2.307
2.446	-19.790	2.309
2.444	-19.781	2.310
2.438	-19.775	2.311
2.428	-19.774	2.310
2.420	-19.778	2.308
2.416	-19.786	2.306
2.418	-19.795	2.305
2.425	-19.802	2.304
2.434	-19.803	2.305
2.349	-19.953	3.135
2.353	-19.945	3.138
2.351	-19.936	3.140
2.344	-19.930	3.140
2.335	-19.928	3.138
2.327	-19.932	3.135
2.324	-19.940	3.132
2.325	-19.949	3.130
2.332	-19.956	3.130
2.341	-19.957	3.132
2.112	-20.189	3.770
2.112	-20.181	3.774
2.112	-20.172	3.773
2.112	-20.165	3.766
2.112	-20.164	3.757
2.112	-20.168	3.749
2.112	-20.176	3.744
2.112	-20.185	3.746
2.112	-20.192	3.752
2.112	-20.194	3.762
2.441	-19.951	2.314
2.441	-19.943	2.320
2.439	-19.934	2.321
2.436	-19.927	2.316
2.433	-19.924	2.308
2.431	-19.926	2.300
2.431	-19.933	2.294
2.432	-19.942	2.293
2.435	-19.950	2.297
2.439	-19.953	2.305
1.668	-20.123	2.550
1.669	-20.116	2.555
1.668	-20.106	2.556
1.665	-20.099	2.551
1.662	-20.096	2.543
1.659	-20.099	2.535
1.658	-20.106	2.529
1.659	-20.115	2.529
1.662	-20.123	2.533
1.665	-20.126	2.541
0.895	-20.167	2.859
0.897	-20.160	2.864
0.896	-20.150	2.864
0.894	-20.143	2.859
0.890	-20.140	2.851
0.887	-20.143	2.843
0.886	-20.151	2.838
0.886	-20.160	2.838
0.889	-20.167	2.843
0.892	-20.170	2.851
2.440	-20.079	2.295
2.442	-20.074	2.303
2.443	-20.075	2.312
2.442	-20.081	2.319
2.440	-20.090	2.321
2.437	-20.098	2.318
2.435	-20.102	2.310
2.435	-20.102	2.301
2.436	-20.096	2.294
2.438	-20.087	2.292
3.235	-20.288	2.231
3.238	-20.284	2.239
3.239	-20.285	2.248
3.239	-20.291	2.254
3.237	-20.300	2.256
3.233	-20.308	2.253
3.230	-20.312	2.245
3.229	-20.311	2.236
3.229	-20.304	2.229
3.232	-20.295	2.227
3.994	-20.559	1.944
3.999	-20.556	1.951
4.001	-20.558	1.960
4.001	-20.564	1.966
3.999	-20.573	1.968
3.995	-20.581	1.965
3.991	-20.584	1.957
3.988	-20.582	1.948
3.988	-20.576	1.942
3.990	-20.567	1.940
2.454	-20.247	2.304
2.457	-20.239	2.306
2.454	-20.230	2.309
2.447	-20.225	2.310
2.438	-20.224	2.311
2.430	-20.229	2.309
2.427	-20.238	2.307
2.429	-20.246	2.304
2.437	-20.252	2.302
2.446	-20.252	2.302
2.464	-20.494	3.139
2.467	-20.486	3.141
2.464	-20.477	3.144
2.457	-20.472	3.145
2.448	-20.472	3.146
2.440	-20.477	3.146
2.437	-20.486	3.144
2.440	-20.494	3.141
2.447	-20.499	3.139
2.456	-20.500	3.139
2.531	-20.587	3.583
2.534	-20.579	3.585
2.531	-20.570	3.587
2.524	-20.565	3.589
2.514	-20.565	3.591
2.507	-20.571	3.591
2.504	-20.579	3.589
2.507	-20.588	3.587
2.514	-20.593	3.585
2.523	-20.593	3.583
2.448	-20.400	2.316
2.442	-20.394	2.321
2.438	-20.386	2.320
2.436	-20.379	2.315
2.438	-20.375	2.307
2.442	-20.376	2.299
2.448	-20.382	2.294
2.453	-20.390	2.295
2.455	-20.397	2.300
2.453	-20.401	2.309
1.781	-20.825	1.970
1.776	-20.821	1.975
1.770	-20.813	1.976
1.767	-20.806	1.971
1.768	-20.801	1.963
1.772	-20.801	1.955
1.778	-20.806	1.949
1.783	-20.814	1.949
1.786	-20.821	1.953
1.785	-20.826	1.961
1.416	-21.078	1.823
1.410	-21.074	1.830
1.405	-21.067	1.831
1.401	-21.059	1.827
1.401	-21.054	1.820
1.404	-21.054	1.811
1.409	-21.058	1.804
1.415	-21.065	1.803
1.418	-21.073	1.807
1.419	-21.078	1.815
2.461	-20.539	2.300
2.459	-20.530	2.303
2.454	-20.524	2.308
2.448	-20.524	2.314
2.442	-20.529	2.319
2.439	-20.537	2.321
2.440	-20.546	2.318
2.445	-20.552	2.313
2.452	-20.553	2.307
2.458	-20.548	2.302
3.033	-20.611	2.922
3.031	-20.603	2.926
3.027	-20.598	2.932
3.021	-20.599	2.939
3.016	-20.605	2.944
3.014	-20.614	2.945
3.016	-20.623	2.942
3.021	-20.627	2.935
3.027	-20.626	2.928
3.032	-20.620	2.923
3.428	-20.638	3.177
3.426	-20.630	3.182
3.421	-20.627	3.189
3.416	-20.629	3.197
3.413	-20.636	3.201
3.412	-20.646	3.201
3.414	-20.653	3.197
3.419	-20.657	3.189
3.424	-20.654	3.182
3.427	-20.647	3.177
0.979	-6.163	0.870
0.985	-6.167	0.875
0.987	-6.172	0.882
0.983	-6.176	0.890
0.975	-6.177	0.895
0.966	-6.175	0.895
0.960	-6.170	0.890
0.958	-6.165	0.882
0.962	-6.162	0.875
0.970	-6.161	0.870
0.817	-6.867	0.446
0.823	-6.872	0.452
0.823	-6.876	0.461
0.818	-6.878	0.468
0.810	-6.878	0.472
0.801	-6.875	0.470
0.795	-6.871	0.465
0.795	-6.867	0.456
0.800	-6.865	0.449
[...]
         <CellData>
           <DataArray type="Float32" Name="combinedRootClassID" NumberOfComponents="1" format="ascii">
 -1.300e+01 -1.300e+01 -1.300e+01 -1.300e+01 -1.300e+01 -1.300e+01 -1.300e+01 -1.300e+01 -1.300e+01 -1.300e+01 -1.300e+01 -1.300e+01 -1.300e+01 -1.300e+01 -1.300e+01 -1.300e+01 -1.300e+01 -1.300e+01 -1.300e+01 -1.300e+01 -1.300e+01 -1.300e+01 -1.300e+01 -1.300e+01 -1.300e+01 -1.300e+01 -1.300e+01 -1.300e+01 -1.300e+01 -1.300e+01 -1.300e+01 -1.300e+01 -1.300e+01 -1.300e+01 -1.300e+01 -1.300e+01 -1.300e+01 -1.300e+01 -1.300e+01 -1.300e+01 -1.300e+01 -1.300e+01 -1.300e+01 -1.300e+01 -1.300e+01 -1.300e+01 -1.300e+01 -1.300e+01 -1.300e+01 -1.300e+01 -1.300e+01 -1.300e+01 -1.300e+01 -1.300e+01 -1.300e+01 -1.300e+01 -1.300e+01 -1.300e+01 -1.300e+01 -1.300e+01 -1.300e+01 -1.300e+01 -1.300e+01 -1.300e+01 -1.300e+01 -1.300e+01 -1.300e+01 -1.300e+01 -1.300e+01 -1.300e+01 -1.300e+01 -1.300e+01 -1.300e+01 -1.300e+01 -1.300e+01 -1.300e+01 -1.300e+01 -1.300e+01 -1.300e+01 -1.300e+01 -1.300e+01 -1.300e+01 -1.300e+01 -1.300e+01 -1.300e+01 -1.300e+01 -1.300e+01 -1.300e+01 -1.300e+01 -1.300e+01 -1.300e+01 -1.300e+01 -1.300e+01 -1.300e+01 -1.300e+01 -1.300e+01 -1.300e+01 -1.300e+01 -1.300e+01 -1.300e+01 -1.300e+01 -1.300e+01 -1.300e+01 -1.300e+01 -1.300e+01 -1.300e+01 -1.300e+01 -1.300e+01 -1.300e+01 -1.300e+01 -1.300e+01 -1.300e+01 -1.300e+01 -1.300e+01 -1.300e+01 -1.300e+01 -1.300e+01 -1.300e+01 -1.300e+01 -1.300e+01 -1.300e+01 -1.300e+01 -1.300e+01 -1.300e+01 -1.300e+01 -1.300e+01 -1.300e+01 -1.300e+01 -1.300e+01 -1.300e+01 -1.300e+01 -1.300e+01 -1.300e+01 -1.300e+01 -1.300e+01 -1.300e+01 -1.300e+01 -1.300e+01 -1.300e+01 -1.300e+01 -1.300e+01 -1.300e+01 -1.300e+01 -1.300e+01 -1.300e+01 -1.300e+01 -1.300e+01 -1.300e+01 -1.300e+01 -1.300e+01 -1.300e+01 -1.300e+01 -1.300e+01 -1.300e+01 -1.300e+01 -1.300e+01 -1.300e+01 -1.300e+01 -1.300e+01 -1.300e+01 -1.300e+01 -1.300e+01 -1.300e+01 -1.300e+01 -1.300e+01 -1.300e+01 -1.300e+01 -1.300e+01 -1.300e+01 -1.300e+01 -1.300e+01 -1.300e+01 -1.300e+01 -1.300e+01 -1.300e+01 -1.300e+01 -1.300e+01 -1.300e+01 -1.300e+01 -1.300e+01 -1.300e+01 -1.300e+01 -1.300e+01 -1.300e+01 -1.300e+01 -1.300e+01 -1.300e+01 -1.300e+01 -1.300e+01 -1.300e+01 -1.300e+01 -1.300e+01 -1.300e+01 -1.300e+01 -1.300e+01 -1.300e+01 -1.300e+01 -1.300e+01 -1.300e+01 -1.300e+01 -1.300e+01 -1.300e+01 -1.300e+01 -1.300e+01 -1.300e+01 -1.300e+01 -1.300e+01 -1.300e+01 -1.300e+01 -1.300e+01 -1.300e+01 -1.300e+01 -1.300e+01 -1.300e+01 -1.300e+01 -1.300e+01 -1.300e+01 -1.300e+01 -1.300e+01 -1.300e+01 -1.300e+01 -1.300e+01 -1.300e+01 -1.300e+01 -1.300e+01 -1.300e+01 -1.300e+01 -1.300e+01 -1.300e+01 -1.300e+01 -1.300e+01 -1.300e+01 -1.300e+01 -1.300e+01 -1.300e+01 -1.300e+01 -1.300e+01 -1.300e+01 -1.300e+01 -1.300e+01 -1.300e+01 -1.300e+01 -1.300e+01 -1.300e+01 -1.300e+01 -1.300e+01 -1.300e+01 -1.300e+01 -1.300e+01 -1.300e+01 -1.300e+01 -1.300e+01 -1.300e+01 -1.300e+01 -1.300e+01 -1.300e+01 -1.300e+01 -1.300e+01 -1.300e+01 -1.300e+01 -1.300e+01 -1.300e+01 -1.300e+01 -1.300e+01 -1.300e+01 -1.300e+01 -1.300e+01 -1.300e+01 -1.300e+01 -1.300e+01 -1.300e+01 -1.300e+01 -1.300e+01 -1.300e+01 -1.300e+01 -1.300e+01 -1.300e+01 -1.300e+01 -1.300e+01 -1.300e+01 -1.300e+01 -1.300e+01 -1.300e+01 -1.300e+01 -1.300e+01 -1.300e+01 -1.300e+01 -1.300e+01 -1.300e+01 -1.300e+01 -1.300e+01 -1.300e+01 -1.300e+01 -1.300e+01 -1.300e+01 -1.300e+01 -1.300e+01 -1.300e+01 -1.300e+01 -1.300e+01 -1.300e+01 -1.300e+01 -1.300e+01 -1.300e+01 -1.300e+01 -1.300e+01 -1.300e+01 -1.300e+01 -1.300e+01 -1.300e+01 -1.300e+01 -1.300e+01 -1.300e+01 -1.300e+01 -1.300e+01 -1.300e+01 -1.300e+01 -1.300e+01 -1.300e+01 -1.300e+01 -1.300e+01 -1.300e+01 -1.300e+01 -1.300e+01 -1.300e+01 -1.300e+01 -1.300e+01 -1.300e+01 -1.300e+01 -1.300e+01 -1.300e+01 -1.300e+01 -1.300e+01 -1.300e+01 -1.300e+01 -1.300e+01 -1.300e+01 -1.300e+01 -1.300e+01 -1.300e+01 -1.300e+01 -1.300e+01 -1.300e+01 -1.300e+01 -1.300e+01 -1.300e+01 -1.300e+01 -1.300e+01 -1.300e+01 -1.300e+01 -1.300e+01 -1.300e+01 -1.300e+01 -1.300e+01 -1.300e+01 -1.300e+01 -1.300e+01 -1.300e+01 -1.300e+01 -1.300e+01 -1.300e+01 -1.300e+01 -1.300e+01 -1.300e+01 -1.300e+01 -1.300e+01 -1.300e+01 -1.300e+01 -1.300e+01 -1.300e+01 -1.300e+01 -1.300e+01 -1.300e+01 -1.300e+01 -1.300e+01 -1.300e+01 -1.300e+01 -1.300e+01 -1.300e+01 -1.300e+01 -1.300e+01 -1.300e+01 -1.300e+01 -1.300e+01 -1.300e+01 -1.300e+01 -1.300e+01 -1.300e+01 -1.300e+01 -1.300e+01 -1.300e+01 -1.300e+01 -1.300e+01 -1.300e+01 -1.300e+01 -1.300e+01 -1.300e+01 -1.300e+01 -1.300e+01 -1.300e+01 -1.300e+01 -1.300e+01 -1.300e+01 -1.300e+01 -1.300e+01 -1.300e+01 -1.300e+01 -1.300e+01 -1.300e+01 -1.300e+01 -1.300e+01 -1.300e+01 -1.300e+01 -1.300e+01 -1.300e+01 -1.300e+01 -1.300e+01 -1.300e+01 -1.300e+01 -1.300e+01 -1.300e+01 -1.300e+01 -1.300e+01 -1.300e+01 -1.300e+01 -1.300e+01 -1.300e+01 -1.300e+01 -1.300e+01 -1.300e+01 -1.300e+01 -1.300e+01 -1.300e+01 -1.300e+01 -1.300e+01 -1.300e+01 -1.300e+01 -1.300e+01 -1.300e+01 -1.300e+01 -1.300e+01 -1.300e+01 -1.300e+01 -1.300e+01 -1.300e+01 -1.300e+01 -5.000e+00 -5.000e+00 -5.000e+00 -5.000e+00 -5.000e+00 -5.000e+00 -5.000e+00 -5.000e+00 -5.000e+00 -5.000e+00 -5.000e+00 -5.000e+00 -5.000e+00 -5.000e+00 -5.000e+00 -5.000e+00 -5.000e+00 -5.000e+00 -5.000e+00 -5.000e+00 -5.000e+00 -5.000e+00 -5.000e+00 -5.000e+00 -5.000e+00 -5.000e+00 -5.000e+00 -5.000e+00 -5.000e+00 -5.000e+00 -5.000e+00 -5.000e+00 -5.000e+00 -5.000e+00 -5.000e+00 -5.000e+00 -5.000e+00 -5.000e+00 -5.000e+00 -5.000e+00 -5.000e+00 -5.000e+00 -5.000e+00 -1.300e+01 -1.300e+01 -1.300e+01 -1.300e+01 -1.300e+01 -1.300e+01 -1.300e+01 -1.300e+01 -1.300e+01 -1.300e+01 -1.300e+01 -1.300e+01 -1.300e+01 -1.300e+01 -1.300e+01 -1.300e+01 -1.300e+01 -1.300e+01 -1.300e+01 -1.300e+01 -1.300e+01 -1.300e+01 -1.300e+01 -1.300e+01 -1.300e+01 -1.300e+01 -1.300e+01 -1.300e+01 -1.300e+01 -1.300e+01 -1.300e+01 -1.300e+01 -1.300e+01 -1.300e+01 -1.300e+01 -1.300e+01 -1.300e+01 -1.300e+01 -1.300e+01 -1.300e+01 -1.300e+01 -1.300e+01 -1.300e+01 -1.300e+01 -1.300e+01 -1.300e+01 -1.300e+01 -1.300e+01 -1.300e+01 -1.300e+01 -1.300e+01 -1.300e+01 -1.300e+01 -1.300e+01 -1.300e+01 -1.300e+01 -1.300e+01 -1.300e+01 -1.300e+01 -1.300e+01 -1.300e+01 -1.300e+01 -1.300e+01 -1.300e+01 -1.300e+01 -1.300e+01 -1.300e+01 -1.300e+01 -1.300e+01 -1.300e+01 -1.300e+01 -1.300e+01 -1.300e+01 -1.300e+01 -1.300e+01 -1.300e+01 -1.300e+01 -1.300e+01 -1.300e+01 -1.300e+01 -1.300e+01 -1.300e+01 -1.300e+01 -1.300e+01 -1.300e+01 -1.300e+01 -1.300e+01 -1.300e+01 -1.300e+01 -1.300e+01 -1.300e+01 -1.300e+01 -1.300e+01 -1.300e+01 -1.300e+01 -1.300e+01 -1.300e+01 -1.300e+01 -1.300e+01 -1.300e+01 -1.300e+01 -1.300e+01 -1.300e+01 -1.300e+01 -1.300e+01 -1.300e+01 -1.300e+01 -1.300e+01 -1.300e+01 -1.300e+01 -1.300e+01 -1.300e+01 -1.300e+01 -1.300e+01 -1.300e+01 -1.300e+01 -1.300e+01 -1.300e+01 -1.300e+01 -1.300e+01 -1.300e+01 -1.300e+01 -1.300e+01 -1.300e+01 -1.300e+01 -1.300e+01 -1.300e+01 -1.300e+01 -1.300e+01 -1.300e+01 -1.300e+01 -1.300e+01 -1.300e+01 -1.300e+01 -1.300e+01 -1.300e+01 -1.300e+01 -1.300e+01 -1.300e+01 -1.300e+01 -1.300e+01 -1.300e+01 -1.300e+01 -1.300e+01 -1.300e+01 -1.300e+01 -1.300e+01 -1.300e+01 -1.300e+01 -1.300e+01 -1.300e+01 -1.300e+01 -1.300e+01 -1.300e+01 -1.300e+01 -1.300e+01 -1.300e+01 -1.300e+01 -1.300e+01 -1.300e+01 -1.300e+01 -1.300e+01 -1.300e+01 -1.300e+01 -1.300e+01 -1.300e+01 -1.300e+01 -1.300e+01 -1.300e+01 -1.300e+01 -1.300e+01 -1.300e+01 -1.300e+01 -1.300e+01 -1.300e+01 -1.300e+01 -1.300e+01 -1.300e+01 -1.300e+01 -1.300e+01 -1.300e+01 -1.300e+01 -1.300e+01 -1.300e+01 -1.300e+01 -1.300e+01 -1.300e+01 -1.300e+01 -1.300e+01 -1.300e+01 -1.300e+01 -1.300e+01 -1.300e+01 -1.300e+01 -1.300e+01 -1.300e+01 -1.300e+01 -1.300e+01 -1.300e+01 -1.300e+01 -1.300e+01 -1.300e+01 -1.300e+01 -1.300e+01 -1.300e+01 -1.300e+01 -1.300e+01 -1.300e+01 -1.300e+01 -1.300e+01 -1.300e+01 -1.300e+01 -1.300e+01 -1.300e+01 -1.300e+01 -1.300e+01 -1.300e+01 -1.300e+01 -1.300e+01 -1.300e+01 -1.300e+01 -1.300e+01 -1.300e+01 -1.300e+01 -1.300e+01 -1.300e+01 -1.300e+01 -1.300e+01 -1.300e+01 -1.300e+01 -1.300e+01 -1.300e+01 -1.300e+01 -1.300e+01 -1.300e+01 -1.300e+01 -1.300e+01 -1.300e+01 -1.300e+01 -1.300e+01 -1.300e+01 -1.300e+01 -1.300e+01 -1.300e+01 -1.300e+01 -1.300e+01 -1.300e+01 -1.300e+01 -1.300e+01 -1.300e+01 -1.300e+01 -1.300e+01 -1.300e+01 -1.300e+01 -1.300e+01 -1.300e+01 -1.300e+01 -1.300e+01 -1.300e+01 -1.300e+01 -1.300e+01 -1.300e+01 -1.300e+01 -1.300e+01 -1.300e+01 -1.300e+01 -1.300e+01 -1.300e+01 -1.300e+01 -1.300e+01 -1.300e+01 -1.300e+01 -1.300e+01 -1.300e+01 -1.300e+01 -1.300e+01 -1.300e+01 -1.300e+01 -1.300e+01 -1.300e+01 -1.300e+01 -1.300e+01 -1.300e+01 -1.300e+01 -1.300e+01 -1.300e+01 -1.300e+01 -1.300e+01 -1.300e+01 -1.300e+01 -1.300e+01 -1.300e+01 -1.300e+01 -1.300e+01 -1.300e+01 -1.300e+01 -1.300e+01 -1.300e+01 -1.300e+01 -1.300e+01 -1.300e+01 -1.300e+01 -1.300e+01 -1.300e+01 -1.300e+01 -1.300e+01 -1.300e+01 -1.300e+01 -1.300e+01 -1.300e+01 -1.300e+01 -1.300e+01 -1.300e+01 -1.300e+01 -1.300e+01 -1.300e+01 -1.300e+01 -1.300e+01 -1.300e+01 -1.300e+01 -1.300e+01 -1.300e+01 -1.300e+01 -1.300e+01 -1.300e+01 -1.300e+01 -1.300e+01 -1.300e+01 -1.300e+01 -1.300e+01 -1.300e+01 -1.300e+01 -1.300e+01 -1.300e+01 -1.300e+01 -1.300e+01 -1.300e+01 -1.300e+01 -1.300e+01 -1.300e+01 -1.300e+01 -1.300e+01 -1.300e+01 -1.300e+01 -1.300e+01 -1.300e+01 -1.300e+01 -1.300e+01 -1.300e+01 -1.300e+01 -1.300e+01 -1.300e+01 -1.300e+01 -1.300e+01 -1.300e+01 -1.300e+01 -1.300e+01 -1.300e+01 -1.300e+01 -1.300e+01 -1.300e+01 -1.300e+01 -1.300e+01 -1.300e+01 -1.300e+01 -1.300e+01 -1.300e+01 -1.300e+01 -1.300e+01 -1.300e+01 -1.300e+01 -1.300e+01 -1.300e+01 -1.300e+01 -1.300e+01 -1.300e+01 -1.300e+01 -1.300e+01 -1.300e+01 -1.300e+01 -1.300e+01 -1.300e+01 -1.300e+01 -1.300e+01 -1.300e+01 -1.300e+01 -1.300e+01 -1.300e+01 -1.300e+01 -1.300e+01 -1.300e+01 -1.300e+01 -1.300e+01 -1.300e+01 -1.300e+01 -1.300e+01 -1.300e+01 -1.300e+01 -1.300e+01 -1.300e+01 -1.300e+01 -1.300e+01 -1.300e+01 -1.300e+01 -1.300e+01 -1.300e+01 -1.300e+01 -1.300e+01 -1.300e+01 -1.300e+01 -1.300e+01 -1.300e+01 -1.300e+01 -1.300e+01 -1.300e+01 -1.300e+01 -1.300e+01 -1.300e+01 -1.300e+01 -1.300e+01 -1.300e+01 -1.300e+01 -1.300e+01 -1.300e+01 -1.300e+01 -1.300e+01 -1.300e+01 -1.300e+01 -1.300e+01 -1.300e+01 -1.300e+01 -1.300e+01 -1.300e+01 -1.300e+01 -1.300e+01 -1.300e+01 -1.300e+01 -1.300e+01 -1.300e+01 -1.300e+01 -1.300e+01 -5.000e+00 -5.000e+00 -5.000e+00 -5.000e+00 -5.000e+00 -5.000e+00 -5.000e+00 -5.000e+00 -5.000e+00 -5.000e+00 -5.000e+00 -5.000e+00 -5.000e+00 -5.000e+00 -5.000e+00 -5.000e+00 -5.000e+00 -5.000e+00 -5.000e+00 -5.000e+00 -5.000e+00 -5.000e+00 -5.000e+00 -5.000e+00 -5.000e+00 -5.000e+00 -5.000e+00 -5.000e+00 -5.000e+00 -5.000e+00 -5.000e+00 -5.000e+00 -5.000e+00 -5.000e+00 -5.000e+00 -5.000e+00 -5.000e+00 -5.000e+00 -5.000e+00 -5.000e+00 -5.000e+00 -5.000e+00 -5.000e+00 -1.300e+01 -1.300e+01 -1.300e+01 -1.300e+01 -1.300e+01 -1.300e+01 -1.300e+01 -1.300e+01 -1.300e+01 -1.300e+01 -1.300e+01 -1.300e+01 -1.300e+01 -1.300e+01 -1.300e+01 -1.300e+01 -1.300e+01 -1.300e+01 -1.300e+01 -1.300e+01 -1.300e+01 -1.300e+01 -1.300e+01 -1.300e+01 -1.300e+01 -1.300e+01 -1.300e+01 -1.300e+01 -1.300e+01 -1.300e+01 -1.300e+01 -1.300e+01 -1.300e+01 -1.300e+01 -1.300e+01 -1.300e+01 -1.300e+01 -1.300e+01 -1.300e+01 -1.300e+01 -1.300e+01 -1.300e+01 -1.300e+01 -1.300e+01 -1.300e+01 -1.300e+01 -1.300e+01 -1.300e+01 -1.300e+01 -1.300e+01 -1.300e+01 -1.300e+01 -1.300e+01 -1.300e+01 -1.300e+01 -1.300e+01 -1.300e+01 -1.300e+01 -1.300e+01 -1.300e+01 -1.300e+01 -1.300e+01 -1.300e+01 -1.300e+01 -1.300e+01 -1.300e+01 -1.300e+01 -1.300e+01 -1.300e+01 -1.300e+01 -1.300e+01 -1.300e+01 -1.300e+01 -1.300e+01 -1.300e+01 -1.300e+01 -1.300e+01 -1.300e+01 -1.300e+01 -1.300e+01 -1.300e+01 -1.300e+01 -1.300e+01 -1.300e+01 -1.300e+01 -1.300e+01 -1.300e+01 -1.300e+01 -1.300e+01 -1.300e+01 -1.300e+01 -1.300e+01 -1.300e+01 -1.300e+01 -1.300e+01 -1.300e+01 -1.300e+01 -1.300e+01 -1.300e+01 -1.300e+01 -1.300e+01 -1.300e+01 -1.300e+01 -1.300e+01 -1.300e+01 -1.300e+01 -1.300e+01 -1.300e+01 -1.300e+01 -1.300e+01 -1.300e+01 -1.300e+01 -1.300e+01 -1.300e+01 -1.300e+01 -1.300e+01 -1.300e+01 -1.300e+01 -1.300e+01 -1.300e+01 -1.300e+01 -1.300e+01 -1.300e+01 -1.300e+01 -1.300e+01 -1.300e+01 -1.300e+01 -1.300e+01 -1.300e+01 -1.300e+01 -1.300e+01 -1.300e+01 -1.300e+01 -1.300e+01 -1.300e+01 -1.300e+01 -1.300e+01 -1.300e+01 -1.300e+01 -1.300e+01 -1.300e+01 -1.300e+01 -1.300e+01 -1.300e+01 -1.300e+01 -1.300e+01 -1.300e+01 -1.300e+01 -1.300e+01 -1.300e+01 -1.300e+01 -1.300e+01 -1.300e+01 -1.300e+01 -1.300e+01 -1.300e+01 -1.300e+01 -1.300e+01 -1.300e+01 -1.300e+01 -1.300e+01 -1.300e+01 -1.300e+01 -1.300e+01 -1.300e+01 -1.300e+01 -1.300e+01 -1.300e+01 -1.300e+01 -1.300e+01 -1.300e+01 -1.300e+01 -1.300e+01 -1.300e+01 -1.300e+01 -1.300e+01 -1.300e+01 -1.300e+01 -1.300e+01 -1.300e+01 -1.300e+01 -1.300e+01 -1.300e+01 -1.300e+01 -1.300e+01 -1.300e+01 -1.300e+01 -1.300e+01 -1.300e+01 -1.300e+01 -1.300e+01 -1.300e+01 -1.300e+01 -1.300e+01 -1.300e+01 -1.300e+01 -1.300e+01 -1.300e+01 -1.300e+01 -1.300e+01 -1.300e+01 -1.300e+01 -1.300e+01 -1.300e+01 -1.300e+01 -1.300e+01 -1.300e+01 -1.300e+01 -1.300e+01 -1.300e+01 -1.300e+01 -1.300e+01 -1.300e+01 -1.300e+01 -1.300e+01 -1.300e+01 -1.300e+01 -1.300e+01 -1.300e+01 -1.300e+01 -1.300e+01 -1.300e+01 -1.300e+01 -1.300e+01 -1.300e+01 -1.300e+01 -1.300e+01 -1.300e+01 -1.300e+01 -1.300e+01 -1.300e+01 -1.300e+01 -1.300e+01 -1.300e+01 -1.300e+01 -1.300e+01 -1.300e+01 -1.300e+01 -1.300e+01 -1.300e+01 -1.300e+01 -1.300e+01 -1.300e+01 -1.300e+01 -1.300e+01 -1.300e+01 -1.300e+01 -1.300e+01 -1.300e+01 -1.300e+01 -1.300e+01 -1.300e+01 -1.300e+01 -1.300e+01 -1.300e+01 -1.300e+01 -1.300e+01 -1.300e+01 -1.300e+01 -1.300e+01 -1.300e+01 -1.300e+01 -1.300e+01 -1.300e+01 -1.300e+01 -1.300e+01 -1.300e+01 -1.300e+01 -1.300e+01 -1.300e+01 -1.300e+01 -1.300e+01 -1.300e+01 -1.300e+01 -1.300e+01 -1.300e+01 -1.300e+01 -1.300e+01 -1.300e+01 -1.300e+01 -1.300e+01 -1.300e+01 -1.300e+01 -1.300e+01 -1.300e+01 -1.300e+01 -1.300e+01 -1.300e+01 -1.300e+01 -1.300e+01 -1.300e+01 -1.300e+01 -1.300e+01 -1.300e+01 -1.300e+01 -1.300e+01 -1.300e+01 -1.300e+01 -1.300e+01 -1.300e+01 -1.300e+01 -1.300e+01 -1.300e+01 -1.300e+01 -1.300e+01 -1.300e+01 -1.300e+01 -1.300e+01 -1.300e+01 -1.300e+01 -1.300e+01 -1.300e+01 -1.300e+01 -1.300e+01 -1.300e+01 -1.300e+01 -1.300e+01 -1.300e+01 -1.300e+01 -1.300e+01 -1.300e+01 -1.300e+01 -1.300e+01 -1.300e+01 -1.300e+01 -1.300e+01 -1.300e+01 -1.300e+01 -1.300e+01 -1.300e+01 -1.300e+01 -1.300e+01 -1.300e+01 -1.300e+01 -1.300e+01 -1.300e+01 -1.300e+01 -1.300e+01 -1.300e+01 -1.300e+01 -1.300e+01 -1.300e+01 -1.300e+01 -1.300e+01 -1.300e+01 -1.300e+01 -1.300e+01 -1.300e+01 -1.300e+01 -1.300e+01 -1.300e+01 -1.300e+01 -1.300e+01 -1.300e+01 -1.300e+01 -1.300e+01 -1.300e+01 -1.300e+01 -1.300e+01 -1.300e+01 -1.300e+01 -1.300e+01 -1.300e+01 -1.300e+01 -1.300e+01 -1.300e+01 -1.300e+01 -1.300e+01 -1.300e+01 -1.300e+01 -1.300e+01 -1.300e+01 -1.300e+01 -1.300e+01 -1.300e+01 -1.300e+01 -1.300e+01 -1.300e+01 -1.300e+01 -1.300e+01 -1.300e+01 -1.300e+01 -1.300e+01 -1.300e+01 -1.300e+01 -1.300e+01 -1.300e+01 -1.300e+01 -1.300e+01 -1.300e+01 -1.300e+01 -1.300e+01 -1.300e+01 -1.300e+01 -1.300e+01 -1.300e+01 -1.300e+01 -1.300e+01 -1.300e+01 -1.300e+01 -1.300e+01 -1.300e+01 -1.300e+01 -1.300e+01 -1.300e+01 -1.300e+01 -1.300e+01 -1.300e+01 -1.300e+01 -1.300e+01 -1.300e+01 -1.300e+01 -1.300e+01 -1.300e+01 -1.300e+01 -1.300e+01 -1.300e+01 -1.300e+01 -1.300e+01 -1.300e+01 -1.300e+01 -1.300e+01 -1.300e+01 -1.300e+01 -1.300e+01 -1.300e+01 -1.300e+01 -1.300e+01 -1.300e+01 -1.300e+01 -1.300e+01 -1.300e+01 -1.300e+01 -1.300e+01 -1.300e+01 -1.300e+01 -1.300e+01 -1.300e+01 -1.300e+01 -1.300e+01 -1.300e+01 -1.300e+01 -1.300e+01 -1.300e+01 -1.300e+01 -1.300e+01 -1.300e+01 -1.300e+01 -1.300e+01 -1.300e+01 -1.300e+01 -1.300e+01 -1.300e+01 -1.300e+01 -5.000e+00 -5.000e+00 -5.000e+00 -5.000e+00 -5.000e+00 -5.000e+00 -5.000e+00 -5.000e+00 -5.000e+00 -5.000e+00 -5.000e+00 -5.000e+00 -5.000e+00 -5.000e+00 -5.000e+00 -5.000e+00 -5.000e+00 -5.000e+00 -5.000e+00 -5.000e+00 -5.000e+00 -5.000e+00 -5.000e+00 -5.000e+00 -5.000e+00 -5.000e+00 -5.000e+00 -5.000e+00 -5.000e+00 -5.000e+00 -5.000e+00 -5.000e+00 -5.000e+00 -5.000e+00 -5.000e+00 -5.000e+00 -5.000e+00 -5.000e+00 -5.000e+00 -5.000e+00 -5.000e+00 -5.000e+00 -5.000e+00 -1.300e+01 -1.300e+01 -1.300e+01 -1.300e+01 -1.300e+01 -1.300e+01 -1.300e+01 -1.300e+01 -1.300e+01 -1.300e+01 -1.300e+01 -1.300e+01 -1.300e+01 -1.300e+01 -1.300e+01 -1.300e+01 -1.300e+01 -1.300e+01 -1.300e+01 -1.300e+01 -1.300e+01 -1.300e+01 -1.300e+01 -1.300e+01 -1.300e+01 -1.300e+01 -1.300e+01 -1.300e+01 -1.300e+01 -1.300e+01 -1.300e+01 -1.300e+01 -1.300e+01 -1.300e+01 -1.300e+01 -1.300e+01 -1.300e+01 -1.300e+01 -1.300e+01 -1.300e+01 -1.300e+01 -1.300e+01 -1.300e+01 -1.300e+01 -1.300e+01 -1.300e+01 -1.300e+01 -1.300e+01 -1.300e+01 -1.300e+01 -1.300e+01 -1.300e+01 -1.300e+01 -1.300e+01 -1.300e+01 -1.300e+01 -1.300e+01 -1.300e+01 -1.300e+01 -1.300e+01 -1.300e+01 -1.300e+01 -1.300e+01 -1.300e+01 -1.300e+01 -1.300e+01 -1.300e+01 -1.300e+01 -1.300e+01 -1.300e+01 -1.300e+01 -1.300e+01 -1.300e+01 -1.300e+01 -1.300e+01 -1.300e+01 -1.300e+01 -1.300e+01 -1.300e+01 -1.300e+01 -1.300e+01 -1.300e+01 -1.300e+01 -1.300e+01 -1.300e+01 -1.300e+01 -1.300e+01 -1.300e+01 -1.300e+01 -1.300e+01 -1.300e+01 -1.300e+01 -1.300e+01 -1.300e+01 -1.300e+01 -1.300e+01 -1.300e+01 -1.300e+01 -1.300e+01 -1.300e+01 -1.300e+01 -1.300e+01 -1.300e+01 -1.300e+01 -1.300e+01 -1.300e+01 -1.300e+01 -1.300e+01 -1.300e+01 -1.300e+01 -1.300e+01 -1.300e+01 -1.300e+01 -1.300e+01 -1.300e+01 -1.300e+01 -1.300e+01 -1.300e+01 -1.300e+01 -1.300e+01 -1.300e+01 -1.300e+01 -1.300e+01 -1.300e+01 -1.300e+01 -1.300e+01 -1.300e+01 -1.300e+01 -1.300e+01 -1.300e+01 -1.300e+01 -1.300e+01 -1.300e+01 -1.300e+01 -1.300e+01 -1.300e+01 -1.300e+01 -1.300e+01 -1.300e+01 -1.300e+01 -1.300e+01 -1.300e+01 -1.300e+01 -1.300e+01 -1.300e+01 -1.300e+01 -1.300e+01 -1.300e+01 -1.300e+01 -1.300e+01 -1.300e+01 -1.300e+01 -1.300e+01 -1.300e+01 -1.300e+01 -1.300e+01 -1.300e+01 -1.300e+01 -1.300e+01 -1.300e+01 -1.300e+01 -1.300e+01 -1.300e+01 -1.300e+01 -1.300e+01 -1.300e+01 -1.300e+01 -1.300e+01 -1.300e+01 -1.300e+01 -1.300e+01 -1.300e+01 -1.300e+01 -1.300e+01 -1.300e+01 -1.300e+01 -1.300e+01 -1.300e+01 -1.300e+01 -1.300e+01 -1.300e+01 -1.300e+01 -1.300e+01 -1.300e+01 -1.300e+01 -1.300e+01 -1.300e+01 -1.300e+01 -1.300e+01 -1.300e+01 -1.300e+01 -1.300e+01 -1.300e+01 -1.300e+01 -1.300e+01 -1.300e+01 -1.300e+01 -1.300e+01 -1.300e+01 -1.300e+01 -1.300e+01 -1.300e+01 -1.300e+01 -1.300e+01 -1.300e+01 -1.300e+01 -1.300e+01 -1.300e+01 -1.300e+01 -1.300e+01 -1.300e+01 -1.300e+01 -1.300e+01 -1.300e+01 -1.300e+01 -1.300e+01 -1.300e+01 -1.300e+01 -1.300e+01 -1.300e+01 -1.300e+01 -1.300e+01 -1.300e+01 -1.300e+01 -1.300e+01 -1.300e+01 -1.300e+01 -1.300e+01 -1.300e+01 -1.300e+01 -1.300e+01 -1.300e+01 -1.300e+01 -1.300e+01 -1.300e+01 -1.300e+01 -1.300e+01 -1.300e+01 -1.300e+01 -1.300e+01 -1.300e+01 -1.300e+01 -1.300e+01 -1.300e+01 -1.300e+01 -1.300e+01 -1.300e+01 -1.300e+01 -1.300e+01 -1.300e+01 -1.300e+01 -1.300e+01 -1.300e+01 -1.300e+01 -1.300e+01 -1.300e+01 -1.300e+01 -1.300e+01 -1.300e+01 -1.300e+01 -1.300e+01 -1.300e+01 -1.300e+01 -1.300e+01 -1.300e+01 -1.300e+01 -1.300e+01 -1.300e+01 -1.300e+01 -1.300e+01 -1.300e+01 -1.300e+01 -1.300e+01 -1.300e+01 -1.300e+01 -1.300e+01 -1.300e+01 -1.300e+01 -1.300e+01 -1.300e+01 -1.300e+01 -1.300e+01 -1.300e+01 -1.300e+01 -1.300e+01 -1.300e+01 -1.300e+01 -1.300e+01 -1.300e+01 -1.300e+01 -1.300e+01 -1.300e+01 -1.300e+01 -1.300e+01 -1.300e+01 -1.300e+01 -1.300e+01 -1.300e+01 -1.300e+01 -1.300e+01 -1.300e+01 -1.300e+01 -1.300e+01 -1.300e+01 -1.300e+01 -1.300e+01 -1.300e+01 -1.300e+01 -1.300e+01 -1.300e+01 -1.300e+01 -1.300e+01 -1.300e+01 -1.300e+01 -1.300e+01 -1.300e+01 -1.300e+01 -1.300e+01 -1.300e+01 -1.300e+01 -1.300e+01 -1.300e+01 -1.300e+01 -1.300e+01 -1.300e+01 -1.300e+01 -1.300e+01 -1.300e+01 -1.300e+01 -1.300e+01 -1.300e+01 -1.300e+01 -1.300e+01 -1.300e+01 -1.300e+01 -1.300e+01 -1.300e+01