<?xml version="1.0"?>
<VTKFile type="UnstructuredGrid" version="0.1" byte_order="LittleEndian">
   <UnstructuredGrid>
      <Piece NumberOfPoints="21470" NumberOfCells="1503">
         <Points>
            <DataArray type="Float32" Name="Position" NumberOfComponents="3" format="ascii">
0.118	-5.034	0.085
0.122	-5.037	0.093
0.120	-5.038	0.102
0.113	-5.037	0.109
0.104	-5.036	0.110
0.096	-5.033	0.106
0.093	-5.030	0.098
0.095	-5.029	0.089
0.102	-5.029	0.082
0.110	-5.031	0.081
-0.085	-5.854	-0.081
-0.081	-5.857	-0.073
-0.082	-5.858	-0.064
-0.088	-5.859	-0.057
-0.098	-5.858	-0.056
-0.106	-5.856	-0.059
-0.110	-5.854	-0.067
-0.109	-5.852	-0.076
-0.103	-5.852	-0.083
-0.094	-5.853	-0.085
-0.126	-6.673	-0.250
-0.121	-6.674	-0.242
-0.122	-6.675	-0.233
-0.128	-6.676	-0.226
-0.138	-6.676	-0.224
-0.146	-6.676	-0.227
-0.151	-6.675	-0.235
-0.150	-6.674	-0.244
-0.144	-6.673	-0.251
-0.135	-6.673	-0.253
-0.101	-7.126	-0.259
-0.097	-7.126	-0.251
-0.098	-7.126	-0.242
-0.104	-7.127	-0.235
-0.113	-7.127	-0.233
-0.121	-7.128	-0.237
-0.126	-7.128	-0.245
-0.125	-7.128	-0.254
-0.119	-7.127	-0.261
-0.110	-7.127	-0.263
0.213	-5.099	0.171
0.211	-5.092	0.176
0.207	-5.089	0.184
0.203	-5.092	0.192
0.199	-5.100	0.196
0.199	-5.109	0.195
0.201	-5.116	0.190
0.205	-5.119	0.182
0.210	-5.116	0.175
0.213	-5.108	0.170
0.956	-5.168	0.573
0.954	-5.160	0.578
0.951	-5.158	0.587
0.947	-5.161	0.594
0.943	-5.169	0.598
0.941	-5.178	0.597
0.943	-5.185	0.591
0.946	-5.187	0.583
0.950	-5.184	0.575
0.954	-5.177	0.571
1.694	-5.447	0.894
1.694	-5.439	0.900
1.690	-5.437	0.908
1.685	-5.439	0.915
1.681	-5.447	0.919
1.679	-5.456	0.918
1.680	-5.463	0.912
1.683	-5.466	0.904
1.688	-5.463	0.897
1.692	-5.456	0.893
1.740	-5.457	0.922
1.739	-5.450	0.927
1.735	-5.447	0.934
1.730	-5.449	0.942
1.725	-5.456	0.946
1.724	-5.465	0.945
1.725	-5.473	0.940
1.729	-5.476	0.933
1.734	-5.474	0.925
1.738	-5.467	0.921
0.923	-6.044	0.815
0.921	-6.035	0.818
0.916	-6.030	0.823
0.909	-6.029	0.829
0.904	-6.034	0.834
0.901	-6.043	0.836
0.903	-6.052	0.834
0.908	-6.058	0.829
0.914	-6.058	0.822
0.920	-6.053	0.817
1.525	-6.088	1.454
1.523	-6.079	1.456
1.518	-6.073	1.461
1.511	-6.072	1.467
1.505	-6.077	1.472
1.502	-6.085	1.474
1.504	-6.094	1.472
1.509	-6.100	1.468
1.516	-6.101	1.462
1.522	-6.096	1.456
2.064	-6.106	2.106
2.063	-6.097	2.107
2.058	-6.091	2.111
2.051	-6.089	2.117
2.045	-6.094	2.122
2.041	-6.102	2.124
2.042	-6.111	2.123
2.047	-6.118	2.119
2.054	-6.119	2.113
2.061	-6.115	2.108
2.101	-6.108	2.154
2.100	-6.099	2.155
2.095	-6.092	2.159
2.088	-6.091	2.164
2.082	-6.095	2.169
2.078	-6.103	2.172
2.079	-6.112	2.171
2.084	-6.119	2.167
2.091	-6.120	2.161
2.098	-6.116	2.156
0.979	-6.163	0.870
0.985	-6.167	0.875
0.987	-6.172	0.882
0.983	-6.176	0.890
0.975	-6.177	0.895
0.966	-6.175	0.895
0.960	-6.170	0.890
0.958	-6.165	0.882
0.962	-6.162	0.875
0.970	-6.161	0.870
0.817	-6.867	0.446
0.823	-6.872	0.452
0.823	-6.876	0.461
0.818	-6.878	0.468
0.810	-6.878	0.472
0.801	-6.875	0.470
0.795	-6.871	0.465
0.795	-6.867	0.456
0.800	-6.865	0.449
0.808	-6.865	0.445
0.624	-7.681	0.133
0.632	-7.684	0.137
0.636	-7.688	0.145
0.634	-7.690	0.154
0.627	-7.689	0.160
0.618	-7.687	0.162
0.610	-7.683	0.158
0.607	-7.680	0.150
0.609	-7.678	0.141
0.616	-7.678	0.135
0.586	-7.804	0.116
0.588	-7.807	0.124
0.585	-7.807	0.133
0.578	-7.805	0.139
0.569	-7.802	0.139
0.562	-7.798	0.133
0.560	-7.795	0.125
0.564	-7.795	0.116
0.571	-7.797	0.111
0.579	-7.800	0.111
1.039	-6.307	0.941
1.042	-6.300	0.945
1.041	-6.291	0.947
1.036	-6.284	0.945
1.028	-6.281	0.940
1.021	-6.284	0.935
1.018	-6.291	0.930
1.019	-6.300	0.929
1.024	-6.308	0.931
1.032	-6.310	0.935
0.572	-6.481	1.617
0.576	-6.473	1.622
0.574	-6.465	1.624
0.568	-6.457	1.623
0.561	-6.455	1.618
0.554	-6.457	1.612
0.551	-6.465	1.607
0.553	-6.473	1.605
0.558	-6.481	1.607
0.566	-6.483	1.611
0.095	-6.755	2.187
0.097	-6.748	2.192
0.096	-6.739	2.195
0.090	-6.732	2.194
0.082	-6.729	2.189
0.076	-6.732	2.182
0.074	-6.739	2.177
0.075	-6.747	2.174
0.081	-6.755	2.176
0.089	-6.757	2.180
1.083	-6.414	0.981
1.091	-6.418	0.979
1.096	-6.425	0.982
1.097	-6.432	0.988
1.093	-6.436	0.995
1.086	-6.436	1.000
1.078	-6.432	1.002
1.072	-6.425	0.999
1.071	-6.418	0.993
1.075	-6.414	0.986
0.693	-6.953	0.417
0.701	-6.957	0.414
0.707	-6.964	0.416
0.708	-6.972	0.420
0.704	-6.978	0.427
0.696	-6.979	0.432
0.688	-6.975	0.434
0.682	-6.968	0.433
0.681	-6.960	0.428
0.685	-6.955	0.422
0.354	-7.254	-0.285
0.362	-7.256	-0.287
0.369	-7.263	-0.287
0.371	-7.271	-0.285
0.367	-7.279	-0.282
0.359	-7.283	-0.278
0.350	-7.281	-0.276
0.344	-7.274	-0.276
0.342	-7.266	-0.278
0.346	-7.258	-0.282
0.306	-7.313	-0.557
0.314	-7.309	-0.559
0.323	-7.311	-0.560
0.330	-7.318	-0.559
0.331	-7.327	-0.558
0.327	-7.334	-0.555
0.318	-7.338	-0.553
0.309	-7.336	-0.552
0.303	-7.330	-0.553
0.302	-7.320	-0.554
1.137	-6.545	1.032
1.141	-6.542	1.039
1.143	-6.544	1.048
1.143	-6.550	1.054
1.141	-6.559	1.056
1.137	-6.566	1.053
1.133	-6.570	1.045
1.130	-6.568	1.036
1.130	-6.562	1.030
1.133	-6.553	1.028
1.887	-6.808	0.772
1.891	-6.804	0.779
1.892	-6.806	0.788
1.892	-6.812	0.795
1.889	-6.821	0.797
1.886	-6.829	0.793
1.882	-6.832	0.786
1.880	-6.831	0.777
1.881	-6.824	0.770
1.883	-6.816	0.768
2.669	-7.085	0.617
2.672	-7.081	0.624
2.673	-7.082	0.634
2.672	-7.088	0.641
2.670	-7.097	0.643
2.666	-7.105	0.639
2.664	-7.109	0.631
2.662	-7.108	0.622
2.663	-7.102	0.615
2.666	-7.093	0.613
3.103	-7.226	0.563
3.105	-7.222	0.571
3.106	-7.223	0.580
3.105	-7.229	0.587
3.103	-7.237	0.589
3.100	-7.245	0.585
3.097	-7.250	0.578
3.096	-7.249	0.568
3.098	-7.243	0.561
3.100	-7.234	0.559
1.196	-6.684	1.080
1.195	-6.676	1.085
1.191	-6.673	1.093
1.186	-6.675	1.100
1.182	-6.682	1.104
1.180	-6.691	1.104
1.181	-6.699	1.099
1.184	-6.702	1.091
1.190	-6.700	1.083
1.194	-6.693	1.079
1.881	-6.880	1.497
1.882	-6.873	1.502
1.879	-6.869	1.510
1.873	-6.871	1.517
1.867	-6.877	1.521
1.863	-6.885	1.520
1.862	-6.892	1.514
1.865	-6.896	1.506
1.871	-6.894	1.499
1.877	-6.888	1.495
2.413	-7.421	1.889
2.415	-7.415	1.896
2.413	-7.411	1.904
2.407	-7.413	1.911
2.400	-7.418	1.914
2.394	-7.425	1.912
2.392	-7.431	1.906
2.395	-7.434	1.897
2.400	-7.433	1.890
2.408	-7.428	1.887
2.501	-7.505	1.941
2.503	-7.499	1.947
2.500	-7.496	1.956
2.495	-7.498	1.963
2.488	-7.503	1.966
2.482	-7.510	1.964
2.480	-7.516	1.957
2.482	-7.519	1.949
2.488	-7.518	1.941
2.495	-7.512	1.938
1.247	-6.824	1.127
1.246	-6.815	1.129
1.242	-6.809	1.134
1.234	-6.808	1.140
1.228	-6.812	1.145
1.225	-6.821	1.147
1.226	-6.830	1.145
1.231	-6.836	1.140
1.238	-6.837	1.134
1.244	-6.833	1.129
1.814	-6.887	1.812
1.813	-6.878	1.815
1.809	-6.872	1.821
1.802	-6.872	1.827
1.796	-6.877	1.832
1.793	-6.886	1.833
1.794	-6.895	1.830
1.799	-6.900	1.824
1.805	-6.901	1.818
1.811	-6.895	1.813
2.445	-7.081	2.372
2.444	-7.073	2.377
2.440	-7.069	2.384
2.434	-7.070	2.391
2.429	-7.077	2.396
2.427	-7.086	2.395
2.428	-7.094	2.391
2.432	-7.098	2.383
2.437	-7.096	2.376
2.443	-7.090	2.372
2.501	-7.096	2.404
2.500	-7.089	2.409
2.496	-7.086	2.417
2.491	-7.088	2.425
2.487	-7.095	2.429
2.485	-7.104	2.428
2.485	-7.112	2.422
2.489	-7.115	2.414
2.494	-7.112	2.407
2.498	-7.105	2.403
1.291	-6.959	1.169
1.290	-6.950	1.172
1.284	-6.945	1.177
1.278	-6.945	1.184
1.272	-6.950	1.189
1.270	-6.959	1.191
1.272	-6.968	1.188
1.277	-6.973	1.183
1.284	-6.973	1.176
1.289	-6.968	1.171
1.894	-6.991	1.766
1.893	-6.982	1.768
1.888	-6.976	1.773
1.881	-6.975	1.779
1.875	-6.980	1.784
1.872	-6.989	1.786
1.874	-6.998	1.784
1.879	-7.004	1.779
1.886	-7.004	1.773
1.892	-6.999	1.768
2.265	-7.024	2.217
2.264	-7.014	2.218
2.259	-7.008	2.223
2.252	-7.007	2.228
2.246	-7.011	2.233
2.243	-7.020	2.236
2.244	-7.029	2.234
2.249	-7.035	2.230
2.256	-7.036	2.224
2.262	-7.032	2.219
1.334	-7.101	1.213
1.335	-7.091	1.214
1.330	-7.084	1.218
1.323	-7.082	1.223
1.315	-7.086	1.228
1.311	-7.094	1.229
1.310	-7.103	1.228
1.315	-7.110	1.224
1.322	-7.112	1.219
1.330	-7.108	1.214
1.811	-7.225	1.940
1.812	-7.216	1.942
1.808	-7.209	1.945
1.800	-7.206	1.950
1.792	-7.209	1.954
1.787	-7.216	1.955
1.786	-7.225	1.954
1.790	-7.233	1.950
1.798	-7.235	1.945
1.806	-7.233	1.942
2.125	-7.412	2.709
2.127	-7.403	2.711
2.123	-7.395	2.714
2.116	-7.391	2.718
2.107	-7.393	2.721
2.101	-7.400	2.722
2.099	-7.409	2.720
2.103	-7.417	2.717
2.111	-7.420	2.713
2.119	-7.418	2.710
1.357	-7.224	1.255
1.363	-7.221	1.261
1.369	-7.224	1.268
1.371	-7.232	1.273
1.370	-7.241	1.274
1.364	-7.248	1.272
1.358	-7.250	1.266
1.352	-7.247	1.259
1.350	-7.240	1.254
1.352	-7.231	1.252
1.953	-7.423	0.677
1.960	-7.420	0.683
1.965	-7.423	0.690
1.968	-7.431	0.695
1.966	-7.440	0.696
1.961	-7.447	0.693
1.954	-7.449	0.688
1.948	-7.446	0.681
1.946	-7.439	0.676
1.947	-7.430	0.675
2.488	-7.618	0.068
2.496	-7.616	0.073
2.503	-7.619	0.078
2.506	-7.627	0.083
2.504	-7.636	0.084
2.498	-7.643	0.082
2.490	-7.645	0.078
2.484	-7.642	0.072
2.480	-7.634	0.068
2.482	-7.625	0.066
2.618	-7.699	-0.197
2.626	-7.697	-0.194
2.633	-7.700	-0.189
2.637	-7.708	-0.185
2.635	-7.717	-0.183
2.629	-7.724	-0.184
2.621	-7.726	-0.187
2.613	-7.722	-0.192
2.610	-7.715	-0.196
2.612	-7.706	-0.198
0.304	-5.200	0.272
0.309	-5.192	0.275
0.308	-5.183	0.276
0.302	-5.176	0.274
0.294	-5.174	0.271
0.286	-5.177	0.267
0.282	-5.184	0.264
0.283	-5.194	0.263
0.288	-5.201	0.264
0.297	-5.203	0.268
-0.066	-5.305	1.057
-0.062	-5.297	1.061
-0.064	-5.288	1.062
-0.070	-5.281	1.061
-0.078	-5.279	1.058
-0.085	-5.282	1.053
-0.089	-5.289	1.049
-0.088	-5.298	1.047
-0.082	-5.305	1.048
-0.073	-5.308	1.052
-0.391	-5.583	1.667
-0.388	-5.576	1.672
-0.390	-5.567	1.675
-0.396	-5.561	1.675
-0.405	-5.558	1.671
-0.412	-5.561	1.666
-0.415	-5.568	1.661
-0.413	-5.577	1.659
-0.407	-5.584	1.659
-0.398	-5.586	1.662
1.405	-7.387	1.310
1.409	-7.379	1.314
1.408	-7.370	1.315
1.403	-7.363	1.313
1.396	-7.360	1.308
1.389	-7.363	1.302
1.385	-7.370	1.298
1.386	-7.379	1.297
1.391	-7.387	1.299
1.398	-7.390	1.305
0.896	-7.505	1.982
0.900	-7.498	1.986
0.899	-7.489	1.987
0.893	-7.482	1.985
0.886	-7.479	1.981
0.879	-7.482	1.975
0.875	-7.489	1.971
0.876	-7.498	1.970
0.881	-7.506	1.972
0.889	-7.508	1.977
0.527	-7.636	2.614
0.531	-7.628	2.618
0.529	-7.619	2.619
0.524	-7.612	2.618
0.516	-7.609	2.613
[...]
         <CellData>
           <DataArray type="Float32" Name="combinedRootClassID" NumberOfComponents="1" format="ascii">
 -1.300e+01 -1.300e+01 -1.300e+01 -1.300e+01 -1.300e+01 -1.300e+01 -1.300e+01 -1.300e+01 -1.300e+01 -1.300e+01 -1.300e+01 -1.300e+01 -1.300e+01 -1.300e+01 -1.300e+01 -1.300e+01 -1.300e+01 -1.300e+01 -1.300e+01 -1.300e+01 -1.300e+01 -1.300e+01 -1.300e+01 -1.300e+01 -1.300e+01 -1.300e+01 -1.300e+01 -1.300e+01 -1.300e+01 -1.300e+01 -1.300e+01 -1.300e+01 -1.300e+01 -1.300e+01 -1.300e+01 -1.300e+01 -1.300e+01 -1.300e+01 -1.300e+01 -1.300e+01 -1.300e+01 -1.300e+01 -1.300e+01 -1.300e+01 -1.300e+01 -1.300e+01 -1.300e+01 -1.300e+01 -1.300e+01 -1.300e+01 -1.300e+01 -1.300e+01 -1.300e+01 -1.300e+01 -1.300e+01 -1.300e+01 -1.300e+01 -1.300e+01 -1.300e+01 -1.300e+01 -1.300e+01 -1.300e+01 -1.300e+01 -1.300e+01 -1.300e+01 -1.300e+01 -1.300e+01 -1.300e+01 -1.300e+01 -1.300e+01 -1.300e+01 -1.300e+01 -1.300e+01 -1.300e+01 -1.300e+01 -1.300e+01 -1.300e+01 -1.300e+01 -1.300e+01 -1.300e+01 -1.300e+01 -1.300e+01 -1.300e+01 -1.300e+01 -1.300e+01 -1.300e+01 -1.300e+01 -1.300e+01 -1.300e+01 -1.300e+01 -1.300e+01 -1.300e+01 -1.300e+01 -1.300e+01 -1.300e+01 -1.300e+01 -1.300e+01 -1.300e+01 -1.300e+01 -1.300e+01 -1.300e+01 -1.300e+01 -1.300e+01 -1.300e+01 -1.300e+01 -1.300e+01 -1.300e+01 -1.300e+01 -1.300e+01 -1.300e+01 -1.300e+01 -1.300e+01 -1.300e+01 -1.300e+01 -1.300e+01 -1.300e+01 -1.300e+01 -1.300e+01 -1.300e+01 -1.300e+01 -1.300e+01 -1.300e+01 -1.300e+01 -1.300e+01 -1.300e+01 -1.300e+01 -1.300e+01 -1.300e+01 -1.300e+01 -1.300e+01 -1.300e+01 -1.300e+01 -1.300e+01 -1.300e+01 -1.300e+01 -1.300e+01 -1.300e+01 -1.300e+01 -1.300e+01 -1.300e+01 -1.300e+01 -1.300e+01 -1.300e+01 -1.300e+01 -1.300e+01 -1.300e+01 -1.300e+01 -1.300e+01 -1.300e+01 -1.300e+01 -1.300e+01 -1.300e+01 -1.300e+01 -1.300e+01 -1.300e+01 -1.300e+01 -5.000e+00 -5.000e+00 -5.000e+00 -5.000e+00 -5.000e+00 -5.000e+00 -5.000e+00 -5.000e+00 -5.000e+00 -5.000e+00 -5.000e+00 -5.000e+00 -5.000e+00 -5.000e+00 -5.000e+00 -5.000e+00 -5.000e+00 -5.000e+00 -5.000e+00 -5.000e+00 -5.000e+00 -5.000e+00 -5.000e+00 -5.000e+00 -5.000e+00 -5.000e+00 -5.000e+00 -5.000e+00 -1.300e+01 -1.300e+01 -1.300e+01 -1.300e+01 -1.300e+01 -1.300e+01 -1.300e+01 -1.300e+01 -1.300e+01 -1.300e+01 -1.300e+01 -1.300e+01 -1.300e+01 -1.300e+01 -1.300e+01 -1.300e+01 -1.300e+01 -1.300e+01 -1.300e+01 -1.300e+01 -1.300e+01 -1.300e+01 -1.300e+01 -1.300e+01 -1.300e+01 -1.300e+01 -1.300e+01 -1.300e+01 -1.300e+01 -1.300e+01 -1.300e+01 -1.300e+01 -1.300e+01 -1.300e+01 -1.300e+01 -1.300e+01 -1.300e+01 -1.300e+01 -1.300e+01 -1.300e+01 -1.300e+01 -1.300e+01 -1.300e+01 -1.300e+01 -1.300e+01 -1.300e+01 -1.300e+01 -1.300e+01 -1.300e+01 -1.300e+01 -1.300e+01 -1.300e+01 -1.300e+01 -1.300e+01 -1.300e+01 -1.300e+01 -1.300e+01 -1.300e+01 -1.300e+01 -1.300e+01 -1.300e+01 -1.300e+01 -1.300e+01 -1.300e+01 -1.300e+01 -1.300e+01 -1.300e+01 -1.300e+01 -1.300e+01 -1.300e+01 -1.300e+01 -1.300e+01 -1.300e+01 -1.300e+01 -1.300e+01 -1.300e+01 -1.300e+01 -1.300e+01 -1.300e+01 -1.300e+01 -1.300e+01 -1.300e+01 -1.300e+01 -1.300e+01 -1.300e+01 -1.300e+01 -1.300e+01 -1.300e+01 -1.300e+01 -1.300e+01 -1.300e+01 -1.300e+01 -1.300e+01 -1.300e+01 -1.300e+01 -1.300e+01 -1.300e+01 -1.300e+01 -1.300e+01 -1.300e+01 -1.300e+01 -1.300e+01 -1.300e+01 -1.300e+01 -1.300e+01 -1.300e+01 -1.300e+01 -1.300e+01 -1.300e+01 -1.300e+01 -1.300e+01 -1.300e+01 -1.300e+01 -1.300e+01 -1.300e+01 -1.300e+01 -1.300e+01 -1.300e+01 -1.300e+01 -1.300e+01 -1.300e+01 -1.300e+01 -1.300e+01 -1.300e+01 -1.300e+01 -1.300e+01 -1.300e+01 -1.300e+01 -1.300e+01 -1.300e+01 -1.300e+01 -1.300e+01 -1.300e+01 -1.300e+01 -1.300e+01 -1.300e+01 -1.300e+01 -1.300e+01 -1.300e+01 -1.300e+01 -1.300e+01 -1.300e+01 -1.300e+01 -1.300e+01 -1.300e+01 -1.300e+01 -1.300e+01 -1.300e+01 -1.300e+01 -1.300e+01 -5.000e+00 -5.000e+00 -5.000e+00 -5.000e+00 -5.000e+00 -5.000e+00 -5.000e+00 -5.000e+00 -5.000e+00 -5.000e+00 -5.000e+00 -5.000e+00 -5.000e+00 -5.000e+00 -5.000e+00 -5.000e+00 -5.000e+00 -5.000e+00 -5.000e+00 -5.000e+00 -5.000e+00 -5.000e+00 -5.000e+00 -5.000e+00 -5.000e+00 -5.000e+00 -5.000e+00 -5.000e+00 -1.300e+01 -1.300e+01 -1.300e+01 -1.300e+01 -1.300e+01 -1.300e+01 -1.300e+01 -1.300e+01 -1.300e+01 -1.300e+01 -1.300e+01 -1.300e+01 -1.300e+01 -1.300e+01 -1.300e+01 -1.300e+01 -1.300e+01 -1.300e+01 -1.300e+01 -1.300e+01 -1.300e+01 -1.300e+01 -1.300e+01 -1.300e+01 -1.300e+01 -1.300e+01 -1.300e+01 -1.300e+01 -1.300e+01 -1.300e+01 -1.300e+01 -1.300e+01 -1.300e+01 -1.300e+01 -1.300e+01 -1.300e+01 -1.300e+01 -1.300e+01 -1.300e+01 -1.300e+01 -1.300e+01 -1.300e+01 -1.300e+01 -1.300e+01 -1.300e+01 -1.300e+01 -1.300e+01 -1.300e+01 -1.300e+01 -1.300e+01 -1.300e+01 -1.300e+01 -1.300e+01 -1.300e+01 -1.300e+01 -1.300e+01 -1.300e+01 -1.300e+01 -1.300e+01 -1.300e+01 -1.300e+01 -1.300e+01 -1.300e+01 -1.300e+01 -1.300e+01 -1.300e+01 -1.300e+01 -1.300e+01 -1.300e+01 -1.300e+01 -1.300e+01 -1.300e+01 -1.300e+01 -1.300e+01 -1.300e+01 -1.300e+01 -1.300e+01 -1.300e+01 -1.300e+01 -1.300e+01 -1.300e+01 -1.300e+01 -1.300e+01 -1.300e+01 -1.300e+01 -1.300e+01 -1.300e+01 -1.300e+01 -1.300e+01 -1.300e+01 -1.300e+01 -1.300e+01 -1.300e+01 -1.300e+01 -1.300e+01 -1.300e+01 -1.300e+01 -1.300e+01 -1.300e+01 -1.300e+01 -1.300e+01 -1.300e+01 -1.300e+01 -1.300e+01 -1.300e+01 -1.300e+01 -1.300e+01 -1.300e+01 -1.300e+01 -1.300e+01 -1.300e+01 -1.300e+01 -1.300e+01 -1.300e+01 -1.300e+01 -1.300e+01 -1.300e+01 -1.300e+01 -1.300e+01 -1.300e+01 -1.300e+01 -1.300e+01 -1.300e+01 -1.300e+01 -1.300e+01 -1.300e+01 -1.300e+01 -1.300e+01 -1.300e+01 -1.300e+01 -1.300e+01 -1.300e+01 -1.300e+01 -1.300e+01 -1.300e+01 -1.300e+01 -1.300e+01 -1.300e+01 -1.300e+01 -1.300e+01 -1.300e+01 -1.300e+01 -1.300e+01 -1.300e+01 -1.300e+01 -1.300e+01 -1.300e+01 -1.300e+01 -1.300e+01 -1.300e+01 -1.300e+01 -1.300e+01 -1.300e+01 -1.300e+01 -5.000e+00 -5.000e+00 -5.000e+00 -5.000e+00 -5.000e+00 -5.000e+00 -5.000e+00 -5.000e+00 -5.000e+00 -5.000e+00 -5.000e+00 -5.000e+00 -5.000e+00 -5.000e+00 -5.000e+00 -5.000e+00 -5.000e+00 -5.000e+00 -5.000e+00 -5.000e+00 -5.000e+00 -5.000e+00 -5.000e+00 -5.000e+00 -5.000e+00 -5.000e+00 -5.000e+00 -5.000e+00 -1.300e+01 -1.300e+01 -1.300e+01 -1.300e+01 -1.300e+01 -1.300e+01 -1.300e+01 -1.300e+01 -1.300e+01 -1.300e+01 -1.300e+01 -1.300e+01 -1.300e+01 -1.300e+01 -1.300e+01 -1.300e+01 -1.300e+01 -1.300e+01 -1.300e+01 -1.300e+01 -1.300e+01 -1.300e+01 -1.300e+01 -1.300e+01 -1.300e+01 -1.300e+01 -1.300e+01 -1.300e+01 -1.300e+01 -1.300e+01 -1.300e+01 -1.300e+01 -1.300e+01 -1.300e+01 -1.300e+01 -1.300e+01 -1.300e+01 -1.300e+01 -1.300e+01 -1.300e+01 -1.300e+01 -1.300e+01 -1.300e+01 -1.300e+01 -1.300e+01 -1.300e+01 -1.300e+01 -1.300e+01 -1.300e+01 -1.300e+01 -1.300e+01 -1.300e+01 -1.300e+01 -1.300e+01 -1.300e+01 -1.300e+01 -1.300e+01 -1.300e+01 -1.300e+01 -1.300e+01 -1.300e+01 -1.300e+01 -1.300e+01 -1.300e+01 -1.300e+01 -1.300e+01 -1.300e+01 -1.300e+01 -1.300e+01 -1.300e+01 -1.300e+01 -1.300e+01 -1.300e+01 -1.300e+01 -1.300e+01 -1.300e+01 -1.300e+01 -1.300e+01 -1.300e+01 -1.300e+01 -1.300e+01 -1.300e+01 -1.300e+01 -1.300e+01 -1.300e+01 -1.300e+01 -1.300e+01 -1.300e+01 -1.300e+01 -1.300e+01 -1.300e+01 -1.300e+01 -1.300e+01 -1.300e+01 -1.300e+01 -1.300e+01 -1.300e+01 -1.300e+01 -1.300e+01 -1.300e+01 -1.300e+01 -1.300e+01 -1.300e+01 -1.300e+01 -1.300e+01 -1.300e+01 -1.300e+01 -1.300e+01 -1.300e+01 -1.300e+01 -1.300e+01 -1.300e+01 -1.300e+01 -1.300e+01 -1.300e+01 -1.300e+01 -1.300e+01 -1.300e+01 -1.300e+01 -1.300e+01 -1.300e+01 -1.300e+01 -1.300e+01 -1.300e+01 -1.300e+01 -1.300e+01 -1.300e+01 -1.300e+01 -1.300e+01 -1.300e+01 -1.300e+01 -1.300e+01 -1.300e+01 -1.300e+01 -1.300e+01 -1.300e+01 -1.300e+01 -1.300e+01 -1.300e+01 -1.300e+01 -1.300e+01 -1.300e+01 -1.300e+01 -1.300e+01 -1.300e+01 -1.300e+01 -1.300e+01 -1.300e+01 -1.300e+01 -1.300e+01 -1.300e+01 -5.000e+00 -5.000e+00 -5.000e+00 -5.000e+00 -5.000e+00 -5.000e+00 -5.000e+00 -5.000e+00 -5.000e+00 -5.000e+00 -5.000e+00 -5.000e+00 -5.000e+00 -5.000e+00 -5.000e+00 -5.000e+00 -5.000e+00 -5.000e+00 -5.000e+00 -5.000e+00 -5.000e+00 -5.000e+00 -5.000e+00 -5.000e+00 -5.000e+00 -5.000e+00 -5.000e+00 -5.000e+00 -1.700e+01 -1.700e+01 -1.700e+01 -1.700e+01 -1.700e+01 -1.700e+01 -1.700e+01 -1.700e+01 -1.700e+01 -1.700e+01 -1.700e+01 -1.700e+01 -1.700e+01 -1.700e+01 -1.700e+01 -1.700e+01 -1.700e+01 -1.700e+01 -1.700e+01 -1.700e+01 -9.000e+00 -9.000e+00 -9.000e+00 -9.000e+00 -9.000e+00 -9.000e+00 -9.000e+00 -9.000e+00 -9.000e+00 -9.000e+00 -9.000e+00 -9.000e+00 -9.000e+00 -9.000e+00 -9.000e+00 -9.000e+00 -9.000e+00 -1.700e+01 -1.700e+01 -1.700e+01 -1.700e+01 -1.700e+01 -1.700e+01 -1.700e+01 -1.700e+01 -1.700e+01 -1.700e+01 -1.700e+01 -1.700e+01 -1.700e+01 -1.700e+01 -1.700e+01 -1.700e+01 -1.700e+01 -1.700e+01 -1.700e+01 -1.700e+01 -9.000e+00 -9.000e+00 -9.000e+00 -9.000e+00 -9.000e+00 -9.000e+00 -9.000e+00 -9.000e+00 -9.000e+00 -9.000e+00 -9.000e+00 -9.000e+00 -9.000e+00 -9.000e+00 -9.000e+00 -9.000e+00 -9.000e+00 -1.700e+01 -1.700e+01 -1.700e+01 -1.700e+01 -1.700e+01 -1.700e+01 -1.700e+01 -1.700e+01 -1.700e+01 -1.700e+01 -1.700e+01 -1.700e+01 -1.700e+01 -1.700e+01 -1.700e+01 -1.700e+01 -1.700e+01 -1.700e+01 -1.700e+01 -1.700e+01 -9.000e+00 -9.000e+00 -9.000e+00 -9.000e+00 -9.000e+00 -9.000e+00 -9.000e+00 -9.000e+00 -9.000e+00 -9.000e+00 -9.000e+00 -9.000e+00 -9.000e+00 -9.000e+00 -9.000e+00 -9.000e+00 -9.000e+00 -1.700e+01 -1.700e+01 -1.700e+01 -1.700e+01 -1.700e+01 -1.700e+01 -1.700e+01 -1.700e+01 -1.700e+01 -1.700e+01 -1.700e+01 -1.700e+01 -1.700e+01 -1.700e+01 -1.700e+01 -1.700e+01 -1.700e+01 -1.700e+01 -1.700e+01 -1.700e+01 -9.000e+00 -9.000e+00 -9.000e+00 -9.000e+00 -9.000e+00 -9.000e+00 -9.000e+00 -9.000e+00 -9.000e+00 -9.000e+00 -9.000e+00 -9.000e+00 -9.000e+00 -9.000e+00 -9.000e+00 -9.000e+00 -9.000e+00 -1.800e+01 -1.800e+01 -1.800e+01 -1.800e+01 -1.800e+01 -1.800e+01 -1.800e+01 -1.800e+01 -1.800e+01 -1.800e+01 -1.800e+01 -1.800e+01 -1.800e+01 -1.800e+01 -1.800e+01 -1.800e+01 -1.800e+01 -2.000e+00 -2.000e+00 -2.000e+00 -2.000e+00 -2.000e+00 -2.000e+00 -2.000e+00 -2.000e+00 -2.000e+00 -2.000e+00 -7.000e+00 -7.000e+00 -7.000e+00 -7.000e+00 -7.000e+00 -2.000e+01 -2.000e+01 -7.000e+00 -7.000e+00 -7.000e+00 -7.000e+00 -7.000e+00 -7.000e+00 -2.000e+01 -2.000e+01 -7.000e+00 -7.000e+00 -7.000e+00 -7.000e+00 -7.000e+00 -7.000e+00 -7.000e+00 -7.000e+00 -7.000e+00 -7.000e+00 -7.000e+00 -7.000e+00 -7.000e+00 -7.000e+00 -7.000e+00 -7.000e+00 -7.000e+00 -7.000e+00 -7.000e+00 -7.000e+00 -7.000e+00 -7.000e+00 -7.000e+00 -7.000e+00 -7.000e+00 -7.000e+00 -7.000e+00 -7.000e+00 -7.000e+00 -2.000e+01 -7.000e+00 -7.000e+00 -7.000e+00 -7.000e+00 -7.000e+00 -7.000e+00 -7.000e+00 -7.000e+00 -7.000e+00 -7.000e+00 -7.000e+00 -7.000e+00 -7.000e+00 -7.000e+00 -7.000e+00 -7.000e+00 -7.000e+00 -7.000e+00 -7.000e+00 -7.000e+00 -7.000e+00 -7.000e+00 -7.000e+00 -7.000e+00 -7.000e+00 -7.000e+00 -7.000e+00 -7.000e+00 -7.000e+00 -7.000e+00 -7.000e+00 -7.000e+00 -7.000e+00 -7.000e+00 -7.000e+00 -7.000e+00 -7.000e+00 -7.000e+00 -7.000e+00 -7.000e+00 -7.000e+00 -7.000e+00 -7.000e+00 -7.000e+00 -7.000e+00 -7.000e+00 -7.000e+00 -7.000e+00 -7.000e+00 -2.000e+01 -2.000e+01 -7.000e+00 -7.000e+00 -7.000e+00 -7.000e+00 -7.000e+00 -7.000e+00 -7.000e+00 -7.000e+00 -7.000e+00 -7.000e+00 -7.000e+00 -7.000e+00 -7.000e+00 -7.000e+00 -7.000e+00 -7.000e+00 -7.000e+00 -7.000e+00 -7.000e+00 -7.000e+00 -7.000e+00 -7.000e+00 -7.000e+00 -7.000e+00 -7.000e+00 -7.000e+00 -7.000e+00 -7.000e+00 -7.000e+00 -7.000e+00 -7.000e+00 -7.000e+00 -2.000e+01 -2.000e+01 -7.000e+00 -7.000e+00 -7.000e+00 -7.000e+00 -7.000e+00 -7.000e+00 -7.000e+00 -7.000e+00 -7.000e+00 -7.000e+00 -7.000e+00 -7.000e+00 -7.000e+00 -7.000e+00 -7.000e+00 -7.000e+00 -7.000e+00 -7.000e+00 -7.000e+00 -7.000e+00 -2.000e+01 -7.000e+00 -7.000e+00 -7.000e+00 -7.000e+00 -7.000e+00 -7.000e+00 -7.000e+00 -7.000e+00 -7.000e+00 -7.000e+00 -7.000e+00 -7.000e+00 -7.000e+00 -7.000e+00 -7.000e+00 -7.000e+00 -2.000e+01 -7.000e+00 -7.000e+00 -7.000e+00 -7.000e+00 -7.000e+00 -7.000e+00 -7.000e+00 -7.000e+00 -7.000e+00 -7.000e+00 -7.000e+00 -7.000e+00 -7.000e+00 -7.000e+00 -7.000e+00 -7.000e+00 -7.000e+00 -7.000e+00 -7.000e+00 -7.000e+00 -7.000e+00 -2.000e+01 -7.000e+00 -7.000e+00 -7.000e+00 -7.000e+00 -7.000e+00 -7.000e+00 -2.000e+01 -7.000e+00 -7.000e+00 -7.000e+00 -7.000e+00 -7.000e+00 -7.000e+00 -2.000e+01 -7.000e+00 -7.000e+00 -7.000e+00 -7.000e+00 -7.000e+00 -7.000e+00 -7.000e+00 -7.000e+00 -7.000e+00 -7.000e+00 -7.000e+00 -7.000e+00 -7.000e+00 -7.000e+00 -7.000e+00 -7.000e+00 -7.000e+00 -7.000e+00 -7.000e+00 -7.000e+00 -7.000e+00 -7.000e+00 -7.000e+00 -7.000e+00 -7.000e+00 -7.000e+00 -2.000e+01 -2.000e+01 -7.000e+00 -7.000e+00 -7.000e+00 -7.000e+00 -7.000e+00 -7.000e+00 -7.000e+00 -7.000e+00 -7.000e+00 -7.000e+00 -7.000e+00 -7.000e+00 -7.000e+00 -7.000e+00 -7.000e+00 -7.000e+00 -7.000e+00 -7.000e+00 -7.000e+00 -7.000e+00 -7.000e+00 -7.000e+00 -7.000e+00 -7.000e+00 -7.000e+00 -7.000e+00 -7.000e+00 -7.000e+00 -7.000e+00 -7.000e+00 -7.000e+00 -7.000e+00 -7.000e+00 -7.000e+00 -7.000e+00 -7.000e+00 -7.000e+00 -7.000e+00 -7.000e+00 -7.000e+00 -7.000e+00 -7.000e+00 -7.000e+00 -7.000e+00 -7.000e+00 -7.000e+00 -7.000e+00 -7.000e+00 -7.000e+00 -7.000e+00 -7.000e+00 -7.000e+00 -7.000e+00 -7.000e+00 -7.000e+00 -2.000e+01 -7.000e+00 -7.000e+00 -7.000e+00 -7.000e+00 -7.000e+00 -7.000e+00 -7.000e+00 -7.000e+00 -7.000e+00 -7.000e+00 -7.000e+00 -7.000e+00 -7.000e+00 -7.000e+00 -7.000e+00 -7.000e+00 -7.000e+00 -7.000e+00 -7.000e+00 -7.000e+00 -7.000e+00 -7.000e+00 -7.000e+00 -7.000e+00 -7.000e+00 -7.000e+00 -7.000e+00 -7.000e+00 -7.000e+00 -7.000e+00 -7.000e+00 -7.000e+00 -7.000e+00 -7.000e+00 -7.000e+00 -7.000e+00 -7.000e+00 -7.000e+00 -7.000e+00 -7.000e+00 -7.000e+00 -7.000e+00 -7.000e+00 -7.000e+00 -7.000e+00 -7.000e+00 -7.000e+00 -7.000e+00 -7.000e+00 -7.000e+00 -7.000e+00 -7.000e+00 -7.000e+00 -7.000e+00 -7.000e+00 -7.000e+00 -7.000e+00 -7.000e+00 -7.000e+00 -7.000e+00 -7.000e+00 -7.000e+00 -7.000e+00 -7.000e+00 -7.000e+00 -7.000e+00 -7.000e+00 -7.000e+00 -7.000e+00 -7.000e+00 -7.000e+00 -7.000e+00 -7.000e+00 -7.000e+00 -7.000e+00 -7.000e+00 -7.000e+00 -7.000e+00 -7.000e+00 -7.000e+00 -7.000e+00 -7.000e+00 -7.000e+00 -7.000e+00 -7.000e+00 -7.000e+00 -7.000e+00 -7.000e+00 -7.000e+00 -7.000e+00 -7.000e+00 -7.000e+00 -7.000e+00 -7.000e+00 -7.000e+00 -7.000e+00 -7.000e+00 -7.000e+00 -7.000e+00 -7.000e+00 -7.000e+00 -2.000e+01 -2.000e+01 -7.000e+00 -7.000e+00 -7.000e+00 -7.000e+00 -7.000e+00 -7.000e+00 -7.000e+00 -7.000e+00 -7.000e+00 -7.000e+00 -7.000e+00 -7.000e+00 -7.000e+00 -7.000e+00 -7.000e+00 -7.000e+00 -7.000e+00 -7.000e+00 -7.000e+00 -7.000e+00 -7.000e+00 -7.000e+00 -7.000e+00 -7.000e+00 -7.000e+00 -7.000e+00 -7.000e+00 -7.000e+00 -7.000e+00 -7.000e+00 -7.000e+00 -7.000e+00 -7.000e+00 -7.000e+00 -7.000e+00 -7.000e+00 -7.000e+00 -7.000e+00 -7.000e+00 -7.000e+00 -7.000e+00 -7.000e+00 -7.000e+00 -7.000e+00 -7.000e+00 -7.000e+00 -7.000e+00 -7.000e+00 -7.000e+00 -7.000e+00 -7.000e+00 -7.000e+00 -7.000e+00 -7.000e+00 -7.000e+00 -7.000e+00 -7.000e+00 -7.000e+00 -7.000e+00 -7.000e+00 -7.000e+00 -7.000e+00 -7.000e+00 -7.000e+00 -7.000e+00 -7.000e+00 -7.000e+00 -7.000e+00 -7.000e+00 -7.000e+00 -7.000e+00 -7.000e+00 -7.000e+00 -7.000e+00 -7.000e+00 -7.000e+00 -7.000e+00 -7.000e+00 -7.000e+00 -7.000e+00 -7.000e+00 -7.000e+00 -7.000e+00 -2.000e+01 -7.000e+00 -7.000e+00 -7.000e+00 -7.000e+00 -7.000e+00 -7.000e+00 -7.000e+00 -7.000e+00 -7.000e+00 -7.000e+00 -7.000e+00 -7.000e+00 -7.000e+00 -7.000e+00 -7.000e+00 -7.000e+00 -7.000e+00 -7.000e+00 -7.000e+00 -7.000e+00 -7.000e+00 -7.000e+00 -7.000e+00 -7.000e+00 -7.000e+00 -7.000e+00 -7.000e+00 -7.000e+00 -7.000e+00 -7.000e+00 -7.000e+00 -7.000e+00 -7.000e+00 -7.000e+00 -7.000e+00 -7.000e+00 -7.000e+00 -2.000e+01 -7.000e+00 -7.000e+00 -7.000e+00 -7.000e+00 -7.000e+00 -7.000e+00 -7.000e+00 -7.000e+00 -7.000e+00 -7.000e+00 -7.000e+00 -7.000e+00 -7.000e+00 -7.000e+00 -7.000e+00 -7.000e+00 -7.000e+00 -7.000e+00 -7.000e+00 -7.000e+00 -7.000e+00 -7.000e+00 -7.000e+00 -7.000e+00 -7.000e+00 -7.000e+00 -7.000e+00 -7.000e+00 -7.000e+00 -7.000e+00 -7.000e+00 -7.000e+00 -7.000e+00 -7.000e+00 -1.500e+01 -1.500e+01 -1.500e+01 -1.100e+01 -1.100e+01 -1.100e+01 -1.100e+01 -1.100e+01 -1.100e+01 -1.100e+01 -1.100e+01 -1.100e+01 -1.100e+01 -1.100e+01 -1.100e+01 -1.100e+01 -1.100e+01 -1.100e+01 -1.100e+01 -1.100e+01 -1.100e+01 -1.100e+01 -4.000e+00 -4.000e+00 -4.000e+00 -4.000e+00 -4.000e+00 -4.000e+00 -4.000e+00 -4.000e+00 -4.000e+00 -4.000e+00 -4.000e+00 -4.000e+00 -4.000e+00 -4.000e+00 -4.000e+00 -4.000e+00 -4.000e+00 -4.000e+00 -4.000e+00 -4.000e+00 -4.000e+00 -4.000e+00 -4.000e+00 -4.000e+00 -4.000e+00 -4.000e+00 -4.000e+00 -4.000e+00 -4.000e+00 -4.000e+00 -4.000e+00 -4.000e+00 -4.000e+00 -4.000e+00 -4.000e+00 -4.000e+00
           </DataArray>
           <DataArray type="Float32" Name="nitrate/Cmin" NumberOfComponents="1" format="ascii">