<?xml version="1.0"?>
<VTKFile type="UnstructuredGrid" version="0.1" byte_order="LittleEndian">
   <UnstructuredGrid>
      <Piece NumberOfPoints="8420" NumberOfCells="573">
         <Points>
            <DataArray type="Float32" Name="Position" NumberOfComponents="3" format="ascii">
0.118	-5.034	0.085
0.122	-5.037	0.093
0.120	-5.038	0.102
0.113	-5.037	0.109
0.104	-5.036	0.110
0.096	-5.033	0.106
0.093	-5.030	0.098
0.095	-5.029	0.089
0.102	-5.029	0.082
0.110	-5.031	0.081
-0.085	-5.856	-0.080
-0.081	-5.858	-0.072
-0.083	-5.860	-0.063
-0.090	-5.859	-0.057
-0.099	-5.857	-0.056
-0.106	-5.855	-0.060
-0.110	-5.852	-0.068
-0.108	-5.851	-0.077
-0.101	-5.851	-0.083
-0.092	-5.853	-0.085
0.214	-5.100	0.171
0.211	-5.092	0.176
0.207	-5.089	0.184
0.202	-5.092	0.191
0.199	-5.099	0.196
0.198	-5.109	0.195
0.201	-5.116	0.190
0.205	-5.119	0.183
0.210	-5.116	0.175
0.213	-5.109	0.171
0.806	-5.161	0.541
0.810	-5.152	0.541
0.809	-5.143	0.541
0.802	-5.137	0.541
0.793	-5.135	0.541
0.785	-5.139	0.541
0.781	-5.148	0.541
0.782	-5.157	0.541
0.789	-5.163	0.541
0.798	-5.165	0.541
0.923	-6.044	0.816
0.921	-6.036	0.818
0.916	-6.030	0.823
0.910	-6.029	0.829
0.904	-6.034	0.834
0.901	-6.043	0.836
0.902	-6.052	0.834
0.907	-6.058	0.829
0.914	-6.058	0.823
0.920	-6.053	0.818
1.314	-6.073	1.239
1.313	-6.064	1.241
1.308	-6.059	1.246
1.301	-6.058	1.252
1.295	-6.063	1.257
1.292	-6.072	1.259
1.294	-6.081	1.257
1.299	-6.087	1.252
1.306	-6.087	1.246
1.312	-6.082	1.241
0.979	-6.163	0.870
0.985	-6.168	0.875
0.987	-6.173	0.882
0.983	-6.177	0.890
0.975	-6.177	0.894
0.966	-6.175	0.895
0.960	-6.170	0.890
0.958	-6.164	0.883
0.962	-6.161	0.875
0.970	-6.160	0.870
0.834	-6.655	0.577
0.838	-6.647	0.577
0.837	-6.638	0.577
0.830	-6.631	0.577
0.821	-6.630	0.577
0.813	-6.634	0.577
0.808	-6.642	0.577
0.810	-6.651	0.577
0.816	-6.658	0.577
0.826	-6.659	0.577
1.039	-6.307	0.941
1.042	-6.300	0.945
1.042	-6.291	0.946
1.036	-6.283	0.944
1.029	-6.281	0.940
1.022	-6.284	0.934
1.018	-6.291	0.930
1.019	-6.300	0.929
1.024	-6.308	0.931
1.032	-6.310	0.936
0.759	-6.383	1.350
0.762	-6.376	1.354
0.762	-6.367	1.355
0.756	-6.359	1.353
0.749	-6.356	1.348
0.742	-6.359	1.343
0.738	-6.367	1.339
0.739	-6.376	1.338
0.744	-6.383	1.340
0.752	-6.386	1.345
1.086	-6.415	0.979
1.093	-6.421	0.979
1.097	-6.428	0.984
1.096	-6.434	0.991
1.091	-6.437	0.998
1.083	-6.435	1.002
1.075	-6.429	1.002
1.071	-6.422	0.998
1.072	-6.416	0.991
1.078	-6.413	0.984
0.803	-6.793	0.616
0.811	-6.799	0.616
0.815	-6.806	0.621
0.813	-6.812	0.628
0.808	-6.814	0.635
0.800	-6.812	0.639
0.792	-6.807	0.639
0.789	-6.799	0.634
0.790	-6.793	0.627
0.795	-6.791	0.621
1.137	-6.545	1.032
1.141	-6.542	1.039
1.144	-6.544	1.048
1.144	-6.550	1.054
1.141	-6.559	1.056
1.137	-6.566	1.053
1.133	-6.570	1.045
1.130	-6.568	1.037
1.130	-6.561	1.030
1.132	-6.553	1.028
1.659	-6.751	0.833
1.667	-6.747	0.833
1.677	-6.749	0.833
1.683	-6.755	0.833
1.685	-6.764	0.833
1.680	-6.773	0.833
1.672	-6.777	0.833
1.663	-6.775	0.833
1.656	-6.769	0.833
1.655	-6.760	0.833
1.197	-6.685	1.080
1.195	-6.677	1.084
1.190	-6.673	1.091
1.185	-6.675	1.099
1.181	-6.681	1.103
1.179	-6.691	1.104
1.181	-6.699	1.099
1.185	-6.702	1.092
1.191	-6.701	1.085
1.195	-6.694	1.080
1.605	-6.745	1.375
1.603	-6.737	1.380
1.599	-6.733	1.387
1.593	-6.735	1.394
1.589	-6.742	1.399
1.588	-6.751	1.399
1.589	-6.759	1.395
1.594	-6.763	1.388
1.599	-6.761	1.380
1.604	-6.754	1.376
1.247	-6.824	1.127
1.246	-6.815	1.129
1.241	-6.809	1.133
1.234	-6.808	1.139
1.228	-6.812	1.145
1.225	-6.821	1.147
1.226	-6.830	1.145
1.231	-6.836	1.140
1.238	-6.837	1.134
1.244	-6.832	1.129
1.566	-6.847	1.500
1.564	-6.838	1.502
1.559	-6.832	1.506
1.552	-6.831	1.512
1.546	-6.835	1.518
1.543	-6.844	1.520
1.544	-6.853	1.518
1.549	-6.859	1.513
1.556	-6.860	1.507
1.562	-6.856	1.502
1.291	-6.959	1.169
1.289	-6.950	1.172
1.284	-6.945	1.177
1.278	-6.945	1.184
1.272	-6.950	1.189
1.270	-6.959	1.191
1.272	-6.968	1.188
1.277	-6.973	1.183
1.284	-6.973	1.176
1.289	-6.967	1.171
1.556	-6.972	1.426
1.554	-6.963	1.429
1.549	-6.958	1.434
1.543	-6.958	1.441
1.537	-6.964	1.446
1.535	-6.973	1.448
1.537	-6.981	1.446
1.542	-6.987	1.440
1.549	-6.987	1.433
1.554	-6.981	1.428
1.334	-7.098	1.211
1.333	-7.090	1.214
1.329	-7.083	1.219
1.322	-7.083	1.225
1.315	-7.087	1.230
1.311	-7.096	1.231
1.312	-7.105	1.228
1.316	-7.111	1.223
1.323	-7.111	1.217
1.330	-7.107	1.213
1.605	-7.170	1.532
1.604	-7.161	1.535
1.600	-7.155	1.540
1.593	-7.154	1.546
1.586	-7.159	1.551
1.582	-7.167	1.552
1.583	-7.176	1.549
1.588	-7.182	1.544
1.595	-7.183	1.538
1.601	-7.179	1.534
1.357	-7.224	1.255
1.364	-7.221	1.261
1.369	-7.224	1.268
1.371	-7.232	1.273
1.369	-7.241	1.275
1.364	-7.248	1.272
1.357	-7.250	1.266
1.352	-7.247	1.259
1.350	-7.240	1.253
1.352	-7.231	1.252
1.698	-7.355	0.952
1.705	-7.353	0.958
1.710	-7.355	0.966
1.712	-7.363	0.971
1.710	-7.372	0.972
1.704	-7.379	0.970
1.698	-7.381	0.963
1.693	-7.378	0.956
1.691	-7.371	0.951
1.693	-7.362	0.949
0.304	-5.200	0.272
0.308	-5.192	0.275
0.308	-5.183	0.276
0.302	-5.176	0.274
0.294	-5.173	0.270
0.286	-5.177	0.266
0.282	-5.184	0.264
0.283	-5.193	0.263
0.288	-5.201	0.265
0.296	-5.203	0.268
0.039	-5.258	0.837
0.043	-5.250	0.840
0.042	-5.241	0.840
0.037	-5.233	0.838
0.029	-5.231	0.835
0.021	-5.234	0.831
0.017	-5.242	0.828
0.017	-5.251	0.827
0.023	-5.258	0.829
0.031	-5.261	0.833
1.405	-7.387	1.311
1.408	-7.380	1.315
1.407	-7.370	1.316
1.403	-7.363	1.313
1.396	-7.360	1.308
1.390	-7.363	1.301
1.386	-7.370	1.297
1.387	-7.379	1.296
1.391	-7.387	1.299
1.398	-7.390	1.305
1.157	-7.427	1.582
1.157	-7.419	1.587
1.157	-7.410	1.585
1.157	-7.403	1.579
1.157	-7.402	1.569
1.157	-7.406	1.561
1.157	-7.414	1.557
1.157	-7.423	1.558
1.157	-7.430	1.565
1.157	-7.431	1.574
1.437	-7.505	1.336
1.444	-7.511	1.338
1.447	-7.518	1.343
1.445	-7.523	1.351
1.439	-7.525	1.357
1.431	-7.523	1.360
1.423	-7.517	1.359
1.420	-7.511	1.353
1.422	-7.505	1.346
1.428	-7.503	1.340
1.312	-7.718	1.146
1.320	-7.724	1.148
1.323	-7.731	1.153
1.321	-7.736	1.160
1.315	-7.738	1.167
1.306	-7.736	1.170
1.299	-7.730	1.168
1.296	-7.724	1.163
1.298	-7.718	1.156
1.304	-7.716	1.149
1.466	-7.641	1.382
1.471	-7.639	1.390
1.476	-7.641	1.397
1.478	-7.649	1.402
1.478	-7.658	1.402
1.474	-7.666	1.398
1.469	-7.668	1.391
1.464	-7.666	1.384
1.461	-7.658	1.379
1.462	-7.649	1.378
1.764	-7.691	1.192
1.768	-7.683	1.192
1.766	-7.674	1.192
1.760	-7.668	1.192
1.751	-7.666	1.192
1.742	-7.670	1.192
1.738	-7.679	1.192
1.740	-7.688	1.192
1.746	-7.694	1.192
1.755	-7.696	1.192
1.497	-7.783	1.423
1.501	-7.780	1.430
1.505	-7.782	1.438
1.507	-7.789	1.444
1.506	-7.799	1.444
1.503	-7.806	1.440
1.499	-7.809	1.433
1.495	-7.807	1.425
1.493	-7.800	1.419
1.494	-7.790	1.418
1.758	-7.813	1.290
1.762	-7.810	1.297
1.766	-7.812	1.305
1.768	-7.820	1.311
1.767	-7.829	1.311
1.764	-7.837	1.307
1.760	-7.840	1.299
1.756	-7.837	1.291
1.754	-7.830	1.286
1.755	-7.821	1.285
1.542	-7.940	1.465
1.542	-7.930	1.465
1.537	-7.923	1.469
1.530	-7.921	1.474
1.522	-7.924	1.478
1.518	-7.932	1.481
1.518	-7.941	1.480
1.522	-7.948	1.477
1.530	-7.951	1.472
1.537	-7.947	1.467
1.710	-7.953	1.724
1.710	-7.944	1.724
1.706	-7.937	1.728
1.698	-7.934	1.733
1.691	-7.938	1.737
1.686	-7.945	1.740
1.686	-7.954	1.739
1.691	-7.962	1.736
1.699	-7.964	1.731
1.706	-7.961	1.726
1.563	-8.090	1.520
1.566	-8.082	1.524
1.565	-8.073	1.525
1.561	-8.066	1.522
1.555	-8.062	1.515
1.550	-8.065	1.508
1.547	-8.072	1.503
1.548	-8.082	1.502
1.552	-8.089	1.506
1.558	-8.092	1.512
1.367	-8.119	1.672
1.370	-8.111	1.677
1.369	-8.102	1.678
1.365	-8.095	1.674
1.360	-8.092	1.667
1.355	-8.094	1.660
1.352	-8.102	1.655
1.353	-8.111	1.654
1.357	-8.118	1.658
1.362	-8.121	1.665
1.595	-8.222	1.546
1.595	-8.213	1.548
1.590	-8.206	1.552
1.583	-8.204	1.557
1.576	-8.208	1.562
1.571	-8.216	1.563
1.571	-8.225	1.562
1.576	-8.232	1.558
1.583	-8.234	1.552
1.590	-8.230	1.548
1.697	-8.256	1.724
1.695	-8.248	1.730
1.693	-8.239	1.730
1.691	-8.232	1.724
1.690	-8.229	1.716
1.691	-8.232	1.707
1.693	-8.240	1.701
1.695	-8.249	1.701
1.697	-8.256	1.707
1.697	-8.259	1.716
1.605	-8.349	1.588
1.609	-8.346	1.596
1.613	-8.348	1.604
1.614	-8.356	1.610
1.613	-8.365	1.611
1.610	-8.372	1.607
1.606	-8.376	1.599
1.602	-8.373	1.591
1.601	-8.366	1.585
1.602	-8.357	1.584
1.826	-8.387	1.489
1.830	-8.383	1.496
1.834	-8.386	1.505
1.835	-8.393	1.510
1.834	-8.402	1.511
1.831	-8.410	1.507
1.827	-8.413	1.500
1.823	-8.411	1.491
1.822	-8.403	1.486
1.823	-8.394	1.485
1.638	-8.515	1.647
1.639	-8.508	1.653
1.636	-8.499	1.655
1.632	-8.492	1.652
1.627	-8.488	1.644
1.624	-8.490	1.636
1.624	-8.497	1.630
1.626	-8.506	1.628
1.630	-8.513	1.631
1.635	-8.517	1.638
1.477	-8.572	1.720
1.477	-8.565	1.726
1.475	-8.557	1.728
1.471	-8.549	1.725
1.466	-8.546	1.717
1.463	-8.548	1.709
1.463	-8.554	1.702
1.465	-8.563	1.701
1.469	-8.571	1.704
1.474	-8.574	1.711
1.651	-8.634	1.672
1.655	-8.630	1.680
1.658	-8.633	1.689
1.660	-8.640	1.695
1.658	-8.649	1.696
1.655	-8.656	1.692
1.651	-8.660	1.684
1.648	-8.657	1.676
1.647	-8.650	1.670
1.648	-8.641	1.668
1.796	-8.663	1.611
1.800	-8.660	1.619
1.803	-8.662	1.628
1.805	-8.669	1.633
1.803	-8.678	1.635
1.800	-8.686	1.631
1.796	-8.689	1.623
1.793	-8.687	1.614
1.792	-8.680	1.609
1.793	-8.671	1.607
0.395	-5.277	0.341
0.399	-5.280	0.349
0.397	-5.282	0.358
0.390	-5.282	0.364
0.381	-5.279	0.366
0.374	-5.276	0.362
0.370	-5.273	0.354
0.372	-5.271	0.345
0.379	-5.271	0.339
0.388	-5.273	0.337
0.208	-5.853	0.181
0.208	-5.848	0.190
0.208	-5.850	0.199
0.208	-5.856	0.205
0.208	-5.866	0.207
0.208	-5.874	0.202
0.208	-5.878	0.194
0.208	-5.877	0.185
0.208	-5.870	0.179
0.208	-5.861	0.177
1.671	-8.777	1.711
1.679	-8.780	1.709
1.685	-8.787	1.711
1.687	-8.794	1.716
1.684	-8.799	1.723
1.676	-8.800	1.729
1.668	-8.797	1.731
1.662	-8.791	1.729
1.660	-8.784	1.724
1.663	-8.778	1.717
1.621	-8.850	1.630
1.629	-8.853	1.628
1.635	-8.860	1.630
1.637	-8.867	1.636
1.634	-8.872	1.642
1.627	-8.873	1.648
1.618	-8.870	1.650
1.612	-8.864	1.648
1.610	-8.856	1.643
1.613	-8.851	1.636
1.692	-8.921	1.748
1.696	-8.918	1.755
1.700	-8.920	1.763
1.701	-8.927	1.769
1.699	-8.936	1.771
1.695	-8.944	1.767
1.690	-8.947	1.760
1.687	-8.945	1.751
1.686	-8.938	1.745
1.688	-8.929	1.744
[...]
         <CellData>
           <DataArray type="Float32" Name="combinedRootClassID" NumberOfComponents="1" format="ascii">
 -1.300e+01 -1.300e+01 -1.300e+01 -1.300e+01 -1.300e+01 -1.300e+01 -1.300e+01 -1.300e+01 -1.300e+01 -1.300e+01 -1.300e+01 -1.300e+01 -1.300e+01 -1.300e+01 -1.300e+01 -1.300e+01 -1.300e+01 -1.300e+01 -1.300e+01 -1.300e+01 -1.300e+01 -1.300e+01 -1.300e+01 -1.300e+01 -1.300e+01 -1.300e+01 -1.300e+01 -1.300e+01 -1.300e+01 -1.300e+01 -1.300e+01 -1.300e+01 -1.300e+01 -1.300e+01 -1.300e+01 -1.300e+01 -5.000e+00 -5.000e+00 -5.000e+00 -5.000e+00 -5.000e+00 -5.000e+00 -5.000e+00 -5.000e+00 -5.000e+00 -5.000e+00 -5.000e+00 -5.000e+00 -5.000e+00 -5.000e+00 -5.000e+00 -5.000e+00 -5.000e+00 -5.000e+00 -1.300e+01 -1.300e+01 -1.300e+01 -1.300e+01 -1.300e+01 -1.300e+01 -1.300e+01 -1.300e+01 -1.300e+01 -1.300e+01 -1.300e+01 -1.300e+01 -1.300e+01 -1.300e+01 -1.300e+01 -1.300e+01 -1.300e+01 -1.300e+01 -1.300e+01 -1.300e+01 -1.300e+01 -1.300e+01 -1.300e+01 -1.300e+01 -1.300e+01 -1.300e+01 -1.300e+01 -1.300e+01 -1.300e+01 -1.300e+01 -1.300e+01 -1.300e+01 -1.300e+01 -1.300e+01 -1.300e+01 -1.300e+01 -1.300e+01 -1.300e+01 -5.000e+00 -5.000e+00 -5.000e+00 -5.000e+00 -5.000e+00 -5.000e+00 -5.000e+00 -5.000e+00 -5.000e+00 -5.000e+00 -5.000e+00 -5.000e+00 -5.000e+00 -5.000e+00 -5.000e+00 -5.000e+00 -5.000e+00 -5.000e+00 -1.300e+01 -1.300e+01 -1.300e+01 -1.300e+01 -1.300e+01 -1.300e+01 -1.300e+01 -1.300e+01 -1.300e+01 -1.300e+01 -1.300e+01 -1.300e+01 -1.300e+01 -1.300e+01 -1.300e+01 -1.300e+01 -1.300e+01 -1.300e+01 -1.300e+01 -1.300e+01 -1.300e+01 -1.300e+01 -1.300e+01 -1.300e+01 -1.300e+01 -1.300e+01 -1.300e+01 -1.300e+01 -1.300e+01 -1.300e+01 -1.300e+01 -1.300e+01 -1.300e+01 -1.300e+01 -1.300e+01 -1.300e+01 -5.000e+00 -5.000e+00 -5.000e+00 -5.000e+00 -5.000e+00 -5.000e+00 -5.000e+00 -5.000e+00 -5.000e+00 -5.000e+00 -5.000e+00 -5.000e+00 -5.000e+00 -5.000e+00 -5.000e+00 -5.000e+00 -5.000e+00 -5.000e+00 -1.300e+01 -1.300e+01 -1.300e+01 -1.300e+01 -1.300e+01 -1.300e+01 -1.300e+01 -1.300e+01 -1.300e+01 -1.300e+01 -1.300e+01 -1.300e+01 -1.300e+01 -1.300e+01 -1.300e+01 -1.300e+01 -1.300e+01 -1.300e+01 -1.300e+01 -1.300e+01 -1.300e+01 -1.300e+01 -1.300e+01 -1.300e+01 -1.300e+01 -1.300e+01 -1.300e+01 -1.300e+01 -1.300e+01 -1.300e+01 -1.300e+01 -1.300e+01 -1.300e+01 -1.300e+01 -1.300e+01 -1.300e+01 -5.000e+00 -5.000e+00 -5.000e+00 -5.000e+00 -5.000e+00 -5.000e+00 -5.000e+00 -5.000e+00 -5.000e+00 -5.000e+00 -5.000e+00 -5.000e+00 -5.000e+00 -5.000e+00 -5.000e+00 -5.000e+00 -5.000e+00 -5.000e+00 -9.000e+00 -9.000e+00 -9.000e+00 -9.000e+00 -9.000e+00 -9.000e+00 -9.000e+00 -9.000e+00 -9.000e+00 -9.000e+00 -9.000e+00 -9.000e+00 -9.000e+00 -9.000e+00 -9.000e+00 -9.000e+00 -9.000e+00 -9.000e+00 -9.000e+00 -9.000e+00 -9.000e+00 -9.000e+00 -9.000e+00 -9.000e+00 -9.000e+00 -9.000e+00 -9.000e+00 -9.000e+00 -2.000e+00 -2.000e+00 -2.000e+00 -2.000e+00 -2.000e+00 -2.000e+00 -2.000e+00 -2.000e+00 -2.000e+00 -2.000e+00 -7.000e+00 -7.000e+00 -7.000e+00 -7.000e+00 -7.000e+00 -7.000e+00 -7.000e+00 -7.000e+00 -7.000e+00 -7.000e+00 -7.000e+00 -7.000e+00 -7.000e+00 -7.000e+00 -7.000e+00 -7.000e+00 -7.000e+00 -7.000e+00 -7.000e+00 -7.000e+00 -7.000e+00 -7.000e+00 -7.000e+00 -7.000e+00 -7.000e+00 -7.000e+00 -7.000e+00 -7.000e+00 -7.000e+00 -7.000e+00 -7.000e+00 -7.000e+00 -7.000e+00 -7.000e+00 -7.000e+00 -7.000e+00 -7.000e+00 -7.000e+00 -7.000e+00 -7.000e+00 -7.000e+00 -7.000e+00 -7.000e+00 -7.000e+00 -7.000e+00 -7.000e+00 -7.000e+00 -7.000e+00 -7.000e+00 -7.000e+00 -7.000e+00 -7.000e+00 -7.000e+00 -7.000e+00 -7.000e+00 -7.000e+00 -7.000e+00 -7.000e+00 -7.000e+00 -7.000e+00 -7.000e+00 -7.000e+00 -7.000e+00 -7.000e+00 -7.000e+00 -7.000e+00 -7.000e+00 -7.000e+00 -7.000e+00 -7.000e+00 -7.000e+00 -7.000e+00 -7.000e+00 -7.000e+00 -7.000e+00 -7.000e+00 -7.000e+00 -7.000e+00 -7.000e+00 -7.000e+00 -7.000e+00 -7.000e+00 -7.000e+00 -7.000e+00 -7.000e+00 -7.000e+00 -7.000e+00 -7.000e+00 -7.000e+00 -7.000e+00 -7.000e+00 -7.000e+00 -7.000e+00 -7.000e+00 -7.000e+00 -7.000e+00 -7.000e+00 -7.000e+00 -7.000e+00 -7.000e+00 -7.000e+00 -7.000e+00 -7.000e+00 -7.000e+00 -7.000e+00 -7.000e+00 -7.000e+00 -7.000e+00 -7.000e+00 -7.000e+00 -7.000e+00 -7.000e+00 -7.000e+00 -7.000e+00 -7.000e+00 -7.000e+00 -7.000e+00 -7.000e+00 -7.000e+00 -7.000e+00 -7.000e+00 -7.000e+00 -7.000e+00 -7.000e+00 -7.000e+00 -7.000e+00 -7.000e+00 -7.000e+00 -7.000e+00 -7.000e+00 -7.000e+00 -7.000e+00 -7.000e+00 -7.000e+00 -7.000e+00 -7.000e+00 -7.000e+00 -7.000e+00 -7.000e+00 -7.000e+00 -7.000e+00 -7.000e+00 -7.000e+00 -7.000e+00 -7.000e+00 -7.000e+00 -7.000e+00 -7.000e+00 -7.000e+00 -7.000e+00 -7.000e+00 -7.000e+00 -7.000e+00 -7.000e+00 -7.000e+00 -7.000e+00 -7.000e+00 -7.000e+00 -7.000e+00 -7.000e+00 -7.000e+00 -7.000e+00 -7.000e+00 -7.000e+00 -7.000e+00 -7.000e+00 -7.000e+00 -7.000e+00 -7.000e+00 -7.000e+00 -7.000e+00 -7.000e+00 -7.000e+00 -7.000e+00 -7.000e+00 -7.000e+00 -7.000e+00 -7.000e+00 -7.000e+00 -7.000e+00 -7.000e+00 -7.000e+00 -7.000e+00 -7.000e+00 -7.000e+00 -7.000e+00 -7.000e+00 -7.000e+00 -7.000e+00 -7.000e+00 -7.000e+00 -7.000e+00 -7.000e+00 -7.000e+00 -7.000e+00 -7.000e+00 -7.000e+00 -7.000e+00 -7.000e+00 -7.000e+00 -7.000e+00 -7.000e+00 -7.000e+00 -7.000e+00 -7.000e+00 -7.000e+00 -7.000e+00 -7.000e+00 -7.000e+00 -7.000e+00 -7.000e+00 -7.000e+00 -7.000e+00 -7.000e+00 -7.000e+00 -7.000e+00 -7.000e+00 -7.000e+00 -7.000e+00 -7.000e+00 -7.000e+00 -7.000e+00 -7.000e+00 -7.000e+00 -7.000e+00 -7.000e+00 -7.000e+00 -7.000e+00 -7.000e+00 -7.000e+00 -7.000e+00 -7.000e+00 -7.000e+00 -7.000e+00 -7.000e+00 -7.000e+00 -7.000e+00 -7.000e+00 -7.000e+00 -7.000e+00 -7.000e+00 -7.000e+00 -7.000e+00 -7.000e+00 -7.000e+00 -7.000e+00 -7.000e+00 -7.000e+00 -7.000e+00 -7.000e+00 -7.000e+00 -7.000e+00 -7.000e+00 -7.000e+00 -7.000e+00 -7.000e+00 -7.000e+00 -7.000e+00 -7.000e+00 -7.000e+00 -7.000e+00 -7.000e+00 -7.000e+00 -7.000e+00 -7.000e+00 -7.000e+00 -7.000e+00 -7.000e+00 -7.000e+00 -7.000e+00 -7.000e+00 -7.000e+00 -7.000e+00 -7.000e+00 -7.000e+00 -7.000e+00 -7.000e+00 -7.000e+00 -7.000e+00 -7.000e+00 -1.100e+01 -1.100e+01 -1.100e+01 -1.100e+01 -1.100e+01 -1.100e+01 -1.100e+01 -4.000e+00 -4.000e+00 -4.000e+00 -4.000e+00 -4.000e+00 -4.000e+00 -4.000e+00 -4.000e+00 -4.000e+00 -4.000e+00 -4.000e+00 -4.000e+00 -4.000e+00 -4.000e+00 -4.000e+00 -4.000e+00 -4.000e+00 -4.000e+00 -4.000e+00 -4.000e+00 -4.000e+00 -4.000e+00 -4.000e+00 -4.000e+00 -4.000e+00 -4.000e+00 -4.000e+00 -4.000e+00 -4.000e+00 -4.000e+00
           </DataArray>
           <DataArray type="Float32" Name="nitrate/Cmin" NumberOfComponents="1" format="ascii">
 1.000e-03 1.000e-03 1.000e-03 1.000e-03 1.000e-03 1.000e-03 1.000e-03 1.000e-03 1.000e-03 1.000e-03 1.000e-03 1.000e-03 1.000e-03 1.000e-03 1.000e-03 1.000e-03 1.000e-03 1.000e-03 1.000e-03 1.000e-03 1.000e-03 1.000e-03 1.000e-03 1.000e-03 1.000e-03 1.000e-03 1.000e-03 1.000e-03 1.000e-03 1.000e-03 1.000e-03 1.000e-03 1.000e-03 1.000e-03 1.000e-03 1.000e-03 1.000e-03 1.000e-03 1.000e-03 1.000e-03 1.000e-03 1.000e-03 1.000e-03 1.000e-03 1.000e-03 1.000e-03 1.000e-03 1.000e-03 1.000e-03 1.000e-03 1.000e-03 1.000e-03 1.000e-03 1.000e-03 1.000e-03 1.000e-03 1.000e-03 1.000e-03 1.000e-03 1.000e-03 1.000e-03 1.000e-03 1.000e-03 1.000e-03 1.000e-03 1.000e-03 1.000e-03 1.000e-03 1.000e-03 1.000e-03 1.000e-03 1.000e-03 1.000e-03 1.000e-03 1.000e-03 1.000e-03 1.000e-03 1.000e-03 1.000e-03 1.000e-03 1.000e-03 1.000e-03 1.000e-03 1.000e-03 1.000e-03 1.000e-03 1.000e-03 1.000e-03 1.000e-03 1.000e-03 1.000e-03 1.000e-03 1.000e-03 1.000e-03 1.000e-03 1.000e-03 1.000e-03 1.000e-03 1.000e-03 1.000e-03 1.000e-03 1.000e-03 1.000e-03 1.000e-03 1.000e-03 1.000e-03 1.000e-03 1.000e-03 1.000e-03 1.000e-03 1.000e-03 1.000e-03 1.000e-03 1.000e-03 1.000e-03 1.000e-03 1.000e-03 1.000e-03 1.000e-03 1.000e-03 1.000e-03 1.000e-03 1.000e-03 1.000e-03 1.000e-03 1.000e-03 1.000e-03 1.000e-03 1.000e-03 1.000e-03 1.000e-03 1.000e-03 1.000e-03 1.000e-03 1.000e-03 1.000e-03 1.000e-03 1.000e-03 1.000e-03 1.000e-03 1.000e-03 1.000e-03 1.000e-03 1.000e-03 1.000e-03 1.000e-03 1.000e-03 1.000e-03 1.000e-03 1.000e-03 1.000e-03 1.000e-03 1.000e-03 1.000e-03 1.000e-03 1.000e-03 1.000e-03 1.000e-03 1.000e-03 1.000e-03 1.000e-03 1.000e-03 1.000e-03 1.000e-03 1.000e-03 1.000e-03 1.000e-03 1.000e-03 1.000e-03 1.000e-03 1.000e-03 1.000e-03 1.000e-03 1.000e-03 1.000e-03 1.000e-03 1.000e-03 1.000e-03 1.000e-03 1.000e-03 1.000e-03 1.000e-03 1.000e-03 1.000e-03 1.000e-03 1.000e-03 1.000e-03 1.000e-03 1.000e-03 1.000e-03 1.000e-03 1.000e-03 1.000e-03 1.000e-03 1.000e-03 1.000e-03 1.000e-03 1.000e-03 1.000e-03 1.000e-03 1.000e-03 1.000e-03 1.000e-03 1.000e-03 1.000e-03 1.000e-03 1.000e-03 1.000e-03 1.000e-03 1.000e-03 1.000e-03 1.000e-03 1.000e-03 1.000e-03 1.000e-03 1.000e-03 1.000e-03 1.000e-03 1.000e-03 1.000e-03 1.000e-03 1.000e-03 1.000e-03 1.000e-03 1.000e-03 1.000e-03 1.000e-03 1.000e-03 1.000e-03 1.000e-03 1.000e-03 1.000e-03 1.000e-03 1.000e-03 1.000e-03 1.000e-03 1.000e-03 1.000e-03 1.000e-03 1.000e-03 1.000e-03 1.000e-03 1.000e-03 1.000e-03 1.000e-03 1.000e-03 1.000e-03 1.000e-03 1.000e-03 1.000e-03 1.000e-03 1.000e-03 1.000e-03 1.000e-03 1.000e-03 1.000e-03 1.000e-03 1.000e-03 1.000e-03 1.000e-03 1.000e-03 1.000e-03 1.000e-03 1.000e-03 1.000e-03 1.000e-03 1.000e-03 1.000e-03 1.000e-03 1.000e-03 1.000e-03 1.000e-03 1.000e-03 1.000e-03 1.000e-03 1.000e-03 1.000e-03 1.000e-03 1.000e-03 1.000e-03 1.000e-03 1.000e-03 1.000e-03 1.000e-03 1.000e-03 1.000e-03 1.000e-03 1.000e-03 1.000e-03 1.000e-03 1.000e-03 1.000e-03 1.000e-03 1.000e-03 1.000e-03 1.000e-03 1.000e-03 1.000e-03 1.000e-03 1.000e-03 1.000e-03 1.000e-03 1.000e-03 1.000e-03 1.000e-03 1.000e-03 1.000e-03 1.000e-03 1.000e-03 1.000e-03 1.000e-03 1.000e-03 1.000e-03 1.000e-03 1.000e-03 1.000e-03 1.000e-03 1.000e-03 1.000e-03 1.000e-03 1.000e-03 1.000e-03 1.000e-03 1.000e-03 1.000e-03 1.000e-03 1.000e-03 1.000e-03 1.000e-03 1.000e-03 1.000e-03 1.000e-03 1.000e-03 1.000e-03 1.000e-03 1.000e-03 1.000e-03 1.000e-03 1.000e-03 1.000e-03 1.000e-03 1.000e-03 1.000e-03 1.000e-03 1.000e-03 1.000e-03 1.000e-03 1.000e-03 1.000e-03 1.000e-03 1.000e-03 1.000e-03 1.000e-03 1.000e-03 1.000e-03 1.000e-03 1.000e-03 1.000e-03 1.000e-03 1.000e-03 1.000e-03 1.000e-03 1.000e-03 1.000e-03 1.000e-03 1.000e-03 1.000e-03 1.000e-03 1.000e-03 1.000e-03 1.000e-03 1.000e-03 1.000e-03 1.000e-03 1.000e-03 1.000e-03 1.000e-03 1.000e-03 1.000e-03 1.000e-03 1.000e-03 1.000e-03 1.000e-03 1.000e-03 1.000e-03 1.000e-03 1.000e-03 1.000e-03 1.000e-03 1.000e-03 1.000e-03 1.000e-03 1.000e-03 1.000e-03 1.000e-03 1.000e-03 1.000e-03 1.000e-03 1.000e-03 1.000e-03 1.000e-03 1.000e-03 1.000e-03 1.000e-03 1.000e-03 1.000e-03 1.000e-03 1.000e-03 1.000e-03 1.000e-03 1.000e-03 1.000e-03 1.000e-03 1.000e-03 1.000e-03 1.000e-03 1.000e-03 1.000e-03 1.000e-03 1.000e-03 1.000e-03 1.000e-03 1.000e-03 1.000e-03 1.000e-03 1.000e-03 1.000e-03 1.000e-03 1.000e-03 1.000e-03 1.000e-03 1.000e-03 1.000e-03 1.000e-03 1.000e-03 1.000e-03 1.000e-03 1.000e-03 1.000e-03 1.000e-03 1.000e-03 1.000e-03 1.000e-03 1.000e-03 1.000e-03 1.000e-03 1.000e-03 1.000e-03 1.000e-03 1.000e-03 1.000e-03 1.000e-03 1.000e-03 1.000e-03 1.000e-03 1.000e-03 1.000e-03 1.000e-03 1.000e-03 1.000e-03 1.000e-03 1.000e-03 1.000e-03 1.000e-03 1.000e-03 1.000e-03 1.000e-03 1.000e-03 1.000e-03 1.000e-03 1.000e-03 1.000e-03 1.000e-03 1.000e-03 1.000e-03 1.000e-03 1.000e-03 1.000e-03 1.000e-03 1.000e-03 1.000e-03 1.000e-03 1.000e-03 1.000e-03 1.000e-03 1.000e-03 1.000e-03 1.000e-03 1.000e-03 1.000e-03 1.000e-03 1.000e-03 1.000e-03 1.000e-03 1.000e-03 1.000e-03 1.000e-03 1.000e-03 1.000e-03 1.000e-03 1.000e-03 1.000e-03 1.000e-03 1.000e-03 1.000e-03 1.000e-03 1.000e-03 1.000e-03 1.000e-03 1.000e-03 1.000e-03 1.000e-03 1.000e-03 1.000e-03 1.000e-03 1.000e-03 1.000e-03 1.000e-03 1.000e-03 1.000e-03 1.000e-03 1.000e-03 1.000e-03 1.000e-03 1.000e-03 1.000e-03 1.000e-03 1.000e-03 1.000e-03 1.000e-03 1.000e-03 1.000e-03 1.000e-03 1.000e-03 1.000e-03 1.000e-03 1.000e-03 1.000e-03 1.000e-03 1.000e-03 1.000e-03 1.000e-03 1.000e-03 1.000e-03 1.000e-03 1.000e-03 1.000e-03 1.000e-03 1.000e-03 1.000e-03 1.000e-03 1.000e-03 1.000e-03 1.000e-03 1.000e-03 1.000e-03 1.000e-03 1.000e-03 1.000e-03 1.000e-03 1.000e-03 1.000e-03 1.000e-03 1.000e-03 1.000e-03 1.000e-03 1.000e-03 1.000e-03 1.000e-03 1.000e-03 1.000e-03 1.000e-03 1.000e-03
           </DataArray>
           <DataArray type="Float32" Name="nitrate/Imax" NumberOfComponents="1" format="ascii">
 1.900e+00 1.900e+00 1.900e+00 1.900e+00 1.900e+00 1.900e+00 1.900e+00 1.900e+00 1.900e+00 1.900e+00 1.900e+00 1.900e+00 1.900e+00 1.900e+00 1.900e+00 1.900e+00 1.900e+00 1.900e+00 1.900e+00 1.900e+00 1.900e+00 1.900e+00 1.900e+00 1.900e+00 1.900e+00 1.900e+00 1.900e+00 1.900e+00 1.900e+00 1.900e+00 1.900e+00 1.900e+00 1.900e+00 1.900e+00 1.900e+00 1.900e+00 1.900e+00 1.900e+00 1.900e+00 1.900e+00 1.900e+00 1.900e+00 1.900e+00 1.900e+00 1.900e+00 1.900e+00 1.900e+00 1.900e+00 1.900e+00 1.900e+00 1.900e+00 1.900e+00 1.900e+00 1.900e+00 1.900e+00 1.900e+00 1.900e+00 1.900e+00 1.900e+00 1.900e+00 1.900e+00 1.900e+00 1.900e+00 1.900e+00 1.900e+00 1.900e+00 1.900e+00 1.900e+00 1.900e+00 1.900e+00 1.900e+00 1.900e+00 1.900e+00 1.900e+00 1.900e+00 1.900e+00 1.900e+00 1.900e+00 1.900e+00 1.900e+00 1.900e+00 1.900e+00 1.900e+00 1.900e+00 1.900e+00 1.900e+00 1.900e+00 1.900e+00 1.900e+00 1.900e+00 1.900e+00 1.900e+00 1.900e+00 1.900e+00 1.900e+00 1.900e+00 1.900e+00 1.900e+00 1.900e+00 1.900e+00 1.900e+00 1.900e+00 1.900e+00 1.900e+00 1.900e+00 1.900e+00 1.900e+00 1.900e+00 1.900e+00 1.900e+00 1.900e+00 1.900e+00 1.900e+00 1.900e+00 1.900e+00 1.900e+00 1.900e+00 1.900e+00 1.900e+00 1.900e+00 1.900e+00 1.900e+00 1.900e+00 1.900e+00 1.900e+00 1.900e+00 1.900e+00 1.900e+00 1.900e+00 1.900e+00 1.900e+00 1.900e+00 1.900e+00 1.900e+00 1.900e+00 1.900e+00 1.900e+00 1.900e+00 1.900e+00 1.900e+00 1.900e+00 1.900e+00 1.900e+00 1.900e+00 1.900e+00 1.900e+00 1.900e+00 1.900e+00 1.900e+00 1.900e+00 1.900e+00 1.900e+00 1.900e+00 1.900e+00 1.900e+00 1.900e+00 1.900e+00 1.900e+00 1.900e+00 1.900e+00 1.900e+00 1.900e+00 1.900e+00 1.900e+00 1.900e+00 1.900e+00 1.900e+00 1.900e+00 1.900e+00 1.900e+00 1.900e+00 1.900e+00 1.900e+00 1.900e+00 1.900e+00 1.900e+00 1.900e+00 1.900e+00 1.900e+00 1.900e+00 1.900e+00 1.900e+00 1.900e+00 1.900e+00 1.900e+00 1.900e+00 1.900e+00 1.900e+00 1.900e+00 1.900e+00 1.900e+00 1.900e+00 1.900e+00 1.900e+00 1.900e+00 1.900e+00 1.900e+00 1.900e+00 1.900e+00 1.900e+00 1.900e+00 1.900e+00 1.900e+00 1.900e+00 1.900e+00 1.900e+00 1.900e+00 1.900e+00 1.900e+00 1.900e+00 1.900e+00 1.900e+00 1.900e+00 1.900e+00 1.900e+00 1.900e+00 1.900e+00 1.900e+00 1.900e+00 1.900e+00 1.900e+00 1.900e+00 1.900e+00 1.900e+00 1.900e+00 1.900e+00 1.900e+00 1.900e+00 1.900e+00 1.900e+00 1.900e+00 1.900e+00 1.900e+00 1.900e+00 1.900e+00 1.900e+00 1.900e+00 1.900e+00 1.900e+00 1.900e+00 1.900e+00 1.900e+00 1.900e+00 1.900e+00 1.900e+00 1.900e+00 1.900e+00 1.900e+00 1.900e+00 1.900e+00 1.900e+00 1.900e+00 1.900e+00 1.900e+00 1.900e+00 1.900e+00 1.900e+00 1.900e+00 1.900e+00 1.900e+00 1.900e+00 1.900e+00 1.900e+00 1.900e+00 1.900e+00 1.900e+00 1.900e+00 1.900e+00 1.900e+00 1.900e+00 1.900e+00 1.900e+00 1.900e+00 1.900e+00 1.900e+00 1.900e+00 1.900e+00 1.900e+00 1.900e+00 1.900e+00 1.900e+00 1.900e+00 1.900e+00 1.900e+00 1.900e+00 1.900e+00 1.900e+00 1.900e+00 1.900e+00 1.900e+00 1.900e+00 1.900e+00 1.900e+00 1.900e+00 1.900e+00 1.900e+00 1.900e+00 1.900e+00 1.900e+00 1.900e+00 1.900e+00 1.900e+00 1.900e+00 1.900e+00 1.900e+00 1.900e+00 1.900e+00 1.900e+00 1.900e+00 1.900e+00 1.900e+00 1.900e+00 1.900e+00 1.900e+00 1.900e+00 1.900e+00 1.900e+00 1.900e+00 1.900e+00 1.900e+00 1.900e+00 1.900e+00 1.900e+00 1.900e+00 1.900e+00 1.900e+00 1.900e+00 1.900e+00 1.900e+00 1.900e+00 1.900e+00 1.900e+00 1.900e+00 1.900e+00 1.900e+00 1.900e+00 1.900e+00 1.900e+00 1.900e+00 1.900e+00 1.900e+00 1.900e+00 1.900e+00 1.900e+00 1.900e+00 1.900e+00 1.900e+00 1.900e+00 1.900e+00 1.900e+00 1.900e+00 1.900e+00 1.900e+00 1.900e+00 1.900e+00 1.900e+00 1.900e+00 1.900e+00 1.900e+00 1.900e+00 1.900e+00 1.900e+00 1.900e+00 1.900e+00 1.900e+00 1.900e+00 1.900e+00 1.900e+00 1.900e+00 1.900e+00 1.900e+00 1.900e+00 1.900e+00 1.900e+00 1.900e+00 1.900e+00 1.900e+00 1.900e+00 1.900e+00 1.900e+00 1.900e+00 1.900e+00 1.900e+00 1.900e+00 1.900e+00 1.900e+00 1.900e+00 1.900e+00 1.900e+00 1.900e+00 1.900e+00 1.900e+00 1.900e+00 1.900e+00 1.900e+00 1.900e+00 1.900e+00 1.900e+00 1.900e+00 1.900e+00 1.900e+00 1.900e+00 1.900e+00 1.900e+00 1.900e+00 1.900e+00 1.900e+00 1.900e+00 1.900e+00 1.900e+00 1.900e+00 1.900e+00 1.900e+00 1.900e+00 1.900e+00 1.900e+00 1.900e+00 1.900e+00 1.900e+00 1.900e+00 1.900e+00 1.900e+00 1.900e+00 1.900e+00 1.900e+00 1.900e+00 1.900e+00 1.900e+00 1.900e+00 1.900e+00 1.900e+00 1.900e+00 1.900e+00 1.900e+00 1.900e+00 1.900e+00 1.900e+00 1.900e+00 1.900e+00 1.900e+00 1.900e+00 1.900e+00 1.900e+00 1.900e+00 1.900e+00 1.900e+00 1.900e+00 1.900e+00 1.900e+00 1.900e+00 1.900e+00 1.900e+00 1.900e+00 1.900e+00 1.900e+00 1.900e+00 1.900e+00 1.900e+00 1.900e+00 1.900e+00 1.900e+00 1.900e+00 1.900e+00 1.900e+00 1.900e+00 1.900e+00 1.900e+00 1.900e+00 1.900e+00 1.900e+00 1.900e+00 1.900e+00 1.900e+00 1.900e+00 1.900e+00 1.900e+00 1.900e+00 1.900e+00 1.900e+00 1.900e+00 1.900e+00 1.900e+00 1.900e+00 1.900e+00 1.900e+00 1.900e+00 1.900e+00 1.900e+00 1.900e+00 1.900e+00 1.900e+00 1.900e+00 1.900e+00 1.900e+00 1.900e+00 1.900e+00 1.900e+00 1.900e+00 1.900e+00 1.900e+00 1.900e+00 1.900e+00 1.900e+00 1.900e+00 1.900e+00 1.900e+00 1.900e+00 1.900e+00 1.900e+00 1.900e+00 1.900e+00 1.900e+00 1.900e+00 1.900e+00 1.900e+00 1.900e+00 1.900e+00 1.900e+00 1.900e+00 1.900e+00 1.900e+00 1.900e+00 1.900e+00 1.900e+00 1.900e+00 1.900e+00 1.900e+00 1.900e+00 1.900e+00 1.900e+00 1.900e+00 1.900e+00 1.900e+00 1.900e+00 1.900e+00 1.900e+00 1.900e+00 1.900e+00 1.900e+00 1.900e+00 1.900e+00 1.900e+00 1.900e+00 1.900e+00 1.900e+00 1.900e+00 1.900e+00 1.900e+00 1.900e+00 1.900e+00 1.900e+00 1.900e+00 1.900e+00 1.900e+00 1.900e+00 1.900e+00 1.900e+00 1.900e+00 1.900e+00 1.900e+00 1.900e+00 1.900e+00 1.900e+00 1.900e+00 1.900e+00 1.900e+00 1.900e+00 1.900e+00 1.900e+00 1.900e+00 1.900e+00 1.900e+00 1.900e+00
           </DataArray>
           <DataArray type="Float32" Name="nitrate/Km" NumberOfComponents="1" format="ascii">