<?xml version="1.0"?>
<VTKFile type="UnstructuredGrid" version="0.1" byte_order="LittleEndian">
   <UnstructuredGrid>
      <Piece NumberOfPoints="260" NumberOfCells="24">
         <Points>
            <DataArray type="Float32" Name="Position" NumberOfComponents="3" format="ascii">
-0.144	-5.000	0.144
-0.032	-5.004	0.201
0.093	-5.006	0.181
0.181	-5.005	0.092
0.201	-5.003	-0.032
0.144	-5.000	-0.144
0.032	-4.996	-0.201
-0.093	-4.994	-0.181
-0.181	-4.995	-0.092
-0.201	-4.997	0.032
-0.129	-4.250	0.159
-0.018	-4.252	0.216
0.106	-4.253	0.197
0.195	-4.254	0.108
0.214	-4.252	-0.015
0.157	-4.251	-0.127
0.046	-4.249	-0.184
-0.078	-4.247	-0.164
-0.166	-4.247	-0.076
-0.186	-4.248	0.048
-0.126	-3.560	0.159
-0.014	-3.560	0.216
0.109	-3.561	0.196
0.198	-3.561	0.108
0.217	-3.561	-0.015
0.161	-3.561	-0.127
0.049	-3.561	-0.184
-0.074	-3.560	-0.164
-0.163	-3.560	-0.076
-0.182	-3.560	0.047
-0.124	-2.400	0.158
-0.013	-2.401	0.215
0.110	-2.401	0.196
0.198	-2.401	0.107
0.217	-2.401	-0.016
0.161	-2.401	-0.127
0.050	-2.400	-0.183
-0.073	-2.400	-0.164
-0.161	-2.400	-0.076
-0.181	-2.400	0.047
-0.123	-1.800	0.159
-0.012	-1.800	0.216
0.111	-1.800	0.197
0.199	-1.801	0.109
0.219	-1.801	-0.014
0.162	-1.801	-0.125
0.051	-1.801	-0.182
-0.072	-1.801	-0.163
-0.160	-1.800	-0.075
-0.180	-1.800	0.048
-0.121	-1.200	0.156
-0.010	-1.200	0.213
0.113	-1.201	0.193
0.201	-1.201	0.105
0.220	-1.201	-0.017
0.164	-1.201	-0.128
0.053	-1.200	-0.185
-0.070	-1.200	-0.166
-0.158	-1.200	-0.078
-0.177	-1.200	0.045
-0.119	-0.301	0.161
-0.008	-0.301	0.218
0.114	-0.302	0.198
0.202	-0.302	0.110
0.221	-0.301	-0.013
0.165	-0.300	-0.123
0.054	-0.300	-0.179
-0.069	-0.299	-0.160
-0.156	-0.299	-0.072
-0.176	-0.300	0.051
-0.115	0.559	0.165
-0.005	0.559	0.221
0.118	0.558	0.202
0.206	0.558	0.114
0.225	0.559	-0.008
0.169	0.559	-0.119
0.058	0.560	-0.175
-0.064	0.560	-0.156
-0.152	0.560	-0.068
-0.171	0.560	0.055
-0.113	1.439	0.167
-0.002	1.439	0.223
0.120	1.439	0.204
0.208	1.439	0.116
0.227	1.439	-0.006
0.171	1.439	-0.116
0.061	1.440	-0.173
-0.062	1.440	-0.153
-0.149	1.440	-0.066
-0.169	1.440	0.057
-0.110	2.316	0.168
-0.000	2.316	0.224
0.122	2.316	0.205
0.209	2.316	0.117
0.228	2.316	-0.005
0.172	2.316	-0.115
0.062	2.316	-0.171
-0.060	2.316	-0.151
-0.148	2.316	-0.064
-0.167	2.316	0.058
-0.111	2.611	0.027
-0.001	2.667	0.027
0.121	2.648	0.027
0.209	2.560	0.027
0.228	2.438	0.027
0.172	2.328	0.027
0.062	2.272	0.027
-0.060	2.291	0.027
-0.148	2.379	0.027
-0.167	2.501	0.027
0.032	-4.997	-0.035
0.046	-4.996	-0.009
0.043	-4.997	0.020
0.023	-4.998	0.041
-0.005	-5.001	0.047
-0.032	-5.003	0.035
-0.046	-5.004	0.009
-0.043	-5.003	-0.020
-0.023	-5.002	-0.041
0.005	-4.999	-0.047
0.089	-5.701	-0.040
0.104	-5.701	-0.015
0.101	-5.702	0.013
0.081	-5.704	0.035
0.053	-5.707	0.041
0.027	-5.708	0.029
0.013	-5.709	0.004
0.015	-5.707	-0.024
0.035	-5.705	-0.046
0.063	-5.703	-0.052
0.143	-6.403	-0.085
0.158	-6.403	-0.060
0.155	-6.405	-0.032
0.136	-6.408	-0.010
0.108	-6.410	-0.004
0.082	-6.412	-0.016
0.067	-6.412	-0.040
0.070	-6.411	-0.069
0.089	-6.408	-0.090
0.117	-6.405	-0.096
0.212	-7.108	-0.108
0.226	-7.107	-0.083
0.223	-7.108	-0.054
0.204	-7.110	-0.033
0.176	-7.112	-0.027
0.150	-7.114	-0.039
0.136	-7.115	-0.064
0.139	-7.114	-0.092
0.158	-7.112	-0.113
0.186	-7.110	-0.119
0.270	-7.816	-0.104
0.282	-7.814	-0.079
0.278	-7.812	-0.051
0.258	-7.812	-0.031
0.230	-7.813	-0.026
0.204	-7.816	-0.039
0.192	-7.818	-0.064
0.196	-7.819	-0.093
0.216	-7.819	-0.113
0.244	-7.818	-0.117
0.292	-8.520	-0.023
0.303	-8.516	0.002
0.298	-8.513	0.030
0.277	-8.512	0.049
0.249	-8.512	0.052
0.225	-8.515	0.039
0.213	-8.519	0.014
0.218	-8.522	-0.014
0.239	-8.523	-0.033
0.267	-8.523	-0.037
0.330	-9.217	0.069
0.342	-9.213	0.094
0.338	-9.211	0.122
0.318	-9.211	0.142
0.290	-9.213	0.146
0.265	-9.217	0.133
0.253	-9.221	0.109
0.257	-9.223	0.081
0.277	-9.223	0.061
0.305	-9.221	0.056
0.435	-9.911	0.118
0.448	-9.907	0.143
0.445	-9.905	0.171
0.426	-9.907	0.191
0.399	-9.912	0.197
0.374	-9.917	0.186
0.360	-9.921	0.161
0.363	-9.922	0.134
0.382	-9.920	0.113
0.409	-9.916	0.107
0.576	-10.602	0.159
0.589	-10.597	0.183
0.586	-10.596	0.211
0.567	-10.598	0.232
0.540	-10.603	0.238
0.515	-10.609	0.226
0.502	-10.613	0.202
0.505	-10.614	0.174
0.524	-10.612	0.154
0.551	-10.607	0.148
0.704	-11.295	0.218
0.717	-11.291	0.242
0.713	-11.289	0.270
0.694	-11.291	0.290
0.667	-11.295	0.296
0.642	-11.300	0.284
0.629	-11.305	0.260
0.633	-11.307	0.232
0.652	-11.305	0.212
0.679	-11.301	0.206
0.816	-11.990	0.276
0.829	-11.985	0.300
0.826	-11.984	0.328
0.808	-11.986	0.348
0.781	-11.991	0.354
0.756	-11.997	0.343
0.743	-12.001	0.319
0.746	-12.003	0.291
0.764	-12.001	0.271
0.791	-11.996	0.265
0.982	-12.672	0.329
0.996	-12.667	0.353
0.993	-12.667	0.380
0.976	-12.670	0.402
0.950	-12.677	0.408
0.925	-12.683	0.398
0.911	-12.688	0.374
0.913	-12.689	0.346
0.931	-12.685	0.325
0.957	-12.678	0.319
1.161	-13.351	0.329
1.176	-13.348	0.352
1.176	-13.350	0.380
1.160	-13.356	0.402
1.134	-13.363	0.409
1.109	-13.369	0.400
1.093	-13.372	0.377
1.094	-13.371	0.349
1.110	-13.365	0.327
1.136	-13.358	0.320
1.349	-14.025	0.253
1.366	-14.024	0.275
1.367	-14.027	0.303
1.352	-14.034	0.325
1.326	-14.042	0.334
1.301	-14.048	0.325
1.284	-14.050	0.303
1.283	-14.046	0.275
1.298	-14.039	0.253
1.324	-14.031	0.244
1.408	-14.250	0.217
1.425	-14.249	0.239
1.426	-14.253	0.266
1.411	-14.261	0.289
1.386	-14.269	0.297
1.360	-14.274	0.289
1.343	-14.275	0.267
1.342	-14.271	0.239
1.357	-14.263	0.217
1.382	-14.255	0.208
		    </DataArray>
         </Points>
         <Cells>
            <DataArray type="Int32" Name="connectivity" NumberOfComponents="1" format="ascii">
 0 10 1 11 2 12 3 13 4 14 5 15 6 16 7 17 8 18 9 19 0 10
 10 20 11 21 12 22 13 23 14 24 15 25 16 26 17 27 18 28 19 29 10 20
 20 30 21 31 22 32 23 33 24 34 25 35 26 36 27 37 28 38 29 39 20 30
 30 40 31 41 32 42 33 43 34 44 35 45 36 46 37 47 38 48 39 49 30 40
 40 50 41 51 42 52 43 53 44 54 45 55 46 56 47 57 48 58 49 59 40 50
 50 60 51 61 52 62 53 63 54 64 55 65 56 66 57 67 58 68 59 69 50 60
 60 70 61 71 62 72 63 73 64 74 65 75 66 76 67 77 68 78 69 79 60 70
 70 80 71 81 72 82 73 83 74 84 75 85 76 86 77 87 78 88 79 89 70 80
 80 90 81 91 82 92 83 93 84 94 85 95 86 96 87 97 88 98 89 99 80 90
 90 100 91 101 92 102 93 103 94 104 95 105 96 106 97 107 98 108 99 109 90 100
 110 120 111 121 112 122 113 123 114 124 115 125 116 126 117 127 118 128 119 129 110 120
 120 130 121 131 122 132 123 133 124 134 125 135 126 136 127 137 128 138 129 139 120 130
 130 140 131 141 132 142 133 143 134 144 135 145 136 146 137 147 138 148 139 149 130 140
 140 150 141 151 142 152 143 153 144 154 145 155 146 156 147 157 148 158 149 159 140 150
 150 160 151 161 152 162 153 163 154 164 155 165 156 166 157 167 158 168 159 169 150 160
 160 170 161 171 162 172 163 173 164 174 165 175 166 176 167 177 168 178 169 179 160 170
 170 180 171 181 172 182 173 183 174 184 175 185 176 186 177 187 178 188 179 189 170 180
 180 190 181 191 182 192 183 193 184 194 185 195 186 196 187 197 188 198 189 199 180 190
 190 200 191 201 192 202 193 203 194 204 195 205 196 206 197 207 198 208 199 209 190 200
 200 210 201 211 202 212 203 213 204 214 205 215 206 216 207 217 208 218 209 219 200 210
 210 220 211 221 212 222 213 223 214 224 215 225 216 226 217 227 218 228 219 229 210 220
 220 230 221 231 222 232 223 233 224 234 225 235 226 236 227 237 228 238 229 239 220 230
 230 240 231 241 232 242 233 243 234 244 235 245 236 246 237 247 238 248 239 249 230 240
 240 250 241 251 242 252 243 253 244 254 245 255 246 256 247 257 248 258 249 259 240 250

            </DataArray>
            <DataArray type="Int32" Name="offsets" NumberOfComponents="1" format="ascii">
 22 44 66 88 110 132 154 176 198 220 242 264 286 308 330 352 374 396 418 440 462 484 506 528
            </DataArray>
            <DataArray type="UInt8"  Name="types" NumberOfComponents="1" format="ascii">
6 6 6 6 6 6 6 6 6 6 6 6 6 6 6 6 6 6 6 6 6 6 6 6
            </DataArray>
         </Cells>
         <CellData>
           <DataArray type="Float32" Name="combinedRootClassID" NumberOfComponents="1" format="ascii">
 -2.000e+00 -2.000e+00 -2.000e+00 -2.000e+00 -2.000e+00 -2.000e+00 -2.000e+00 -2.000e+00 -2.000e+00 -2.000e+00 -4.000e+00 -4.000e+00 -4.000e+00 -4.000e+00 -4.000e+00 -4.000e+00 -4.000e+00 -4.000e+00 -4.000e+00 -4.000e+00 -4.000e+00 -4.000e+00 -4.000e+00 -4.000e+00
           </DataArray>
           <DataArray type="Float32" Name="nitrate/Cmin" NumberOfComponents="1" format="ascii">
 1.000e-03 1.000e-03 1.000e-03 1.000e-03 1.000e-03 1.000e-03 1.000e-03 1.000e-03 1.000e-03 1.000e-03 1.000e-03 1.000e-03 1.000e-03 1.000e-03 1.000e-03 1.000e-03 1.000e-03 1.000e-03 1.000e-03 1.000e-03 1.000e-03 1.000e-03 1.000e-03 1.000e-03
           </DataArray>
           <DataArray type="Float32" Name="nitrate/Imax" NumberOfComponents="1" format="ascii">
 1.900e+00 1.900e+00 1.900e+00 1.900e+00 1.900e+00 1.900e+00 1.900e+00 1.900e+00 1.900e+00 1.900e+00 1.900e+00 1.900e+00 1.900e+00 1.900e+00 1.900e+00 1.900e+00 1.900e+00 1.900e+00 1.900e+00 1.900e+00 1.900e+00 1.900e+00 1.900e+00 1.900e+00
           </DataArray>
           <DataArray type="Float32" Name="nitrate/Km" NumberOfComponents="1" format="ascii">
 1.610e-02 1.610e-02 1.610e-02 1.610e-02 1.610e-02 1.610e-02 1.610e-02 1.610e-02 1.610e-02 1.610e-02 1.610e-02 1.610e-02 1.610e-02 1.610e-02 1.610e-02 1.610e-02 1.610e-02 1.610e-02 1.610e-02 1.610e-02 1.610e-02 1.610e-02 1.610e-02 1.610e-02
           </DataArray>
           <DataArray type="Float32" Name="nitrate/minimalNutrientConcentration" NumberOfComponents="1" format="ascii">
 6.000e+02 6.000e+02 6.000e+02 6.000e+02 6.000e+02 6.000e+02 6.000e+02 6.000e+02 6.000e+02 6.000e+02 6.000e+02 6.000e+02 6.000e+02 6.000e+02 6.000e+02 6.000e+02 6.000e+02 6.000e+02 6.000e+02 6.000e+02 6.000e+02 6.000e+02 6.000e+02 6.000e+02
           </DataArray>
           <DataArray type="Float32" Name="nitrate/nutrientConcentrationAtTheRootSurface" NumberOfComponents="1" format="ascii">
 2.571e-01 2.274e-01 2.054e-01 1.607e-01 1.390e-01 1.132e-01 7.752e-02 0.000e+00 0.000e+00 0.000e+00 2.571e-01 2.747e-01 2.869e-01 2.991e-01 3.178e-01 3.330e-01 3.402e-01 3.502e-01 3.696e-01 3.770e-01 3.738e-01 3.740e-01 3.813e-01 4.086e-01
           </DataArray>
           <DataArray type="Float32" Name="nitrate/optimalNutrientConcentration" NumberOfComponents="1" format="ascii">
 1.200e+03 1.200e+03 1.200e+03 1.200e+03 1.200e+03 1.200e+03 1.200e+03 1.200e+03 1.200e+03 1.200e+03 1.200e+03 1.200e+03 1.200e+03 1.200e+03 1.200e+03 1.200e+03 1.200e+03 1.200e+03 1.200e+03 1.200e+03 1.200e+03 1.200e+03 1.200e+03 1.200e+03
           </DataArray>
           <DataArray type="Float32" Name="nitrate/rootSegmentMinimalNutrientContent" NumberOfComponents="1" format="ascii">
 5.503e+00 5.022e+00 8.407e+00 4.326e+00 4.316e+00 6.459e+00 6.154e+00 6.281e+00 6.238e+00 1.089e+00 2.768e-01 2.734e-01 2.703e-01 2.674e-01 2.649e-01 2.626e-01 2.606e-01 2.588e-01 2.573e-01 2.561e-01 2.551e-01 2.544e-01 2.539e-01 8.457e-02
           </DataArray>
           <DataArray type="Float32" Name="nitrate/rootSegmentNutrientUptake" NumberOfComponents="1" format="ascii">
 0.000e+00 2.631e-01 2.356e-01 1.797e-01 1.488e-01 1.125e-01 5.720e-02 0.000e+00 0.000e+00 0.000e+00 0.000e+00 3.016e-01 2.993e-01 2.944e-01 2.906e-01 2.820e-01 2.614e-01 2.393e-01 2.165e-01 1.829e-01 1.412e-01 1.004e-01 5.626e-02 1.218e-02
           </DataArray>
           <DataArray type="Float32" Name="nitrate/rootSegmentOptimalNutrientContent" NumberOfComponents="1" format="ascii">
 1.101e+01 1.004e+01 1.681e+01 8.651e+00 8.631e+00 1.292e+01 1.231e+01 1.256e+01 1.248e+01 2.178e+00 5.535e-01 5.467e-01 5.405e-01 5.349e-01 5.298e-01 5.252e-01 5.212e-01 5.176e-01 5.147e-01 5.122e-01 5.102e-01 5.088e-01 5.079e-01 1.691e-01
           </DataArray>
           <DataArray type="Float32" Name="parentRootClassID" NumberOfComponents="1" format="ascii">
 -3.000e+00 -3.000e+00 -3.000e+00 -3.000e+00 -3.000e+00 -3.000e+00 -3.000e+00 -3.000e+00 -3.000e+00 -3.000e+00 -3.000e+00 -3.000e+00 -3.000e+00 -3.000e+00 -3.000e+00 -3.000e+00 -3.000e+00 -3.000e+00 -3.000e+00 -3.000e+00 -3.000e+00 -3.000e+00 -3.000e+00 -3.000e+00
           </DataArray>
           <DataArray type="Float32" Name="plantID" NumberOfComponents="1" format="ascii">
 5.000e+00 5.000e+00 5.000e+00 5.000e+00 5.000e+00 5.000e+00 5.000e+00 5.000e+00 5.000e+00 5.000e+00 5.000e+00 5.000e+00 5.000e+00 5.000e+00 5.000e+00 5.000e+00 5.000e+00 5.000e+00 5.000e+00 5.000e+00 5.000e+00 5.000e+00 5.000e+00 5.000e+00
           </DataArray>
           <DataArray type="Float32" Name="plantTypeID" NumberOfComponents="1" format="ascii">
 0.000e+00 0.000e+00 0.000e+00 0.000e+00 0.000e+00 0.000e+00 0.000e+00 0.000e+00 0.000e+00 0.000e+00 0.000e+00 0.000e+00 0.000e+00 0.000e+00 0.000e+00 0.000e+00 0.000e+00 0.000e+00 0.000e+00 0.000e+00 0.000e+00 0.000e+00 0.000e+00 0.000e+00
           </DataArray>
           <DataArray type="Float32" Name="rootCircumference" NumberOfComponents="1" format="ascii">
 1.279e+00 1.273e+00 1.271e+00 1.267e+00 1.266e+00 1.265e+00 1.263e+00 1.261e+00 1.259e+00 1.257e+00 2.953e-01 2.935e-01 2.918e-01 2.903e-01 2.889e-01 2.877e-01 2.865e-01 2.856e-01 2.848e-01 2.841e-01 2.835e-01 2.831e-01 2.829e-01 2.828e-01
           </DataArray>
           <DataArray type="Float32" Name="rootClassID" NumberOfComponents="1" format="ascii">
 -2.000e+00 -2.000e+00 -2.000e+00 -2.000e+00 -2.000e+00 -2.000e+00 -2.000e+00 -2.000e+00 -2.000e+00 -2.000e+00 -4.000e+00 -4.000e+00 -4.000e+00 -4.000e+00 -4.000e+00 -4.000e+00 -4.000e+00 -4.000e+00 -4.000e+00 -4.000e+00 -4.000e+00 -4.000e+00 -4.000e+00 -4.000e+00
           </DataArray>
           <DataArray type="Float32" Name="rootDiameter" NumberOfComponents="1" format="ascii">
 4.070e-01 4.054e-01 4.045e-01 4.034e-01 4.030e-01 4.025e-01 4.019e-01 4.014e-01 4.009e-01 4.001e-01 9.400e-02 9.342e-02 9.289e-02 9.240e-02 9.196e-02 9.156e-02 9.121e-02 9.090e-02 9.064e-02 9.042e-02 9.025e-02 9.012e-02 9.004e-02 9.000e-02
           </DataArray>
           <DataArray type="Float32" Name="rootHairDensity" NumberOfComponents="1" format="ascii">
 0.000e+00 0.000e+00 0.000e+00 0.000e+00 0.000e+00 0.000e+00 0.000e+00 0.000e+00 0.000e+00 0.000e+00 2.000e+03 2.000e+03 2.000e+03 2.000e+03 2.000e+03 2.000e+03 2.000e+03 2.000e+03 2.000e+03 2.000e+03 2.000e+03 2.000e+03 2.000e+03 2.000e+03
           </DataArray>
           <DataArray type="Float32" Name="rootHairDiameter" NumberOfComponents="1" format="ascii">
 5.000e-04 5.000e-04 5.000e-04 5.000e-04 5.000e-04 5.000e-04 5.000e-04 5.000e-04 5.000e-04 5.000e-04 5.000e-04 5.000e-04 5.000e-04 5.000e-04 5.000e-04 5.000e-04 5.000e-04 5.000e-04 5.000e-04 5.000e-04 5.000e-04 5.000e-04 5.000e-04 5.000e-04
           </DataArray>
           <DataArray type="Float32" Name="rootHairLength" NumberOfComponents="1" format="ascii">
 3.000e-02 3.000e-02 3.000e-02 3.000e-02 3.000e-02 3.000e-02 3.000e-02 2.400e-02 1.200e-02 0.000e+00 3.000e-02 3.000e-02 3.000e-02 3.000e-02 3.000e-02 3.000e-02 3.000e-02 2.700e-02 1.800e-02 9.000e-03 0.000e+00 0.000e+00 0.000e+00 0.000e+00
           </DataArray>
           <DataArray type="Float32" Name="rootHairSurfaceArea" NumberOfComponents="1" format="ascii">
 0.000e+00 0.000e+00 0.000e+00 0.000e+00 0.000e+00 0.000e+00 0.000e+00 0.000e+00 0.000e+00 0.000e+00 9.425e-02 9.425e-02 9.425e-02 9.425e-02 9.425e-02 9.425e-02 9.425e-02 8.482e-02 5.655e-02 2.827e-02 0.000e+00 0.000e+00 0.000e+00 0.000e+00
           </DataArray>
           <DataArray type="Float32" Name="rootLength2Base" NumberOfComponents="1" format="ascii">
 0.000e+00 7.500e-01 1.440e+00 2.600e+00 3.200e+00 3.800e+00 4.700e+00 5.560e+00 6.440e+00 7.316e+00 0.000e+00 7.071e-01 1.414e+00 2.121e+00 2.828e+00 3.535e+00 4.243e+00 4.950e+00 5.657e+00 6.364e+00 7.071e+00 7.778e+00 8.485e+00 9.192e+00
           </DataArray>
           <DataArray type="Float32" Name="rootPotentialSecondaryGrowth" NumberOfComponents="1" format="ascii">
 4.070e-01 4.054e-01 4.045e-01 4.034e-01 4.030e-01 4.025e-01 4.019e-01 4.014e-01 4.009e-01 4.001e-01 9.400e-02 9.342e-02 9.289e-02 9.240e-02 9.196e-02 9.156e-02 9.121e-02 9.090e-02 9.064e-02 9.042e-02 9.025e-02 9.012e-02 9.004e-02 9.000e-02
           </DataArray>
           <DataArray type="Float32" Name="rootSegmentAge" NumberOfComponents="1" format="ascii">
 4.000e+00 3.500e+00 3.200e+00 2.800e+00 2.600e+00 2.400e+00 2.100e+00 1.800e+00 1.400e+00 5.000e-01 4.000e+00 3.700e+00 3.400e+00 3.100e+00 2.800e+00 2.500e+00 2.200e+00 1.900e+00 1.600e+00 1.300e+00 1.000e+00 7.000e-01 4.000e-01 1.000e-01
           </DataArray>
           <DataArray type="Float32" Name="rootSegmentCarbonCostOfExudates" NumberOfComponents="1" format="ascii">
 0.000e+00 0.000e+00 0.000e+00 0.000e+00 0.000e+00 0.000e+00 0.000e+00 0.000e+00 0.000e+00 0.000e+00 4.469e-05 4.143e-05 3.814e-05 3.455e-05 3.106e-05 2.752e-05 2.422e-05 2.087e-05 1.770e-05 1.425e-05 1.081e-05 7.083e-06 3.355e-06 2.239e-07
           </DataArray>
           <DataArray type="Float32" Name="rootSegmentDryWeight" NumberOfComponents="1" format="ascii">
 9.172e-03 8.370e-03 1.401e-02 7.210e-03 7.193e-03 1.077e-02 1.026e-02 1.047e-02 1.040e-02 1.815e-03 4.613e-04 4.556e-04 4.504e-04 4.457e-04 4.415e-04 4.377e-04 4.343e-04 4.314e-04 4.289e-04 4.268e-04 4.252e-04 4.240e-04 4.232e-04 1.410e-04
           </DataArray>
           <DataArray type="Float32" Name="rootSegmentLength" NumberOfComponents="1" format="ascii">
 7.500e-01 6.900e-01 1.160e+00 6.000e-01 6.000e-01 9.000e-01 8.600e-01 8.800e-01 8.764e-01 1.536e-01 7.071e-01 7.071e-01 7.071e-01 7.071e-01 7.071e-01 7.071e-01 7.071e-01 7.071e-01 7.071e-01 7.071e-01 7.071e-01 7.071e-01 7.071e-01 2.357e-01
           </DataArray>
           <DataArray type="Float32" Name="rootSegmentLengthDuration" NumberOfComponents="1" format="ascii">
 2.795e+00 2.311e+00 3.475e+00 1.620e+00 1.500e+00 2.030e+00 1.685e+00 1.419e+00 9.335e-01 4.388e-02 2.726e+00 2.514e+00 2.302e+00 2.090e+00 1.878e+00 1.666e+00 1.453e+00 1.241e+00 1.029e+00 8.171e-01 6.050e-01 3.928e-01 1.807e-01 2.357e-02
           </DataArray>
           <DataArray type="Float32" Name="rootSegmentRespiration" NumberOfComponents="1" format="ascii">
 3.669e-04 3.348e-04 5.604e-04 2.884e-04 2.877e-04 4.306e-04 4.103e-04 4.711e-04 5.718e-04 1.407e-04 1.845e-05 1.822e-05 1.802e-05 1.783e-05 1.766e-05 1.751e-05 1.737e-05 1.833e-05 2.144e-05 2.454e-05 2.764e-05 3.074e-05 3.386e-05 1.233e-05
           </DataArray>
           <DataArray type="Float32" Name="rootSegmentSecondaryPotentialCarbonSinkForGrowth" NumberOfComponents="1" format="ascii">
 1.239e-04 9.071e-05 1.223e-04 5.111e-05 4.379e-05 5.323e-05 3.820e-05 2.641e-05 1.039e-05 1.618e-07 1.603e-05 1.359e-05 1.136e-05 9.334e-06 7.515e-06 5.899e-06 4.482e-06 3.262e-06 2.239e-06 1.410e-06 7.729e-07 3.280e-07 7.402e-08 1.175e-09
           </DataArray>
           <DataArray type="Float32" Name="rootSegmentSurfaceArea" NumberOfComponents="1" format="ascii">
 9.590e-01 8.787e-01 1.474e+00 7.604e-01 7.596e-01 1.138e+00 1.086e+00 1.110e+00 1.104e+00 1.930e-01 2.088e-01 2.075e-01 2.063e-01 2.053e-01 2.043e-01 2.034e-01 2.026e-01 2.019e-01 2.013e-01 2.009e-01 2.005e-01 2.002e-01 2.000e-01 6.664e-02
           </DataArray>
           <DataArray type="Float32" Name="rootSegmentVolume" NumberOfComponents="1" format="ascii">
 9.758e-02 8.905e-02 1.491e-01 7.670e-02 7.652e-02 1.145e-01 1.091e-01 1.114e-01 1.106e-01 1.931e-02 4.907e-03 4.847e-03 4.792e-03 4.742e-03 4.696e-03 4.656e-03 4.620e-03 4.589e-03 4.563e-03 4.541e-03 4.523e-03 4.511e-03 4.502e-03 1.500e-03
           </DataArray>
           <DataArray type="Float32" Name="rootSegmentWaterUptake" NumberOfComponents="1" format="ascii">
 2.837e-02 2.610e-02 4.388e-02 2.269e-02 2.269e-02 3.404e-02 3.251e-02 0.000e+00 0.000e+00 0.000e+00 2.675e-02 2.675e-02 2.675e-02 2.675e-02 2.675e-02 2.675e-02 2.675e-02 2.661e-02 2.592e-02 2.400e-02 2.064e-02 1.533e-02 7.959e-03 5.638e-04
           </DataArray>
           <DataArray type="Float32" Name="spatialRootDensity" NumberOfComponents="1" format="ascii">
 3.376e-01 1.688e-01 0.000e+00 0.000e+00 0.000e+00 0.000e+00 0.000e+00 0.000e+00 0.000e+00 0.000e+00 3.438e-01 1.790e-01 0.000e+00 0.000e+00 0.000e+00 0.000e+00 0.000e+00 0.000e+00 0.000e+00 0.000e+00 0.000e+00 0.000e+00 0.000e+00 0.000e+00
           </DataArray>
           <DataArray type="Float32" Name="volumetricWaterContentAtTheRootSurface" NumberOfComponents="1" format="ascii">
 1.939e-01 1.939e-01 1.939e-01 1.939e-01 1.939e-01 1.939e-01 1.939e-01 0.000e+00 0.000e+00 0.000e+00 1.939e-01 1.939e-01 1.939e-01 1.939e-01 1.939e-01 1.939e-01 1.939e-01 1.939e-01 1.939e-01 1.939e-01 1.938e-01 1.938e-01 1.938e-01 1.938e-01
           </DataArray>
         </CellData>
      </Piece>
   </UnstructuredGrid>
</VTKFile>
