<?xml version="1.0"?>
<VTKFile type="UnstructuredGrid" version="0.1" byte_order="LittleEndian">
   <UnstructuredGrid>
      <Piece NumberOfPoints="90" NumberOfCells="7">
         <Points>
            <DataArray type="Float32" Name="Position" NumberOfComponents="3" format="ascii">
-0.141	-5.000	0.142
-0.031	-5.004	0.198
0.091	-5.006	0.178
0.178	-5.005	0.091
0.198	-5.003	-0.032
0.141	-5.000	-0.142
0.031	-4.996	-0.198
-0.091	-4.994	-0.178
-0.178	-4.995	-0.091
-0.198	-4.997	0.032
-0.128	-4.250	0.158
-0.017	-4.252	0.214
0.105	-4.253	0.195
0.192	-4.254	0.107
0.212	-4.252	-0.015
0.156	-4.251	-0.125
0.045	-4.249	-0.181
-0.077	-4.247	-0.162
-0.164	-4.247	-0.075
-0.184	-4.248	0.047
-0.124	-3.559	0.157
-0.014	-3.560	0.213
0.108	-3.561	0.195
0.195	-3.561	0.107
0.215	-3.562	-0.015
0.159	-3.561	-0.125
0.050	-3.561	-0.181
-0.073	-3.560	-0.163
-0.160	-3.560	-0.075
-0.180	-3.559	0.047
-0.121	-2.999	0.156
-0.011	-3.000	0.212
0.111	-3.001	0.193
0.199	-3.001	0.106
0.219	-3.002	-0.016
0.163	-3.002	-0.126
0.053	-3.001	-0.183
-0.069	-3.000	-0.164
-0.157	-3.000	-0.077
-0.177	-2.999	0.045
0.030	-4.997	-0.033
0.044	-4.996	-0.009
0.041	-4.997	0.019
0.022	-4.998	0.039
-0.005	-5.001	0.045
-0.030	-5.003	0.033
-0.044	-5.004	0.009
-0.041	-5.003	-0.019
-0.022	-5.002	-0.039
0.005	-4.999	-0.045
0.088	-5.701	-0.039
0.102	-5.701	-0.015
0.099	-5.702	0.013
0.081	-5.704	0.034
0.054	-5.707	0.039
0.028	-5.708	0.028
0.014	-5.708	0.004
0.017	-5.707	-0.024
0.035	-5.705	-0.044
0.063	-5.703	-0.050
0.142	-6.404	-0.084
0.156	-6.404	-0.060
0.154	-6.405	-0.032
0.135	-6.408	-0.012
0.108	-6.410	-0.006
0.083	-6.412	-0.017
0.069	-6.412	-0.040
0.071	-6.411	-0.068
0.089	-6.408	-0.089
0.116	-6.405	-0.095
0.211	-7.107	-0.107
0.225	-7.107	-0.083
0.222	-7.108	-0.055
0.204	-7.110	-0.034
0.177	-7.113	-0.029
0.151	-7.115	-0.040
0.137	-7.115	-0.064
0.140	-7.114	-0.092
0.159	-7.112	-0.112
0.186	-7.109	-0.118
0.231	-7.342	-0.113
0.245	-7.342	-0.089
0.242	-7.343	-0.061
0.224	-7.345	-0.041
0.197	-7.347	-0.035
0.171	-7.349	-0.046
0.157	-7.350	-0.070
0.160	-7.349	-0.098
0.179	-7.347	-0.118
0.206	-7.344	-0.124
		    </DataArray>
         </Points>
         <Cells>
            <DataArray type="Int32" Name="connectivity" NumberOfComponents="1" format="ascii">
 0 10 1 11 2 12 3 13 4 14 5 15 6 16 7 17 8 18 9 19 0 10
 10 20 11 21 12 22 13 23 14 24 15 25 16 26 17 27 18 28 19 29 10 20
 20 30 21 31 22 32 23 33 24 34 25 35 26 36 27 37 28 38 29 39 20 30
 40 50 41 51 42 52 43 53 44 54 45 55 46 56 47 57 48 58 49 59 40 50
 50 60 51 61 52 62 53 63 54 64 55 65 56 66 57 67 58 68 59 69 50 60
 60 70 61 71 62 72 63 73 64 74 65 75 66 76 67 77 68 78 69 79 60 70
 70 80 71 81 72 82 73 83 74 84 75 85 76 86 77 87 78 88 79 89 70 80

            </DataArray>
            <DataArray type="Int32" Name="offsets" NumberOfComponents="1" format="ascii">
 22 44 66 88 110 132 154
            </DataArray>
            <DataArray type="UInt8"  Name="types" NumberOfComponents="1" format="ascii">
6 6 6 6 6 6 6
            </DataArray>
         </Cells>
         <CellData>
           <DataArray type="Float32" Name="combinedRootClassID" NumberOfComponents="1" format="ascii">
 -2.000e+00 -2.000e+00 -2.000e+00 -4.000e+00 -4.000e+00 -4.000e+00 -4.000e+00
           </DataArray>
           <DataArray type="Float32" Name="nitrate/Cmin" NumberOfComponents="1" format="ascii">
 1.000e-03 1.000e-03 1.000e-03 1.000e-03 1.000e-03 1.000e-03 1.000e-03
           </DataArray>
           <DataArray type="Float32" Name="nitrate/Imax" NumberOfComponents="1" format="ascii">
 1.900e+00 1.900e+00 1.900e+00 1.900e+00 1.900e+00 1.900e+00 1.900e+00
           </DataArray>
           <DataArray type="Float32" Name="nitrate/Km" NumberOfComponents="1" format="ascii">
 1.610e-02 1.610e-02 1.610e-02 1.610e-02 1.610e-02 1.610e-02 1.610e-02
           </DataArray>
           <DataArray type="Float32" Name="nitrate/minimalNutrientConcentration" NumberOfComponents="1" format="ascii">
 6.000e+02 6.000e+02 6.000e+02 6.000e+02 6.000e+02 6.000e+02 6.000e+02
           </DataArray>
           <DataArray type="Float32" Name="nitrate/nutrientConcentrationAtTheRootSurface" NumberOfComponents="1" format="ascii">
 1.389e-01 1.381e-01 1.427e-01 1.389e-01 1.365e-01 1.397e-01 1.473e-01
           </DataArray>
           <DataArray type="Float32" Name="nitrate/optimalNutrientConcentration" NumberOfComponents="1" format="ascii">
 1.200e+03 1.200e+03 1.200e+03 1.200e+03 1.200e+03 1.200e+03 1.200e+03
           </DataArray>
           <DataArray type="Float32" Name="nitrate/rootSegmentMinimalNutrientContent" NumberOfComponents="1" format="ascii">
 5.327e+00 4.893e+00 3.969e+00 2.551e-01 2.544e-01 2.539e-01 8.457e-02
           </DataArray>
           <DataArray type="Float32" Name="nitrate/rootSegmentNutrientUptake" NumberOfComponents="1" format="ascii">
 0.000e+00 2.283e-02 1.010e-02 0.000e+00 2.948e-02 1.893e-02 5.636e-03
           </DataArray>
           <DataArray type="Float32" Name="nitrate/rootSegmentOptimalNutrientContent" NumberOfComponents="1" format="ascii">
 1.065e+01 9.786e+00 7.939e+00 5.102e-01 5.088e-01 5.079e-01 1.691e-01
           </DataArray>
           <DataArray type="Float32" Name="parentRootClassID" NumberOfComponents="1" format="ascii">
 -3.000e+00 -3.000e+00 -3.000e+00 -3.000e+00 -3.000e+00 -3.000e+00 -3.000e+00
           </DataArray>
           <DataArray type="Float32" Name="plantID" NumberOfComponents="1" format="ascii">
 2.000e+00 2.000e+00 2.000e+00 2.000e+00 2.000e+00 2.000e+00 2.000e+00
           </DataArray>
           <DataArray type="Float32" Name="plantTypeID" NumberOfComponents="1" format="ascii">
 0.000e+00 0.000e+00 0.000e+00 0.000e+00 0.000e+00 0.000e+00 0.000e+00
           </DataArray>
           <DataArray type="Float32" Name="rootCircumference" NumberOfComponents="1" format="ascii">
 1.258e+00 1.257e+00 1.257e+00 2.835e-01 2.831e-01 2.829e-01 2.828e-01
           </DataArray>
           <DataArray type="Float32" Name="rootClassID" NumberOfComponents="1" format="ascii">
 -2.000e+00 -2.000e+00 -2.000e+00 -4.000e+00 -4.000e+00 -4.000e+00 -4.000e+00
           </DataArray>
           <DataArray type="Float32" Name="rootDiameter" NumberOfComponents="1" format="ascii">
 4.004e-01 4.001e-01 4.000e-01 9.025e-02 9.012e-02 9.004e-02 9.000e-02
           </DataArray>
           <DataArray type="Float32" Name="rootHairDensity" NumberOfComponents="1" format="ascii">
 0.000e+00 0.000e+00 0.000e+00 2.000e+03 2.000e+03 2.000e+03 2.000e+03
           </DataArray>
           <DataArray type="Float32" Name="rootHairDiameter" NumberOfComponents="1" format="ascii">
 5.000e-04 5.000e-04 5.000e-04 5.000e-04 5.000e-04 5.000e-04 5.000e-04
           </DataArray>
           <DataArray type="Float32" Name="rootHairLength" NumberOfComponents="1" format="ascii">
 0.000e+00 0.000e+00 0.000e+00 0.000e+00 0.000e+00 0.000e+00 0.000e+00
           </DataArray>
           <DataArray type="Float32" Name="rootHairSurfaceArea" NumberOfComponents="1" format="ascii">
 0.000e+00 0.000e+00 0.000e+00 0.000e+00 0.000e+00 0.000e+00 0.000e+00
           </DataArray>
           <DataArray type="Float32" Name="rootLength2Base" NumberOfComponents="1" format="ascii">
 0.000e+00 7.500e-01 1.440e+00 0.000e+00 7.071e-01 1.414e+00 2.121e+00
           </DataArray>
           <DataArray type="Float32" Name="rootPotentialSecondaryGrowth" NumberOfComponents="1" format="ascii">
 4.004e-01 4.001e-01 4.000e-01 9.025e-02 9.012e-02 9.004e-02 9.000e-02
           </DataArray>
           <DataArray type="Float32" Name="rootSegmentAge" NumberOfComponents="1" format="ascii">
 1.000e+00 5.000e-01 2.000e-01 1.000e+00 7.000e-01 4.000e-01 1.000e-01
           </DataArray>
           <DataArray type="Float32" Name="rootSegmentCarbonCostOfExudates" NumberOfComponents="1" format="ascii">
 0.000e+00 0.000e+00 0.000e+00 1.081e-05 7.083e-06 3.355e-06 2.239e-07
           </DataArray>
           <DataArray type="Float32" Name="rootSegmentDryWeight" NumberOfComponents="1" format="ascii">
 8.879e-03 8.155e-03 6.616e-03 4.252e-04 4.240e-04 4.232e-04 1.410e-04
           </DataArray>
           <DataArray type="Float32" Name="rootSegmentLength" NumberOfComponents="1" format="ascii">
 7.500e-01 6.900e-01 5.600e-01 7.071e-01 7.071e-01 7.071e-01 2.357e-01
           </DataArray>
           <DataArray type="Float32" Name="rootSegmentLengthDuration" NumberOfComponents="1" format="ascii">
 5.450e-01 2.413e-01 5.467e-02 6.050e-01 3.928e-01 1.807e-01 2.357e-02
           </DataArray>
           <DataArray type="Float32" Name="rootSegmentRespiration" NumberOfComponents="1" format="ascii">
 5.771e-04 6.320e-04 5.623e-04 2.764e-05 3.074e-05 3.386e-05 1.233e-05
           </DataArray>
           <DataArray type="Float32" Name="rootSegmentSecondaryPotentialCarbonSinkForGrowth" NumberOfComponents="1" format="ascii">
 5.035e-06 1.035e-06 8.527e-08 7.729e-07 3.280e-07 7.402e-08 1.175e-09
           </DataArray>
           <DataArray type="Float32" Name="rootSegmentSurfaceArea" NumberOfComponents="1" format="ascii">
 9.435e-01 8.673e-01 7.037e-01 2.005e-01 2.002e-01 2.000e-01 6.664e-02
           </DataArray>
           <DataArray type="Float32" Name="rootSegmentVolume" NumberOfComponents="1" format="ascii">
 9.445e-02 8.676e-02 7.038e-02 4.523e-03 4.511e-03 4.502e-03 1.500e-03
           </DataArray>
           <DataArray type="Float32" Name="rootSegmentWaterUptake" NumberOfComponents="1" format="ascii">
 0.000e+00 0.000e+00 0.000e+00 0.000e+00 0.000e+00 0.000e+00 0.000e+00
           </DataArray>
           <DataArray type="Float32" Name="spatialRootDensity" NumberOfComponents="1" format="ascii">
 3.376e-01 1.688e-01 0.000e+00 3.438e-01 1.790e-01 0.000e+00 0.000e+00
           </DataArray>
           <DataArray type="Float32" Name="volumetricWaterContentAtTheRootSurface" NumberOfComponents="1" format="ascii">
 1.924e-01 1.923e-01 1.922e-01 1.924e-01 1.925e-01 1.925e-01 1.926e-01
           </DataArray>
         </CellData>
      </Piece>
   </UnstructuredGrid>
</VTKFile>
