<?xml version="1.0"?>
<VTKFile type="UnstructuredGrid" version="0.1" byte_order="LittleEndian">
   <UnstructuredGrid>
      <Piece NumberOfPoints="2540" NumberOfCells="179">
         <Points>
            <DataArray type="Float32" Name="Position" NumberOfComponents="3" format="ascii">
0.024	-4.989	-0.024
0.027	-4.972	-0.012
0.019	-4.962	0.005
0.005	-4.963	0.020
-0.011	-4.974	0.028
-0.023	-4.991	0.025
-0.026	-5.008	0.013
-0.018	-5.018	-0.004
-0.004	-5.017	-0.020
0.012	-5.006	-0.027
0.522	-5.401	0.427
0.526	-5.386	0.441
0.520	-5.377	0.459
0.506	-5.378	0.474
0.488	-5.388	0.481
0.475	-5.403	0.476
0.470	-5.418	0.462
0.477	-5.427	0.444
0.491	-5.426	0.429
0.508	-5.416	0.423
0.949	-6.069	0.813
0.956	-6.057	0.829
0.951	-6.050	0.848
0.936	-6.050	0.863
0.917	-6.058	0.868
0.901	-6.070	0.862
0.894	-6.081	0.845
0.899	-6.088	0.826
0.914	-6.088	0.811
0.933	-6.080	0.806
1.201	-6.658	1.058
1.209	-6.649	1.075
1.205	-6.643	1.095
1.190	-6.643	1.110
1.171	-6.649	1.114
1.153	-6.658	1.106
1.145	-6.667	1.089
1.150	-6.673	1.069
1.165	-6.673	1.054
1.184	-6.667	1.050
1.427	-7.395	1.288
1.435	-7.387	1.306
1.431	-7.382	1.326
1.416	-7.382	1.341
1.396	-7.386	1.344
1.378	-7.393	1.336
1.369	-7.401	1.318
1.374	-7.406	1.298
1.389	-7.406	1.283
1.409	-7.402	1.280
1.559	-7.957	1.455
1.567	-7.950	1.473
1.563	-7.945	1.493
1.547	-7.944	1.508
1.527	-7.947	1.511
1.509	-7.954	1.502
1.501	-7.961	1.484
1.505	-7.966	1.464
1.520	-7.967	1.449
1.541	-7.964	1.446
1.668	-8.574	1.640
1.676	-8.568	1.658
1.672	-8.563	1.678
1.656	-8.562	1.692
1.636	-8.564	1.695
1.618	-8.570	1.686
1.609	-8.576	1.667
1.614	-8.581	1.647
1.629	-8.582	1.633
1.650	-8.580	1.631
1.758	-9.251	1.813
1.766	-9.245	1.831
1.762	-9.241	1.851
1.747	-9.240	1.866
1.726	-9.243	1.869
1.708	-9.247	1.859
1.699	-9.253	1.841
1.703	-9.257	1.820
1.719	-9.258	1.806
1.739	-9.255	1.803
1.812	-9.611	1.883
1.821	-9.606	1.901
1.817	-9.602	1.921
1.802	-9.602	1.936
1.781	-9.604	1.939
1.763	-9.609	1.930
1.754	-9.614	1.911
1.758	-9.617	1.891
1.773	-9.618	1.877
1.794	-9.615	1.873
-0.004	-4.964	-0.021
0.013	-4.960	-0.009
0.025	-4.967	0.006
0.028	-4.984	0.019
0.020	-5.002	0.025
0.005	-5.016	0.022
-0.012	-5.020	0.010
-0.024	-5.013	-0.005
-0.027	-4.997	-0.018
-0.019	-4.978	-0.024
0.448	-5.330	-0.557
0.466	-5.328	-0.546
0.477	-5.335	-0.530
0.477	-5.350	-0.515
0.467	-5.367	-0.508
0.450	-5.379	-0.510
0.432	-5.382	-0.522
0.421	-5.374	-0.538
0.421	-5.359	-0.552
0.431	-5.342	-0.560
0.834	-5.955	-1.056
0.851	-5.954	-1.044
0.860	-5.962	-1.027
0.857	-5.975	-1.011
0.844	-5.989	-1.002
0.825	-5.998	-1.004
0.808	-5.998	-1.016
0.799	-5.990	-1.034
0.801	-5.977	-1.050
0.815	-5.963	-1.058
1.091	-6.485	-1.414
1.108	-6.485	-1.401
1.116	-6.493	-1.384
1.112	-6.505	-1.367
1.097	-6.517	-1.358
1.077	-6.524	-1.360
1.060	-6.523	-1.372
1.052	-6.515	-1.390
1.056	-6.503	-1.407
1.071	-6.491	-1.416
1.322	-7.148	-1.808
1.338	-7.150	-1.796
1.345	-7.159	-1.777
1.339	-7.170	-1.761
1.323	-7.179	-1.751
1.302	-7.184	-1.753
1.286	-7.182	-1.766
1.279	-7.174	-1.784
1.285	-7.163	-1.801
1.301	-7.153	-1.810
1.442	-7.675	-2.076
1.458	-7.678	-2.063
1.463	-7.686	-2.044
1.456	-7.695	-2.027
1.439	-7.703	-2.018
1.418	-7.706	-2.020
1.402	-7.703	-2.033
1.397	-7.695	-2.052
1.404	-7.685	-2.069
1.421	-7.678	-2.078
1.551	-8.261	-2.344
1.566	-8.265	-2.330
1.571	-8.272	-2.311
1.562	-8.281	-2.294
1.545	-8.288	-2.285
1.524	-8.290	-2.288
1.508	-8.286	-2.302
1.504	-8.279	-2.321
1.512	-8.270	-2.338
1.530	-8.263	-2.347
1.649	-8.908	-2.608
1.664	-8.912	-2.593
1.668	-8.919	-2.574
1.659	-8.927	-2.557
1.640	-8.933	-2.549
1.620	-8.934	-2.552
1.605	-8.931	-2.567
1.601	-8.924	-2.586
1.610	-8.916	-2.603
1.629	-8.910	-2.612
1.693	-9.255	-2.738
1.708	-9.258	-2.723
1.711	-9.265	-2.704
1.702	-9.273	-2.687
1.683	-9.278	-2.678
1.663	-9.279	-2.682
1.648	-9.276	-2.697
1.645	-9.269	-2.716
1.654	-9.261	-2.734
1.673	-9.256	-2.742
-0.026	-4.983	0.020
-0.023	-4.967	0.008
-0.011	-4.959	-0.008
0.006	-4.963	-0.020
0.020	-4.978	-0.024
0.027	-4.997	-0.019
0.024	-5.013	-0.007
0.012	-5.021	0.009
-0.005	-5.017	0.021
-0.019	-5.002	0.025
-0.510	-5.296	-0.523
-0.505	-5.283	-0.539
-0.491	-5.280	-0.554
-0.473	-5.287	-0.563
-0.459	-5.302	-0.562
-0.453	-5.320	-0.552
-0.458	-5.333	-0.536
-0.472	-5.336	-0.521
-0.490	-5.329	-0.512
-0.504	-5.313	-0.513
-0.925	-5.906	-1.011
-0.924	-5.895	-1.029
-0.912	-5.890	-1.045
-0.893	-5.895	-1.055
-0.876	-5.906	-1.053
-0.866	-5.920	-1.041
-0.867	-5.932	-1.024
-0.879	-5.936	-1.007
-0.897	-5.932	-0.998
-0.915	-5.920	-0.999
-1.197	-6.442	-1.342
-1.193	-6.434	-1.361
-1.179	-6.433	-1.377
-1.160	-6.440	-1.382
-1.143	-6.451	-1.377
-1.135	-6.463	-1.361
-1.139	-6.471	-1.342
-1.154	-6.472	-1.327
-1.173	-6.466	-1.321
-1.189	-6.455	-1.327
-1.528	-7.102	-1.657
-1.522	-7.097	-1.676
-1.506	-7.098	-1.691
-1.487	-7.106	-1.694
-1.471	-7.117	-1.685
-1.465	-7.127	-1.668
-1.471	-7.133	-1.649
-1.487	-7.132	-1.635
-1.506	-7.124	-1.631
-1.522	-7.113	-1.640
-1.767	-7.616	-1.860
-1.761	-7.611	-1.879
-1.745	-7.613	-1.893
-1.726	-7.620	-1.896
-1.710	-7.630	-1.887
-1.703	-7.639	-1.869
-1.709	-7.644	-1.849
-1.725	-7.642	-1.835
-1.744	-7.635	-1.832
-1.760	-7.625	-1.842
-1.990	-8.202	-2.042
-1.985	-8.199	-2.062
-1.969	-8.200	-2.076
-1.949	-8.207	-2.078
-1.933	-8.216	-2.068
-1.926	-8.224	-2.050
-1.932	-8.227	-2.030
-1.948	-8.226	-2.016
-1.967	-8.219	-2.014
-1.984	-8.210	-2.024
-2.223	-8.845	-2.216
-2.218	-8.841	-2.236
-2.202	-8.843	-2.250
-2.182	-8.849	-2.253
-2.166	-8.857	-2.243
-2.159	-8.864	-2.224
-2.164	-8.868	-2.204
-2.180	-8.866	-2.190
-2.200	-8.860	-2.188
-2.216	-8.852	-2.198
-2.273	-9.203	-2.325
-2.266	-9.210	-2.306
-2.271	-9.213	-2.286
-2.287	-9.212	-2.272
-2.307	-9.206	-2.269
-2.324	-9.199	-2.279
-2.331	-9.192	-2.298
-2.326	-9.189	-2.318
-2.310	-9.190	-2.332
-2.290	-9.196	-2.335
0.022	-5.016	0.005
0.027	-5.001	0.019
0.021	-4.983	0.027
0.007	-4.967	0.024
-0.009	-4.960	0.013
-0.021	-4.964	-0.004
-0.026	-4.979	-0.018
-0.020	-4.997	-0.026
-0.006	-5.013	-0.023
0.010	-5.020	-0.012
-0.480	-5.362	0.493
-0.477	-5.350	0.509
-0.484	-5.332	0.519
-0.498	-5.317	0.518
-0.515	-5.310	0.508
-0.527	-5.313	0.491
-0.531	-5.326	0.475
-0.523	-5.343	0.465
-0.509	-5.358	0.465
-0.492	-5.366	0.476
-0.974	-5.957	0.911
-0.971	-5.946	0.929
-0.979	-5.932	0.942
-0.995	-5.918	0.944
-1.012	-5.911	0.935
-1.025	-5.913	0.918
-1.028	-5.923	0.900
-1.019	-5.938	0.888
-1.004	-5.951	0.886
-0.986	-5.959	0.895
-1.325	-6.448	1.234
-1.322	-6.439	1.252
-1.330	-6.425	1.266
-1.346	-6.411	1.269
-1.364	-6.404	1.260
-1.377	-6.406	1.244
-1.380	-6.415	1.225
-1.371	-6.429	1.212
-1.355	-6.443	1.209
-1.337	-6.450	1.217
-1.728	-7.042	1.589
-1.725	-7.033	1.608
-1.734	-7.021	1.623
-1.750	-7.008	1.627
-1.769	-7.001	1.619
-1.782	-7.002	1.603
-1.784	-7.010	1.584
-1.776	-7.023	1.570
-1.759	-7.035	1.565
-1.741	-7.042	1.573
-1.994	-7.526	1.812
-1.991	-7.519	1.832
-1.999	-7.509	1.848
-2.016	-7.499	1.855
-2.035	-7.492	1.849
-2.049	-7.492	1.834
-2.053	-7.499	1.814
-2.045	-7.509	1.798
-2.028	-7.519	1.791
-2.008	-7.526	1.797
-2.210	-8.103	2.014
-2.205	-8.098	2.034
-2.213	-8.090	2.051
-2.230	-8.081	2.060
-2.250	-8.076	2.056
-2.265	-8.076	2.042
-2.270	-8.081	2.022
-2.262	-8.089	2.004
-2.245	-8.098	1.995
-2.225	-8.103	1.999
-2.399	-8.749	2.215
-2.394	-8.745	2.235
-2.402	-8.737	2.253
-2.419	-8.730	2.263
-2.439	-8.725	2.260
-2.455	-8.725	2.246
-2.460	-8.729	2.226
-2.452	-8.737	2.208
-2.435	-8.744	2.198
-2.415	-8.749	2.201
-2.491	-9.095	2.314
-2.486	-9.091	2.334
-2.494	-9.084	2.352
-2.511	-9.076	2.362
-2.531	-9.072	2.359
-2.547	-9.071	2.345
-2.552	-9.076	2.326
-2.545	-9.083	2.307
-2.528	-9.090	2.297
-2.507	-9.095	2.300
0.033	-4.700	-0.014
0.031	-4.681	-0.007
0.021	-4.668	0.007
0.006	-4.669	0.022
-0.008	-4.681	0.032
-0.015	-4.700	0.035
-0.012	-4.720	0.028
-0.002	-4.732	0.014
0.013	-4.732	-0.001
0.027	-4.720	-0.011
0.341	-4.773	0.292
0.339	-4.754	0.299
0.328	-4.741	0.313
0.313	-4.742	0.328
0.300	-4.754	0.338
0.293	-4.773	0.341
0.295	-4.793	0.334
0.306	-4.805	0.320
0.321	-4.805	0.305
0.334	-4.793	0.295
-0.001	-4.673	-0.007
0.015	-4.667	0.006
0.028	-4.674	0.021
0.035	-4.691	0.031
0.031	-4.711	0.034
0.020	-4.728	0.027
0.004	-4.734	0.015
-0.009	-4.727	0.000
-0.016	-4.710	-0.010
-0.012	-4.689	-0.013
0.294	-4.757	-0.323
0.309	-4.751	-0.310
0.323	-4.758	-0.296
0.329	-4.775	-0.285
0.326	-4.795	-0.282
0.315	-4.812	-0.289
0.299	-4.818	-0.302
0.286	-4.811	-0.316
0.279	-4.794	-0.327
0.282	-4.773	-0.329
-0.014	-4.702	0.035
-0.013	-4.682	0.028
-0.004	-4.669	0.015
0.011	-4.668	-0.001
0.025	-4.679	-0.012
0.033	-4.699	-0.014
0.032	-4.719	-0.008
0.023	-4.731	0.006
0.008	-4.733	0.021
-0.006	-4.721	0.033
-0.326	-4.792	-0.261
-0.325	-4.772	-0.268
-0.316	-4.759	-0.282
-0.301	-4.758	-0.297
-0.287	-4.769	-0.308
-0.279	-4.788	-0.311
-0.280	-4.808	-0.304
-0.289	-4.821	-0.291
-0.304	-4.822	-0.275
-0.318	-4.811	-0.264
0.028	-4.728	0.020
0.034	-4.711	0.031
0.031	-4.691	0.035
0.020	-4.674	0.029
0.005	-4.667	0.017
-0.009	-4.673	0.001
-0.015	-4.689	-0.010
-0.012	-4.710	-0.014
-0.001	-4.727	-0.008
0.014	-4.733	0.004
-0.275	-4.827	0.322
-0.268	-4.811	0.334
-0.271	-4.791	0.338
-0.283	-4.774	0.332
-0.298	-4.767	0.319
-0.311	-4.773	0.304
-0.317	-4.789	0.292
-0.314	-4.810	0.289
-0.303	-4.826	0.294
-0.288	-4.833	0.307
-0.152	-5.000	0.152
-0.033	-5.004	0.212
0.098	-5.006	0.191
0.192	-5.006	0.097
0.212	-5.003	-0.034
0.152	-5.000	-0.152
0.033	-4.996	-0.212
-0.098	-4.994	-0.191
-0.192	-4.994	-0.097
-0.212	-4.997	0.034
-0.136	-4.250	0.166
-0.019	-4.252	0.226
0.110	-4.254	0.205
0.203	-4.254	0.113
0.224	-4.253	-0.017
0.164	-4.251	-0.134
0.047	-4.249	-0.193
-0.082	-4.247	-0.173
-0.175	-4.247	-0.080
-0.196	-4.248	0.049
-0.132	-3.560	0.165
-0.016	-3.560	0.224
0.113	-3.561	0.204
0.205	-3.561	0.112
0.226	-3.561	-0.017
0.167	-3.561	-0.133
0.051	-3.561	-0.192
-0.078	-3.560	-0.172
-0.170	-3.560	-0.080
-0.191	-3.560	0.049
-0.130	-2.400	0.164
-0.015	-2.401	0.222
0.113	-2.401	0.202
0.205	-2.401	0.111
0.225	-2.401	-0.017
0.166	-2.401	-0.132
0.051	-2.400	-0.191
-0.077	-2.400	-0.171
-0.168	-2.400	-0.079
-0.188	-2.400	0.048
-0.128	-1.800	0.164
-0.014	-1.800	0.223
0.114	-1.800	0.203
0.205	-1.801	0.112
0.225	-1.801	-0.015
0.167	-1.801	-0.130
[...]
         <CellData>
           <DataArray type="Float32" Name="combinedRootClassID" NumberOfComponents="1" format="ascii">
 -5.000e+00 -5.000e+00 -5.000e+00 -5.000e+00 -5.000e+00 -5.000e+00 -5.000e+00 -5.000e+00 -5.000e+00 -5.000e+00 -5.000e+00 -5.000e+00 -5.000e+00 -5.000e+00 -5.000e+00 -5.000e+00 -5.000e+00 -5.000e+00 -5.000e+00 -5.000e+00 -5.000e+00 -5.000e+00 -5.000e+00 -5.000e+00 -5.000e+00 -5.000e+00 -5.000e+00 -5.000e+00 -5.000e+00 -5.000e+00 -5.000e+00 -5.000e+00 -9.000e+00 -9.000e+00 -9.000e+00 -9.000e+00 -2.000e+00 -2.000e+00 -2.000e+00 -2.000e+00 -2.000e+00 -2.000e+00 -2.000e+00 -2.000e+00 -2.000e+00 -2.000e+00 -7.000e+00 -7.000e+00 -7.000e+00 -7.000e+00 -7.000e+00 -7.000e+00 -7.000e+00 -7.000e+00 -7.000e+00 -7.000e+00 -7.000e+00 -7.000e+00 -7.000e+00 -7.000e+00 -7.000e+00 -7.000e+00 -7.000e+00 -7.000e+00 -7.000e+00 -7.000e+00 -7.000e+00 -7.000e+00 -7.000e+00 -7.000e+00 -7.000e+00 -7.000e+00 -7.000e+00 -7.000e+00 -7.000e+00 -7.000e+00 -7.000e+00 -7.000e+00 -7.000e+00 -7.000e+00 -7.000e+00 -7.000e+00 -7.000e+00 -7.000e+00 -7.000e+00 -7.000e+00 -7.000e+00 -7.000e+00 -7.000e+00 -7.000e+00 -7.000e+00 -7.000e+00 -7.000e+00 -7.000e+00 -7.000e+00 -7.000e+00 -7.000e+00 -7.000e+00 -7.000e+00 -7.000e+00 -7.000e+00 -7.000e+00 -7.000e+00 -7.000e+00 -7.000e+00 -7.000e+00 -7.000e+00 -7.000e+00 -7.000e+00 -7.000e+00 -7.000e+00 -7.000e+00 -7.000e+00 -7.000e+00 -7.000e+00 -7.000e+00 -7.000e+00 -7.000e+00 -7.000e+00 -7.000e+00 -7.000e+00 -7.000e+00 -7.000e+00 -7.000e+00 -7.000e+00 -7.000e+00 -7.000e+00 -7.000e+00 -7.000e+00 -7.000e+00 -7.000e+00 -7.000e+00 -7.000e+00 -7.000e+00 -7.000e+00 -7.000e+00 -7.000e+00 -7.000e+00 -7.000e+00 -7.000e+00 -7.000e+00 -7.000e+00 -7.000e+00 -7.000e+00 -7.000e+00 -7.000e+00 -7.000e+00 -7.000e+00 -7.000e+00 -7.000e+00 -7.000e+00 -7.000e+00 -7.000e+00 -7.000e+00 -1.100e+01 -4.000e+00 -4.000e+00 -4.000e+00 -4.000e+00 -4.000e+00 -4.000e+00 -4.000e+00 -4.000e+00 -4.000e+00 -4.000e+00 -4.000e+00 -4.000e+00 -4.000e+00 -4.000e+00 -4.000e+00 -4.000e+00 -4.000e+00 -4.000e+00 -4.000e+00 -4.000e+00 -4.000e+00 -4.000e+00 -4.000e+00 -4.000e+00
           </DataArray>
           <DataArray type="Float32" Name="nitrate/Cmin" NumberOfComponents="1" format="ascii">
 1.000e-03 1.000e-03 1.000e-03 1.000e-03 1.000e-03 1.000e-03 1.000e-03 1.000e-03 1.000e-03 1.000e-03 1.000e-03 1.000e-03 1.000e-03 1.000e-03 1.000e-03 1.000e-03 1.000e-03 1.000e-03 1.000e-03 1.000e-03 1.000e-03 1.000e-03 1.000e-03 1.000e-03 1.000e-03 1.000e-03 1.000e-03 1.000e-03 1.000e-03 1.000e-03 1.000e-03 1.000e-03 1.000e-03 1.000e-03 1.000e-03 1.000e-03 1.000e-03 1.000e-03 1.000e-03 1.000e-03 1.000e-03 1.000e-03 1.000e-03 1.000e-03 1.000e-03 1.000e-03 1.000e-03 1.000e-03 1.000e-03 1.000e-03 1.000e-03 1.000e-03 1.000e-03 1.000e-03 1.000e-03 1.000e-03 1.000e-03 1.000e-03 1.000e-03 1.000e-03 1.000e-03 1.000e-03 1.000e-03 1.000e-03 1.000e-03 1.000e-03 1.000e-03 1.000e-03 1.000e-03 1.000e-03 1.000e-03 1.000e-03 1.000e-03 1.000e-03 1.000e-03 1.000e-03 1.000e-03 1.000e-03 1.000e-03 1.000e-03 1.000e-03 1.000e-03 1.000e-03 1.000e-03 1.000e-03 1.000e-03 1.000e-03 1.000e-03 1.000e-03 1.000e-03 1.000e-03 1.000e-03 1.000e-03 1.000e-03 1.000e-03 1.000e-03 1.000e-03 1.000e-03 1.000e-03 1.000e-03 1.000e-03 1.000e-03 1.000e-03 1.000e-03 1.000e-03 1.000e-03 1.000e-03 1.000e-03 1.000e-03 1.000e-03 1.000e-03 1.000e-03 1.000e-03 1.000e-03 1.000e-03 1.000e-03 1.000e-03 1.000e-03 1.000e-03 1.000e-03 1.000e-03 1.000e-03 1.000e-03 1.000e-03 1.000e-03 1.000e-03 1.000e-03 1.000e-03 1.000e-03 1.000e-03 1.000e-03 1.000e-03 1.000e-03 1.000e-03 1.000e-03 1.000e-03 1.000e-03 1.000e-03 1.000e-03 1.000e-03 1.000e-03 1.000e-03 1.000e-03 1.000e-03 1.000e-03 1.000e-03 1.000e-03 1.000e-03 1.000e-03 1.000e-03 1.000e-03 1.000e-03 1.000e-03 1.000e-03 1.000e-03 1.000e-03 1.000e-03 1.000e-03 1.000e-03 1.000e-03 1.000e-03 1.000e-03 1.000e-03 1.000e-03 1.000e-03 1.000e-03 1.000e-03 1.000e-03 1.000e-03 1.000e-03 1.000e-03 1.000e-03 1.000e-03 1.000e-03 1.000e-03 1.000e-03 1.000e-03 1.000e-03 1.000e-03
           </DataArray>
           <DataArray type="Float32" Name="nitrate/Imax" NumberOfComponents="1" format="ascii">
 1.900e+00 1.900e+00 1.900e+00 1.900e+00 1.900e+00 1.900e+00 1.900e+00 1.900e+00 1.900e+00 1.900e+00 1.900e+00 1.900e+00 1.900e+00 1.900e+00 1.900e+00 1.900e+00 1.900e+00 1.900e+00 1.900e+00 1.900e+00 1.900e+00 1.900e+00 1.900e+00 1.900e+00 1.900e+00 1.900e+00 1.900e+00 1.900e+00 1.900e+00 1.900e+00 1.900e+00 1.900e+00 1.900e+00 1.900e+00 1.900e+00 1.900e+00 1.900e+00 1.900e+00 1.900e+00 1.900e+00 1.900e+00 1.900e+00 1.900e+00 1.900e+00 1.900e+00 1.900e+00 1.900e+00 1.900e+00 1.900e+00 1.900e+00 1.900e+00 1.900e+00 1.900e+00 1.900e+00 1.900e+00 1.900e+00 1.900e+00 1.900e+00 1.900e+00 1.900e+00 1.900e+00 1.900e+00 1.900e+00 1.900e+00 1.900e+00 1.900e+00 1.900e+00 1.900e+00 1.900e+00 1.900e+00 1.900e+00 1.900e+00 1.900e+00 1.900e+00 1.900e+00 1.900e+00 1.900e+00 1.900e+00 1.900e+00 1.900e+00 1.900e+00 1.900e+00 1.900e+00 1.900e+00 1.900e+00 1.900e+00 1.900e+00 1.900e+00 1.900e+00 1.900e+00 1.900e+00 1.900e+00 1.900e+00 1.900e+00 1.900e+00 1.900e+00 1.900e+00 1.900e+00 1.900e+00 1.900e+00 1.900e+00 1.900e+00 1.900e+00 1.900e+00 1.900e+00 1.900e+00 1.900e+00 1.900e+00 1.900e+00 1.900e+00 1.900e+00 1.900e+00 1.900e+00 1.900e+00 1.900e+00 1.900e+00 1.900e+00 1.900e+00 1.900e+00 1.900e+00 1.900e+00 1.900e+00 1.900e+00 1.900e+00 1.900e+00 1.900e+00 1.900e+00 1.900e+00 1.900e+00 1.900e+00 1.900e+00 1.900e+00 1.900e+00 1.900e+00 1.900e+00 1.900e+00 1.900e+00 1.900e+00 1.900e+00 1.900e+00 1.900e+00 1.900e+00 1.900e+00 1.900e+00 1.900e+00 1.900e+00 1.900e+00 1.900e+00 1.900e+00 1.900e+00 1.900e+00 1.900e+00 1.900e+00 1.900e+00 1.900e+00 1.900e+00 1.900e+00 1.900e+00 1.900e+00 1.900e+00 1.900e+00 1.900e+00 1.900e+00 1.900e+00 1.900e+00 1.900e+00 1.900e+00 1.900e+00 1.900e+00 1.900e+00 1.900e+00 1.900e+00 1.900e+00 1.900e+00 1.900e+00 1.900e+00 1.900e+00 1.900e+00 1.900e+00
           </DataArray>
           <DataArray type="Float32" Name="nitrate/Km" NumberOfComponents="1" format="ascii">
 1.610e-02 1.610e-02 1.610e-02 1.610e-02 1.610e-02 1.610e-02 1.610e-02 1.610e-02 1.610e-02 1.610e-02 1.610e-02 1.610e-02 1.610e-02 1.610e-02 1.610e-02 1.610e-02 1.610e-02 1.610e-02 1.610e-02 1.610e-02 1.610e-02 1.610e-02 1.610e-02 1.610e-02 1.610e-02 1.610e-02 1.610e-02 1.610e-02 1.610e-02 1.610e-02 1.610e-02 1.610e-02 1.610e-02 1.610e-02 1.610e-02 1.610e-02 1.610e-02 1.610e-02 1.610e-02 1.610e-02 1.610e-02 1.610e-02 1.610e-02 1.610e-02 1.610e-02 1.610e-02 1.610e-02 1.610e-02 1.610e-02 1.610e-02 1.610e-02 1.610e-02 1.610e-02 1.610e-02 1.610e-02 1.610e-02 1.610e-02 1.610e-02 1.610e-02 1.610e-02 1.610e-02 1.610e-02 1.610e-02 1.610e-02 1.610e-02 1.610e-02 1.610e-02 1.610e-02 1.610e-02 1.610e-02 1.610e-02 1.610e-02 1.610e-02 1.610e-02 1.610e-02 1.610e-02 1.610e-02 1.610e-02 1.610e-02 1.610e-02 1.610e-02 1.610e-02 1.610e-02 1.610e-02 1.610e-02 1.610e-02 1.610e-02 1.610e-02 1.610e-02 1.610e-02 1.610e-02 1.610e-02 1.610e-02 1.610e-02 1.610e-02 1.610e-02 1.610e-02 1.610e-02 1.610e-02 1.610e-02 1.610e-02 1.610e-02 1.610e-02 1.610e-02 1.610e-02 1.610e-02 1.610e-02 1.610e-02 1.610e-02 1.610e-02 1.610e-02 1.610e-02 1.610e-02 1.610e-02 1.610e-02 1.610e-02 1.610e-02 1.610e-02 1.610e-02 1.610e-02 1.610e-02 1.610e-02 1.610e-02 1.610e-02 1.610e-02 1.610e-02 1.610e-02 1.610e-02 1.610e-02 1.610e-02 1.610e-02 1.610e-02 1.610e-02 1.610e-02 1.610e-02 1.610e-02 1.610e-02 1.610e-02 1.610e-02 1.610e-02 1.610e-02 1.610e-02 1.610e-02 1.610e-02 1.610e-02 1.610e-02 1.610e-02 1.610e-02 1.610e-02 1.610e-02 1.610e-02 1.610e-02 1.610e-02 1.610e-02 1.610e-02 1.610e-02 1.610e-02 1.610e-02 1.610e-02 1.610e-02 1.610e-02 1.610e-02 1.610e-02 1.610e-02 1.610e-02 1.610e-02 1.610e-02 1.610e-02 1.610e-02 1.610e-02 1.610e-02 1.610e-02 1.610e-02 1.610e-02 1.610e-02 1.610e-02 1.610e-02 1.610e-02 1.610e-02
           </DataArray>
           <DataArray type="Float32" Name="nitrate/minimalNutrientConcentration" NumberOfComponents="1" format="ascii">
 6.000e+02 6.000e+02 6.000e+02 6.000e+02 6.000e+02 6.000e+02 6.000e+02 6.000e+02 6.000e+02 6.000e+02 6.000e+02 6.000e+02 6.000e+02 6.000e+02 6.000e+02 6.000e+02 6.000e+02 6.000e+02 6.000e+02 6.000e+02 6.000e+02 6.000e+02 6.000e+02 6.000e+02 6.000e+02 6.000e+02 6.000e+02 6.000e+02 6.000e+02 6.000e+02 6.000e+02 6.000e+02 6.000e+02 6.000e+02 6.000e+02 6.000e+02 6.000e+02 6.000e+02 6.000e+02 6.000e+02 6.000e+02 6.000e+02 6.000e+02 6.000e+02 6.000e+02 6.000e+02 6.000e+02 6.000e+02 6.000e+02 6.000e+02 6.000e+02 6.000e+02 6.000e+02 6.000e+02 6.000e+02 6.000e+02 6.000e+02 6.000e+02 6.000e+02 6.000e+02 6.000e+02 6.000e+02 6.000e+02 6.000e+02 6.000e+02 6.000e+02 6.000e+02 6.000e+02 6.000e+02 6.000e+02 6.000e+02 6.000e+02 6.000e+02 6.000e+02 6.000e+02 6.000e+02 6.000e+02 6.000e+02 6.000e+02 6.000e+02 6.000e+02 6.000e+02 6.000e+02 6.000e+02 6.000e+02 6.000e+02 6.000e+02 6.000e+02 6.000e+02 6.000e+02 6.000e+02 6.000e+02 6.000e+02 6.000e+02 6.000e+02 6.000e+02 6.000e+02 6.000e+02 6.000e+02 6.000e+02 6.000e+02 6.000e+02 6.000e+02 6.000e+02 6.000e+02 6.000e+02 6.000e+02 6.000e+02 6.000e+02 6.000e+02 6.000e+02 6.000e+02 6.000e+02 6.000e+02 6.000e+02 6.000e+02 6.000e+02 6.000e+02 6.000e+02 6.000e+02 6.000e+02 6.000e+02 6.000e+02 6.000e+02 6.000e+02 6.000e+02 6.000e+02 6.000e+02 6.000e+02 6.000e+02 6.000e+02 6.000e+02 6.000e+02 6.000e+02 6.000e+02 6.000e+02 6.000e+02 6.000e+02 6.000e+02 6.000e+02 6.000e+02 6.000e+02 6.000e+02 6.000e+02 6.000e+02 6.000e+02 6.000e+02 6.000e+02 6.000e+02 6.000e+02 6.000e+02 6.000e+02 6.000e+02 6.000e+02 6.000e+02 6.000e+02 6.000e+02 6.000e+02 6.000e+02 6.000e+02 6.000e+02 6.000e+02 6.000e+02 6.000e+02 6.000e+02 6.000e+02 6.000e+02 6.000e+02 6.000e+02 6.000e+02 6.000e+02 6.000e+02 6.000e+02 6.000e+02 6.000e+02 6.000e+02 6.000e+02 6.000e+02 6.000e+02
           </DataArray>
           <DataArray type="Float32" Name="nitrate/nutrientConcentrationAtTheRootSurface" NumberOfComponents="1" format="ascii">
 2.698e-01 2.790e-01 3.158e-01 3.883e-01 4.360e-01 4.758e-01 5.502e-01 6.022e-01 2.698e-01 2.631e-01 3.223e-01 3.820e-01 4.134e-01 4.994e-01 5.436e-01 6.106e-01 2.698e-01 2.938e-01 3.395e-01 3.958e-01 4.621e-01 5.110e-01 5.592e-01 6.241e-01 2.698e-01 2.928e-01 3.133e-01 3.910e-01 4.244e-01 5.004e-01 5.628e-01 6.169e-01 2.777e-01 2.777e-01 2.777e-01 2.777e-01 2.697e-01 2.829e-01 2.698e-01 2.051e-01 1.693e-01 1.245e-01 7.594e-02 0.000e+00 0.000e+00 0.000e+00 2.687e-01 2.706e-01 2.665e-01 2.849e-01 3.535e-01 2.415e-01 2.740e-01 3.091e-01 2.412e-01 2.834e-01 3.623e-01 2.430e-01 2.865e-01 2.463e-01 2.629e-01 3.363e-01 2.495e-01 2.578e-01 2.555e-01 3.053e-01 2.598e-01 2.767e-01 2.610e-01 3.027e-01 2.637e-01 3.203e-01 2.659e-01 3.023e-01 2.643e-01 2.806e-01 2.929e-01 2.677e-01 3.493e-01 2.728e-01 2.762e-01 2.780e-01 3.585e-01 2.900e-01 3.439e-01 3.073e-01 3.266e-01 3.165e-01 3.541e-01 3.238e-01 3.246e-01 3.297e-01 3.683e-01 3.355e-01 3.683e-01 3.398e-01 3.328e-01 2.611e-01 2.679e-01 3.208e-01 3.427e-01 3.405e-01 3.518e-01 4.249e-01 3.586e-01 4.498e-01 3.764e-01 4.323e-01 3.898e-01 4.538e-01 4.028e-01 4.137e-01 4.232e-01 4.283e-01 4.285e-01 4.331e-01 2.570e-01 2.654e-01 3.299e-01 4.354e-01 4.447e-01 4.533e-01 4.644e-01 4.747e-01 4.843e-01 4.915e-01 4.962e-01 4.996e-01 5.017e-01 2.523e-01 2.667e-01 5.074e-01 5.152e-01 5.217e-01 5.271e-01 5.323e-01 5.366e-01 5.398e-01 5.420e-01 5.432e-01 5.452e-01 2.479e-01 2.750e-01 3.161e-01 5.463e-01 5.513e-01 5.539e-01 5.553e-01 2.436e-01 2.737e-01 2.424e-01 2.710e-01 2.415e-01 2.714e-01 5.011e-01 2.697e-01 2.456e-01 2.467e-01 2.690e-01 3.307e-01 3.945e-01 4.466e-01 5.008e-01 5.386e-01 5.548e-01 5.492e-01 5.345e-01 5.300e-01 5.165e-01 5.468e-01 5.487e-01 5.349e-01 5.114e-01 4.869e-01 4.515e-01 4.373e-01 4.544e-01 4.605e-01 4.653e-01
           </DataArray>
           <DataArray type="Float32" Name="nitrate/optimalNutrientConcentration" NumberOfComponents="1" format="ascii">
 1.200e+03 1.200e+03 1.200e+03 1.200e+03 1.200e+03 1.200e+03 1.200e+03 1.200e+03 1.200e+03 1.200e+03 1.200e+03 1.200e+03 1.200e+03 1.200e+03 1.200e+03 1.200e+03 1.200e+03 1.200e+03 1.200e+03 1.200e+03 1.200e+03 1.200e+03 1.200e+03 1.200e+03 1.200e+03 1.200e+03 1.200e+03 1.200e+03 1.200e+03 1.200e+03 1.200e+03 1.200e+03 1.200e+03 1.200e+03 1.200e+03 1.200e+03 1.200e+03 1.200e+03 1.200e+03 1.200e+03 1.200e+03 1.200e+03 1.200e+03 1.200e+03 1.200e+03 1.200e+03 1.200e+03 1.200e+03 1.200e+03 1.200e+03 1.200e+03 1.200e+03 1.200e+03 1.200e+03 1.200e+03 1.200e+03 1.200e+03 1.200e+03 1.200e+03 1.200e+03 1.200e+03 1.200e+03 1.200e+03 1.200e+03 1.200e+03 1.200e+03 1.200e+03 1.200e+03 1.200e+03 1.200e+03 1.200e+03 1.200e+03 1.200e+03 1.200e+03 1.200e+03 1.200e+03 1.200e+03 1.200e+03 1.200e+03 1.200e+03 1.200e+03 1.200e+03 1.200e+03 1.200e+03 1.200e+03 1.200e+03 1.200e+03 1.200e+03 1.200e+03 1.200e+03 1.200e+03 1.200e+03 1.200e+03 1.200e+03 1.200e+03 1.200e+03 1.200e+03 1.200e+03 1.200e+03 1.200e+03 1.200e+03 1.200e+03 1.200e+03 1.200e+03 1.200e+03 1.200e+03 1.200e+03 1.200e+03 1.200e+03 1.200e+03 1.200e+03 1.200e+03 1.200e+03 1.200e+03 1.200e+03 1.200e+03 1.200e+03 1.200e+03 1.200e+03 1.200e+03 1.200e+03 1.200e+03 1.200e+03 1.200e+03 1.200e+03 1.200e+03 1.200e+03 1.200e+03 1.200e+03 1.200e+03 1.200e+03 1.200e+03 1.200e+03 1.200e+03 1.200e+03 1.200e+03 1.200e+03 1.200e+03 1.200e+03 1.200e+03 1.200e+03 1.200e+03 1.200e+03 1.200e+03 1.200e+03 1.200e+03 1.200e+03 1.200e+03 1.200e+03 1.200e+03 1.200e+03 1.200e+03 1.200e+03 1.200e+03 1.200e+03 1.200e+03 1.200e+03 1.200e+03 1.200e+03 1.200e+03 1.200e+03 1.200e+03 1.200e+03 1.200e+03 1.200e+03 1.200e+03 1.200e+03 1.200e+03 1.200e+03 1.200e+03 1.200e+03 1.200e+03 1.200e+03 1.200e+03 1.200e+03 1.200e+03 1.200e+03 1.200e+03 1.200e+03
           </DataArray>
           <DataArray type="Float32" Name="nitrate/rootSegmentMinimalNutrientContent" NumberOfComponents="1" format="ascii">
 1.635e-01 1.811e-01 1.406e-01 1.646e-01 1.230e-01 1.337e-01 1.443e-01 7.615e-02 1.635e-01 1.811e-01 1.406e-01 1.646e-01 1.230e-01 1.337e-01 1.443e-01 7.615e-02 1.635e-01 1.811e-01 1.406e-01 1.646e-01 1.230e-01 1.337e-01 1.443e-01 7.615e-02 1.635e-01 1.811e-01 1.406e-01 1.646e-01 1.230e-01 1.337e-01 1.443e-01 7.615e-02 9.025e-02 9.025e-02 9.025e-02 9.025e-02 6.064e+00 5.477e+00 9.071e+00 4.653e+00 4.616e+00 6.835e+00 6.464e+00 6.546e+00 6.432e+00 1.821e+00 3.476e-02 3.186e-02 3.380e-02 3.460e-02 1.571e-02 3.667e-02 3.357e-02 6.710e-03 3.331e-02 3.491e-02 3.172e-03 3.552e-02 2.444e-02 3.286e-02 3.407e-02 6.809e-03 3.487e-02 1.715e-02 3.555e-02 3.292e-02 3.483e-02 2.492e-02 3.285e-02 3.302e-02 3.524e-02 1.562e-02 3.522e-02 2.276e-02 3.659e-02 3.563e-02 5.933e-03 3.681e-02 1.742e-02 3.493e-02 9.798e-03 3.363e-02 1.706e-02 3.732e-02 1.964e-02 3.538e-02 1.934e-02 3.366e-02 1.914e-02 3.449e-02 1.549e-02 3.452e-02 1.180e-02 3.351e-02 1.188e-02 3.329e-02 1.227e-02 3.684e-02 3.715e-02 6.187e-03 3.326e-02 5.351e-03 3.461e-02 9.435e-03 3.518e-02 6.075e-03 3.397e-02 6.091e-03 3.299e-02 6.149e-03 3.196e-02 3.460e-02 3.476e-02 3.324e-03 3.614e-02 3.205e-02 3.486e-02 3.646e-02 6.072e-03 2.944e-02 2.878e-02 2.593e-02 2.687e-02 2.661e-02 2.105e-02 2.091e-02 2.221e-02 1.974e-02 2.009e-02 3.471e-02 3.191e-02 1.761e-02 1.615e-02 1.674e-02 1.339e-02 1.441e-02 1.112e-02 1.172e-02 8.023e-03 8.767e-03 6.928e-03 3.443e-02 3.566e-02 9.717e-03 6.055e-03 3.859e-03 2.442e-03 1.385e-03 3.482e-02 2.450e-02 3.544e-02 3.612e-02 3.359e-02 3.552e-02 3.239e-02 3.586e-01 3.469e-01 3.360e-01 3.259e-01 3.165e-01 3.078e-01 2.997e-01 2.923e-01 2.860e-01 2.808e-01 2.768e-01 2.734e-01 2.703e-01 2.674e-01 2.649e-01 2.626e-01 2.606e-01 2.588e-01 2.573e-01 2.561e-01 2.551e-01 2.544e-01 2.539e-01 8.457e-02
           </DataArray>
           <DataArray type="Float32" Name="nitrate/rootSegmentNutrientUptake" NumberOfComponents="1" format="ascii">
 0.000e+00 2.278e-01 1.848e-01 1.592e-01 1.191e-01 8.844e-02 5.593e-02 1.467e-02 0.000e+00 2.182e-01 1.858e-01 1.583e-01 1.137e-01 9.167e-02 5.547e-02 1.467e-02 0.000e+00 2.327e-01 1.919e-01 1.619e-01 1.239e-01 9.335e-02 5.661e-02 1.468e-02 0.000e+00 2.302e-01 1.809e-01 1.615e-01 1.174e-01 9.181e-02 5.687e-02 1.468e-02 0.000e+00 0.000e+00 0.000e+00 0.000e+00 0.000e+00 6.013e-01 5.533e-01 4.395e-01 3.758e-01 3.071e-01 2.128e-01 0.000e+00 0.000e+00 0.000e+00 0.000e+00 9.078e-02 0.000e+00 1.486e-01 2.029e-02 0.000e+00 9.933e-02 4.304e-03 0.000e+00 9.656e-02 1.354e-03 0.000e+00 5.243e-02 0.000e+00 9.785e-02 4.374e-03 0.000e+00 2.929e-02 0.000e+00 7.535e-02 0.000e+00 5.058e-02 0.000e+00 7.538e-02 0.000e+00 2.350e-02 0.000e+00 4.142e-02 0.000e+00 1.171e-01 3.798e-03 0.000e+00 2.628e-02 0.000e+00 1.045e-02 0.000e+00 2.576e-02 0.000e+00 2.964e-02 0.000e+00 2.914e-02 0.000e+00 2.891e-02 0.000e+00 2.000e-02 0.000e+00 1.273e-02 0.000e+00 1.282e-02 0.000e+00 1.320e-02 0.000e+00 1.181e-01 3.969e-03 0.000e+00 3.452e-03 0.000e+00 8.172e-03 0.000e+00 3.947e-03 0.000e+00 3.955e-03 0.000e+00 3.999e-03 0.000e+00 0.000e+00 0.000e+00 1.441e-03 0.000e+00 0.000e+00 0.000e+00 1.165e-01 3.898e-03 0.000e+00 0.000e+00 0.000e+00 0.000e+00 0.000e+00 0.000e+00 0.000e+00 0.000e+00 0.000e+00 0.000e+00 0.000e+00 8.427e-02 0.000e+00 0.000e+00 0.000e+00 0.000e+00 0.000e+00 0.000e+00 0.000e+00 0.000e+00 0.000e+00 0.000e+00 0.000e+00 1.217e-01 8.317e-03 0.000e+00 0.000e+00 0.000e+00 0.000e+00 0.000e+00 5.767e-02 0.000e+00 9.165e-02 0.000e+00 9.108e-02 0.000e+00 0.000e+00 6.632e-01 6.697e-01 6.773e-01 7.003e-01 7.149e-01 7.021e-01 6.908e-01 6.972e-01 6.689e-01 6.089e-01 5.462e-01 4.974e-01 4.456e-01 4.499e-01 4.143e-01 3.638e-01 3.062e-01 2.524e-01 1.966e-01 1.533e-01 1.122e-01 6.343e-02 1.224e-02
           </DataArray>
           <DataArray type="Float32" Name="nitrate/rootSegmentOptimalNutrientContent" NumberOfComponents="1" format="ascii">
 3.270e-01 3.621e-01 2.812e-01 3.291e-01 2.460e-01 2.673e-01 2.886e-01 1.523e-01 3.270e-01 3.621e-01 2.812e-01 3.291e-01 2.460e-01 2.673e-01 2.886e-01 1.523e-01 3.270e-01 3.621e-01 2.812e-01 3.291e-01 2.460e-01 2.673e-01 2.886e-01 1.523e-01 3.270e-01 3.621e-01 2.812e-01 3.291e-01 2.460e-01 2.673e-01 2.886e-01 1.523e-01 1.805e-01 1.805e-01 1.805e-01 1.805e-01 1.213e+01 1.095e+01 1.814e+01 9.306e+00 9.233e+00 1.367e+01 1.293e+01 1.309e+01 1.286e+01 3.643e+00 6.953e-02 6.373e-02 6.760e-02 6.921e-02 3.143e-02 7.335e-02 6.714e-02 1.342e-02 6.663e-02 6.982e-02 6.343e-03 7.105e-02 4.889e-02 6.572e-02 6.813e-02 1.362e-02 6.974e-02 3.430e-02 7.110e-02 6.584e-02 6.966e-02 4.985e-02 6.570e-02 6.604e-02 7.047e-02 3.125e-02 7.043e-02 4.553e-02 7.319e-02 7.125e-02 1.187e-02 7.362e-02 3.484e-02 6.985e-02 1.960e-02 6.726e-02 3.412e-02 7.464e-02 3.927e-02 7.075e-02 3.867e-02 6.732e-02 3.828e-02 6.897e-02 3.099e-02 6.904e-02 2.360e-02 6.702e-02 2.377e-02 6.658e-02 2.453e-02 7.368e-02 7.430e-02 1.237e-02 6.652e-02 1.070e-02 6.922e-02 1.887e-02 7.036e-02 1.215e-02 6.795e-02 1.218e-02 6.598e-02 1.230e-02 6.392e-02 6.921e-02 6.951e-02 6.648e-03 7.228e-02 6.409e-02 6.972e-02 7.292e-02 1.214e-02 5.888e-02 5.757e-02 5.185e-02 5.374e-02 5.321e-02 4.211e-02 4.182e-02 4.443e-02 3.948e-02 4.017e-02 6.942e-02 6.381e-02 3.523e-02 3.229e-02 3.348e-02 2.678e-02 2.883e-02 2.225e-02 2.344e-02 1.605e-02 1.753e-02 1.386e-02 6.886e-02 7.131e-02 1.943e-02 1.211e-02 7.719e-03 4.884e-03 2.770e-03 6.963e-02 4.901e-02 7.089e-02 7.224e-02 6.719e-02 7.104e-02 6.478e-02 7.172e-01 6.939e-01 6.721e-01 6.518e-01 6.330e-01 6.155e-01 5.994e-01 5.847e-01 5.720e-01 5.617e-01 5.535e-01 5.467e-01 5.405e-01 5.349e-01 5.298e-01 5.252e-01 5.212e-01 5.176e-01 5.147e-01 5.122e-01 5.102e-01 5.088e-01 5.079e-01 1.691e-01
           </DataArray>
           <DataArray type="Float32" Name="parentRootClassID" NumberOfComponents="1" format="ascii">