<?xml version="1.0"?>
<VTKFile type="UnstructuredGrid" version="0.1" byte_order="LittleEndian">
   <UnstructuredGrid>
      <Piece NumberOfPoints="73250" NumberOfCells="5409">
         <Points>
            <DataArray type="Float32" Name="Position" NumberOfComponents="3" format="ascii">
0.118	-5.034	0.085
0.122	-5.037	0.093
0.120	-5.038	0.102
0.113	-5.037	0.109
0.104	-5.036	0.110
0.096	-5.033	0.106
0.093	-5.030	0.098
0.095	-5.029	0.089
0.102	-5.029	0.082
0.110	-5.031	0.081
-0.085	-5.854	-0.081
-0.081	-5.857	-0.073
-0.082	-5.858	-0.064
-0.088	-5.859	-0.057
-0.098	-5.858	-0.056
-0.106	-5.856	-0.059
-0.110	-5.854	-0.067
-0.109	-5.852	-0.076
-0.103	-5.852	-0.083
-0.094	-5.853	-0.085
-0.126	-6.674	-0.250
-0.121	-6.675	-0.241
-0.123	-6.675	-0.232
-0.129	-6.676	-0.225
-0.138	-6.676	-0.224
-0.146	-6.675	-0.228
-0.151	-6.674	-0.236
-0.150	-6.674	-0.245
-0.143	-6.673	-0.252
-0.134	-6.673	-0.253
-0.111	-7.514	-0.211
-0.108	-7.512	-0.203
-0.109	-7.511	-0.194
-0.116	-7.511	-0.188
-0.125	-7.511	-0.187
-0.134	-7.512	-0.191
-0.137	-7.513	-0.199
-0.136	-7.514	-0.208
-0.129	-7.514	-0.215
-0.120	-7.514	-0.216
-0.076	-8.376	-0.038
-0.073	-8.373	-0.030
-0.075	-8.370	-0.021
-0.082	-8.369	-0.015
-0.091	-8.369	-0.015
-0.099	-8.371	-0.019
-0.102	-8.374	-0.027
-0.100	-8.377	-0.036
-0.093	-8.378	-0.042
-0.084	-8.378	-0.043
-0.058	-8.525	0.029
-0.055	-8.521	0.037
-0.057	-8.518	0.045
-0.065	-8.516	0.051
-0.074	-8.517	0.052
-0.081	-8.520	0.047
-0.085	-8.524	0.040
-0.082	-8.527	0.031
-0.075	-8.529	0.026
-0.066	-8.528	0.025
0.213	-5.099	0.171
0.211	-5.092	0.176
0.207	-5.089	0.184
0.203	-5.092	0.192
0.199	-5.100	0.196
0.199	-5.109	0.195
0.201	-5.116	0.190
0.205	-5.119	0.182
0.210	-5.116	0.175
0.213	-5.108	0.170
0.956	-5.168	0.573
0.954	-5.160	0.578
0.951	-5.158	0.587
0.947	-5.161	0.594
0.943	-5.169	0.598
0.941	-5.178	0.597
0.943	-5.185	0.591
0.946	-5.187	0.583
0.950	-5.184	0.575
0.954	-5.177	0.571
1.695	-5.447	0.894
1.694	-5.440	0.900
1.690	-5.437	0.908
1.685	-5.439	0.915
1.681	-5.446	0.919
1.679	-5.455	0.918
1.680	-5.463	0.913
1.683	-5.466	0.905
1.688	-5.463	0.897
1.693	-5.456	0.893
2.397	-5.589	1.380
2.395	-5.580	1.384
2.390	-5.577	1.391
2.385	-5.578	1.399
2.380	-5.585	1.403
2.379	-5.594	1.404
2.380	-5.602	1.399
2.385	-5.606	1.392
2.391	-5.604	1.385
2.395	-5.598	1.380
2.702	-5.629	1.614
2.700	-5.621	1.618
2.695	-5.617	1.625
2.690	-5.618	1.632
2.685	-5.625	1.637
2.684	-5.634	1.638
2.685	-5.642	1.634
2.690	-5.646	1.627
2.696	-5.645	1.620
2.700	-5.638	1.615
0.923	-6.044	0.815
0.921	-6.035	0.818
0.916	-6.030	0.823
0.909	-6.029	0.829
0.904	-6.034	0.834
0.901	-6.043	0.836
0.903	-6.052	0.834
0.908	-6.058	0.829
0.914	-6.058	0.822
0.920	-6.053	0.817
1.525	-6.088	1.454
1.523	-6.079	1.456
1.518	-6.073	1.461
1.511	-6.072	1.467
1.505	-6.077	1.472
1.502	-6.085	1.474
1.504	-6.094	1.472
1.509	-6.100	1.468
1.516	-6.101	1.462
1.522	-6.096	1.456
2.064	-6.107	2.106
2.064	-6.097	2.107
2.059	-6.091	2.111
2.051	-6.089	2.116
2.045	-6.093	2.121
2.041	-6.102	2.124
2.042	-6.111	2.123
2.047	-6.117	2.119
2.054	-6.119	2.113
2.061	-6.115	2.108
2.586	-6.137	2.827
2.586	-6.127	2.829
2.581	-6.121	2.833
2.574	-6.119	2.838
2.567	-6.123	2.843
2.563	-6.131	2.845
2.563	-6.140	2.844
2.568	-6.147	2.840
2.575	-6.148	2.834
2.582	-6.145	2.830
2.991	-6.202	3.381
2.991	-6.193	3.383
2.986	-6.186	3.387
2.979	-6.185	3.392
2.972	-6.189	3.397
2.968	-6.197	3.399
2.968	-6.206	3.398
2.973	-6.213	3.393
2.980	-6.214	3.388
2.987	-6.210	3.383
2.419	-19.201	2.320
2.421	-19.194	2.325
2.420	-19.184	2.326
2.417	-19.177	2.322
2.412	-19.174	2.315
2.407	-19.176	2.307
2.405	-19.184	2.302
2.406	-19.193	2.301
2.409	-19.201	2.305
2.414	-19.204	2.312
1.714	-19.301	2.763
1.717	-19.294	2.768
1.716	-19.285	2.769
1.712	-19.277	2.765
1.706	-19.274	2.758
1.701	-19.277	2.751
1.699	-19.284	2.746
1.700	-19.293	2.745
1.704	-19.301	2.749
1.709	-19.304	2.755
1.076	-19.412	3.309
1.079	-19.405	3.313
1.079	-19.396	3.314
1.075	-19.388	3.311
1.068	-19.385	3.305
1.061	-19.388	3.299
1.058	-19.395	3.295
1.058	-19.405	3.294
1.063	-19.412	3.297
1.069	-19.415	3.303
0.878	-19.429	3.585
0.883	-19.422	3.589
0.882	-19.412	3.589
0.878	-19.405	3.586
0.870	-19.402	3.581
0.863	-19.405	3.576
0.859	-19.412	3.572
0.859	-19.422	3.572
0.864	-19.429	3.575
0.871	-19.432	3.580
2.424	-19.351	2.317
2.426	-19.344	2.323
2.424	-19.335	2.324
2.420	-19.327	2.321
2.415	-19.324	2.314
2.411	-19.326	2.306
2.409	-19.333	2.300
2.410	-19.342	2.299
2.415	-19.350	2.302
2.420	-19.353	2.309
1.739	-19.537	2.754
1.742	-19.529	2.760
1.740	-19.520	2.761
1.736	-19.513	2.758
1.730	-19.510	2.751
1.725	-19.512	2.744
1.723	-19.519	2.739
1.724	-19.528	2.737
1.728	-19.536	2.740
1.734	-19.539	2.747
1.119	-19.700	3.337
1.122	-19.693	3.342
1.121	-19.684	3.344
1.116	-19.676	3.342
1.109	-19.673	3.336
1.104	-19.676	3.329
1.101	-19.683	3.323
1.103	-19.692	3.322
1.107	-19.699	3.324
1.114	-19.702	3.330
0.503	-19.936	3.876
0.507	-19.936	3.884
0.506	-19.936	3.893
0.499	-19.936	3.900
0.490	-19.936	3.901
0.482	-19.936	3.897
0.478	-19.936	3.889
0.479	-19.936	3.880
0.486	-19.936	3.873
0.495	-19.936	3.872
2.412	-19.478	2.309
2.418	-19.475	2.303
2.427	-19.478	2.299
2.433	-19.485	2.300
2.435	-19.493	2.304
2.432	-19.499	2.310
2.425	-19.502	2.316
2.417	-19.499	2.319
2.411	-19.492	2.319
2.409	-19.484	2.315
2.015	-19.886	1.696
2.022	-19.885	1.691
2.031	-19.889	1.689
2.036	-19.896	1.691
2.037	-19.904	1.696
2.032	-19.909	1.703
2.024	-19.910	1.708
2.016	-19.906	1.709
2.011	-19.899	1.708
2.010	-19.891	1.703
1.699	-20.328	1.067
1.706	-20.326	1.061
1.714	-20.330	1.058
1.720	-20.336	1.059
1.722	-20.344	1.063
1.719	-20.351	1.069
1.712	-20.352	1.075
1.704	-20.349	1.078
1.698	-20.342	1.077
1.696	-20.334	1.073
1.468	-20.520	0.777
1.472	-20.515	0.771
1.479	-20.515	0.765
1.487	-20.520	0.762
1.491	-20.527	0.763
1.492	-20.535	0.768
1.488	-20.540	0.774
1.480	-20.541	0.780
1.473	-20.536	0.783
1.468	-20.528	0.782
2.431	-19.651	2.316
2.431	-19.644	2.322
2.428	-19.635	2.323
2.425	-19.627	2.318
2.423	-19.624	2.310
2.422	-19.626	2.301
2.423	-19.633	2.295
2.425	-19.642	2.294
2.428	-19.650	2.298
2.430	-19.653	2.307
1.610	-19.879	2.468
1.610	-19.872	2.474
1.608	-19.862	2.475
1.606	-19.855	2.470
1.603	-19.852	2.462
1.601	-19.854	2.453
1.602	-19.862	2.447
1.603	-19.871	2.446
1.606	-19.878	2.451
1.609	-19.881	2.459
0.772	-20.024	2.714
0.772	-20.016	2.720
0.771	-20.007	2.720
0.768	-20.000	2.715
0.766	-19.997	2.706
0.764	-20.000	2.698
0.764	-20.007	2.692
0.766	-20.017	2.692
0.768	-20.024	2.697
0.770	-20.027	2.706
0.595	-20.020	2.734
0.603	-20.016	2.734
0.613	-20.018	2.734
0.619	-20.024	2.734
0.621	-20.033	2.734
0.616	-20.042	2.734
0.608	-20.046	2.734
0.599	-20.044	2.734
0.592	-20.038	2.734
0.591	-20.029	2.734
2.442	-19.799	2.307
2.446	-19.790	2.309
2.444	-19.781	2.310
2.438	-19.775	2.311
2.428	-19.774	2.310
2.420	-19.778	2.308
2.416	-19.786	2.306
2.418	-19.795	2.305
2.425	-19.802	2.304
2.434	-19.803	2.305
2.349	-19.953	3.135
2.353	-19.945	3.138
2.351	-19.936	3.140
2.344	-19.930	3.140
2.335	-19.928	3.138
2.327	-19.932	3.136
2.324	-19.940	3.132
2.325	-19.949	3.130
2.332	-19.956	3.130
2.341	-19.957	3.132
2.083	-20.245	3.868
2.087	-20.238	3.872
2.085	-20.229	3.875
2.078	-20.223	3.876
2.069	-20.221	3.873
2.062	-20.224	3.869
2.059	-20.232	3.864
2.061	-20.240	3.861
2.067	-20.247	3.861
2.076	-20.249	3.864
1.902	-20.451	4.300
1.905	-20.444	4.305
1.903	-20.435	4.308
1.896	-20.429	4.308
1.888	-20.427	4.305
1.881	-20.430	4.301
1.877	-20.437	4.296
1.879	-20.446	4.293
1.886	-20.452	4.293
1.895	-20.454	4.295
2.441	-19.951	2.314
2.441	-19.943	2.320
2.439	-19.934	2.321
2.436	-19.927	2.316
2.433	-19.924	2.308
2.431	-19.926	2.300
2.431	-19.933	2.294
2.432	-19.942	2.293
2.435	-19.950	2.297
2.439	-19.953	2.305
1.668	-20.123	2.550
1.669	-20.116	2.555
1.668	-20.106	2.556
1.665	-20.099	2.551
1.662	-20.096	2.543
1.659	-20.099	2.535
1.658	-20.106	2.529
1.659	-20.115	2.529
1.662	-20.123	2.533
1.665	-20.126	2.541
0.896	-20.167	2.858
0.898	-20.160	2.863
0.897	-20.151	2.864
0.894	-20.143	2.860
0.890	-20.140	2.852
0.886	-20.143	2.844
0.885	-20.150	2.838
0.886	-20.160	2.838
0.889	-20.167	2.842
0.893	-20.170	2.850
0.314	-20.294	3.189
0.315	-20.287	3.195
0.314	-20.278	3.196
0.310	-20.270	3.192
0.305	-20.267	3.185
0.301	-20.270	3.177
0.300	-20.277	3.171
0.301	-20.286	3.170
0.305	-20.294	3.174
0.310	-20.297	3.181
2.440	-20.079	2.295
2.442	-20.074	2.303
2.443	-20.075	2.312
2.442	-20.081	2.319
2.440	-20.090	2.321
2.437	-20.098	2.318
2.435	-20.102	2.310
2.435	-20.102	2.301
2.436	-20.096	2.294
2.438	-20.087	2.292
3.235	-20.288	2.231
3.238	-20.284	2.239
3.239	-20.285	2.248
3.239	-20.291	2.254
3.237	-20.300	2.256
3.233	-20.308	2.253
3.230	-20.312	2.245
3.229	-20.311	2.236
3.229	-20.304	2.229
3.232	-20.295	2.227
3.994	-20.559	1.944
3.998	-20.556	1.951
4.001	-20.558	1.960
4.001	-20.564	1.967
3.999	-20.573	1.968
3.995	-20.581	1.965
3.991	-20.584	1.957
3.989	-20.582	1.948
3.988	-20.576	1.942
3.990	-20.567	1.940
4.647	-20.728	1.711
4.651	-20.724	1.719
4.654	-20.726	1.727
4.654	-20.733	1.734
4.652	-20.742	1.735
4.649	-20.750	1.731
4.645	-20.753	1.723
4.643	-20.751	1.715
4.642	-20.745	1.708
4.644	-20.736	1.707
2.454	-20.247	2.304
2.457	-20.239	2.306
2.454	-20.230	2.309
2.447	-20.225	2.310
2.438	-20.224	2.311
2.430	-20.229	2.309
2.427	-20.238	2.307
2.429	-20.246	2.304
2.437	-20.252	2.302
2.446	-20.252	2.302
2.464	-20.495	3.140
2.467	-20.486	3.141
2.464	-20.477	3.143
2.457	-20.472	3.145
2.448	-20.472	3.146
2.440	-20.477	3.145
2.437	-20.485	3.143
2.439	-20.494	3.141
2.447	-20.499	3.140
2.456	-20.500	3.139
2.556	-20.609	3.986
2.559	-20.600	3.987
2.557	-20.591	3.988
2.550	-20.586	3.989
2.540	-20.585	3.990
2.533	-20.590	3.990
2.529	-20.599	3.990
2.531	-20.608	3.989
2.539	-20.613	3.988
2.548	-20.614	3.987
2.571	-20.616	4.157
2.574	-20.608	4.157
2.572	-20.599	4.158
2.565	-20.593	4.158
2.556	-20.592	4.159
2.548	-20.597	4.160
2.544	-20.605	4.160
2.546	-20.614	4.159
2.553	-20.620	4.158
2.563	-20.621	4.158
2.448	-20.400	2.316
2.442	-20.394	2.321
2.438	-20.386	2.320
2.436	-20.379	2.315
2.438	-20.375	2.307
2.442	-20.376	2.299
2.448	-20.382	2.294
2.453	-20.390	2.295
2.455	-20.397	2.300
[...]
         <CellData>
           <DataArray type="Float32" Name="combinedRootClassID" NumberOfComponents="1" format="ascii">
 -1.300e+01 -1.300e+01 -1.300e+01 -1.300e+01 -1.300e+01 -1.300e+01 -1.300e+01 -1.300e+01 -1.300e+01 -1.300e+01 -1.300e+01 -1.300e+01 -1.300e+01 -1.300e+01 -1.300e+01 -1.300e+01 -1.300e+01 -1.300e+01 -1.300e+01 -1.300e+01 -1.300e+01 -1.300e+01 -1.300e+01 -1.300e+01 -1.300e+01 -1.300e+01 -1.300e+01 -1.300e+01 -1.300e+01 -1.300e+01 -1.300e+01 -1.300e+01 -1.300e+01 -1.300e+01 -1.300e+01 -1.300e+01 -1.300e+01 -1.300e+01 -1.300e+01 -1.300e+01 -1.300e+01 -1.300e+01 -1.300e+01 -1.300e+01 -1.300e+01 -1.300e+01 -1.300e+01 -1.300e+01 -1.300e+01 -1.300e+01 -1.300e+01 -1.300e+01 -1.300e+01 -1.300e+01 -1.300e+01 -1.300e+01 -1.300e+01 -1.300e+01 -1.300e+01 -1.300e+01 -1.300e+01 -1.300e+01 -1.300e+01 -1.300e+01 -1.300e+01 -1.300e+01 -1.300e+01 -1.300e+01 -1.300e+01 -1.300e+01 -1.300e+01 -1.300e+01 -1.300e+01 -1.300e+01 -1.300e+01 -1.300e+01 -1.300e+01 -1.300e+01 -1.300e+01 -1.300e+01 -1.300e+01 -1.300e+01 -1.300e+01 -1.300e+01 -1.300e+01 -1.300e+01 -1.300e+01 -1.300e+01 -1.300e+01 -1.300e+01 -1.300e+01 -1.300e+01 -1.300e+01 -1.300e+01 -1.300e+01 -1.300e+01 -1.300e+01 -1.300e+01 -1.300e+01 -1.300e+01 -1.300e+01 -1.300e+01 -1.300e+01 -1.300e+01 -1.300e+01 -1.300e+01 -1.300e+01 -1.300e+01 -1.300e+01 -1.300e+01 -1.300e+01 -1.300e+01 -1.300e+01 -1.300e+01 -1.300e+01 -1.300e+01 -1.300e+01 -1.300e+01 -1.300e+01 -1.300e+01 -1.300e+01 -1.300e+01 -1.300e+01 -1.300e+01 -1.300e+01 -1.300e+01 -1.300e+01 -1.300e+01 -1.300e+01 -1.300e+01 -1.300e+01 -1.300e+01 -1.300e+01 -1.300e+01 -1.300e+01 -1.300e+01 -1.300e+01 -1.300e+01 -1.300e+01 -1.300e+01 -1.300e+01 -1.300e+01 -1.300e+01 -1.300e+01 -1.300e+01 -1.300e+01 -1.300e+01 -1.300e+01 -1.300e+01 -1.300e+01 -1.300e+01 -1.300e+01 -1.300e+01 -1.300e+01 -1.300e+01 -1.300e+01 -1.300e+01 -1.300e+01 -1.300e+01 -1.300e+01 -1.300e+01 -1.300e+01 -1.300e+01 -1.300e+01 -1.300e+01 -1.300e+01 -1.300e+01 -1.300e+01 -1.300e+01 -1.300e+01 -1.300e+01 -1.300e+01 -1.300e+01 -1.300e+01 -1.300e+01 -1.300e+01 -1.300e+01 -1.300e+01 -1.300e+01 -1.300e+01 -1.300e+01 -1.300e+01 -1.300e+01 -1.300e+01 -1.300e+01 -1.300e+01 -1.300e+01 -1.300e+01 -1.300e+01 -1.300e+01 -1.300e+01 -1.300e+01 -1.300e+01 -1.300e+01 -1.300e+01 -1.300e+01 -1.300e+01 -1.300e+01 -1.300e+01 -1.300e+01 -1.300e+01 -1.300e+01 -1.300e+01 -1.300e+01 -1.300e+01 -1.300e+01 -1.300e+01 -1.300e+01 -1.300e+01 -1.300e+01 -1.300e+01 -1.300e+01 -1.300e+01 -1.300e+01 -1.300e+01 -1.300e+01 -1.300e+01 -1.300e+01 -1.300e+01 -1.300e+01 -1.300e+01 -1.300e+01 -1.300e+01 -1.300e+01 -1.300e+01 -1.300e+01 -1.300e+01 -1.300e+01 -1.300e+01 -1.300e+01 -1.300e+01 -1.300e+01 -1.300e+01 -1.300e+01 -1.300e+01 -1.300e+01 -1.300e+01 -1.300e+01 -1.300e+01 -1.300e+01 -1.300e+01 -1.300e+01 -1.300e+01 -1.300e+01 -1.300e+01 -1.300e+01 -1.300e+01 -1.300e+01 -1.300e+01 -1.300e+01 -1.300e+01 -1.300e+01 -1.300e+01 -1.300e+01 -1.300e+01 -1.300e+01 -1.300e+01 -1.300e+01 -1.300e+01 -1.300e+01 -1.300e+01 -1.300e+01 -1.300e+01 -1.300e+01 -1.300e+01 -1.300e+01 -1.300e+01 -1.300e+01 -1.300e+01 -1.300e+01 -1.300e+01 -1.300e+01 -1.300e+01 -1.300e+01 -1.300e+01 -1.300e+01 -1.300e+01 -1.300e+01 -1.300e+01 -1.300e+01 -1.300e+01 -1.300e+01 -1.300e+01 -1.300e+01 -1.300e+01 -1.300e+01 -1.300e+01 -1.300e+01 -1.300e+01 -1.300e+01 -1.300e+01 -1.300e+01 -1.300e+01 -1.300e+01 -1.300e+01 -1.300e+01 -1.300e+01 -1.300e+01 -1.300e+01 -1.300e+01 -1.300e+01 -1.300e+01 -1.300e+01 -1.300e+01 -1.300e+01 -1.300e+01 -1.300e+01 -1.300e+01 -1.300e+01 -1.300e+01 -1.300e+01 -1.300e+01 -1.300e+01 -1.300e+01 -1.300e+01 -1.300e+01 -1.300e+01 -1.300e+01 -1.300e+01 -1.300e+01 -1.300e+01 -1.300e+01 -1.300e+01 -1.300e+01 -1.300e+01 -1.300e+01 -1.300e+01 -1.300e+01 -1.300e+01 -1.300e+01 -1.300e+01 -1.300e+01 -1.300e+01 -1.300e+01 -1.300e+01 -1.300e+01 -1.300e+01 -1.300e+01 -1.300e+01 -1.300e+01 -1.300e+01 -1.300e+01 -1.300e+01 -1.300e+01 -1.300e+01 -1.300e+01 -1.300e+01 -1.300e+01 -1.300e+01 -1.300e+01 -1.300e+01 -1.300e+01 -1.300e+01 -1.300e+01 -1.300e+01 -1.300e+01 -1.300e+01 -1.300e+01 -1.300e+01 -1.300e+01 -1.300e+01 -1.300e+01 -1.300e+01 -1.300e+01 -1.300e+01 -1.300e+01 -1.300e+01 -1.300e+01 -1.300e+01 -1.300e+01 -1.300e+01 -1.300e+01 -1.300e+01 -1.300e+01 -1.300e+01 -1.300e+01 -1.300e+01 -1.300e+01 -1.300e+01 -1.300e+01 -1.300e+01 -1.300e+01 -1.300e+01 -1.300e+01 -1.300e+01 -1.300e+01 -1.300e+01 -1.300e+01 -1.300e+01 -1.300e+01 -1.300e+01 -1.300e+01 -1.300e+01 -1.300e+01 -1.300e+01 -1.300e+01 -1.300e+01 -1.300e+01 -1.300e+01 -1.300e+01 -1.300e+01 -1.300e+01 -1.300e+01 -1.300e+01 -1.300e+01 -1.300e+01 -1.300e+01 -1.300e+01 -1.300e+01 -1.300e+01 -1.300e+01 -1.300e+01 -1.300e+01 -1.300e+01 -1.300e+01 -1.300e+01 -1.300e+01 -1.300e+01 -1.300e+01 -1.300e+01 -1.300e+01 -1.300e+01 -1.300e+01 -1.300e+01 -1.300e+01 -1.300e+01 -1.300e+01 -1.300e+01 -1.300e+01 -1.300e+01 -1.300e+01 -1.300e+01 -1.300e+01 -1.300e+01 -1.300e+01 -1.300e+01 -1.300e+01 -1.300e+01 -1.300e+01 -1.300e+01 -1.300e+01 -1.300e+01 -1.300e+01 -1.300e+01 -1.300e+01 -1.300e+01 -1.300e+01 -1.300e+01 -1.300e+01 -1.300e+01 -1.300e+01 -1.300e+01 -1.300e+01 -1.300e+01 -1.300e+01 -1.300e+01 -1.300e+01 -1.300e+01 -1.300e+01 -1.300e+01 -1.300e+01 -1.300e+01 -1.300e+01 -1.300e+01 -1.300e+01 -1.300e+01 -1.300e+01 -1.300e+01 -1.300e+01 -1.300e+01 -1.300e+01 -1.300e+01 -1.300e+01 -1.300e+01 -1.300e+01 -1.300e+01 -1.300e+01 -1.300e+01 -1.300e+01 -1.300e+01 -1.300e+01 -1.300e+01 -1.300e+01 -1.300e+01 -1.300e+01 -1.300e+01 -1.300e+01 -1.300e+01 -1.300e+01 -1.300e+01 -1.300e+01 -1.300e+01 -1.300e+01 -1.300e+01 -1.300e+01 -1.300e+01 -1.300e+01 -1.300e+01 -1.300e+01 -1.300e+01 -1.300e+01 -1.300e+01 -1.300e+01 -1.300e+01 -1.300e+01 -1.300e+01 -1.300e+01 -1.300e+01 -1.300e+01 -1.300e+01 -1.300e+01 -1.300e+01 -1.300e+01 -1.300e+01 -1.300e+01 -1.300e+01 -1.300e+01 -1.300e+01 -1.300e+01 -1.300e+01 -1.300e+01 -1.300e+01 -1.300e+01 -1.300e+01 -1.300e+01 -1.300e+01 -1.300e+01 -1.300e+01 -1.300e+01 -1.300e+01 -1.300e+01 -1.300e+01 -1.300e+01 -1.300e+01 -1.300e+01 -1.300e+01 -1.300e+01 -1.300e+01 -1.300e+01 -1.300e+01 -1.300e+01 -1.300e+01 -1.300e+01 -1.300e+01 -1.300e+01 -1.300e+01 -1.300e+01 -1.300e+01 -1.300e+01 -1.300e+01 -1.300e+01 -1.300e+01 -1.300e+01 -1.300e+01 -1.300e+01 -1.300e+01 -1.300e+01 -1.300e+01 -1.300e+01 -5.000e+00 -5.000e+00 -5.000e+00 -5.000e+00 -5.000e+00 -5.000e+00 -5.000e+00 -5.000e+00 -5.000e+00 -5.000e+00 -5.000e+00 -5.000e+00 -5.000e+00 -5.000e+00 -5.000e+00 -5.000e+00 -5.000e+00 -5.000e+00 -5.000e+00 -5.000e+00 -5.000e+00 -5.000e+00 -5.000e+00 -5.000e+00 -5.000e+00 -5.000e+00 -5.000e+00 -5.000e+00 -5.000e+00 -5.000e+00 -5.000e+00 -5.000e+00 -5.000e+00 -5.000e+00 -5.000e+00 -5.000e+00 -5.000e+00 -5.000e+00 -5.000e+00 -5.000e+00 -5.000e+00 -5.000e+00 -5.000e+00 -5.000e+00 -5.000e+00 -5.000e+00 -5.000e+00 -5.000e+00 -1.300e+01 -1.300e+01 -1.300e+01 -1.300e+01 -1.300e+01 -1.300e+01 -1.300e+01 -1.300e+01 -1.300e+01 -1.300e+01 -1.300e+01 -1.300e+01 -1.300e+01 -1.300e+01 -1.300e+01 -1.300e+01 -1.300e+01 -1.300e+01 -1.300e+01 -1.300e+01 -1.300e+01 -1.300e+01 -1.300e+01 -1.300e+01 -1.300e+01 -1.300e+01 -1.300e+01 -1.300e+01 -1.300e+01 -1.300e+01 -1.300e+01 -1.300e+01 -1.300e+01 -1.300e+01 -1.300e+01 -1.300e+01 -1.300e+01 -1.300e+01 -1.300e+01 -1.300e+01 -1.300e+01 -1.300e+01 -1.300e+01 -1.300e+01 -1.300e+01 -1.300e+01 -1.300e+01 -1.300e+01 -1.300e+01 -1.300e+01 -1.300e+01 -1.300e+01 -1.300e+01 -1.300e+01 -1.300e+01 -1.300e+01 -1.300e+01 -1.300e+01 -1.300e+01 -1.300e+01 -1.300e+01 -1.300e+01 -1.300e+01 -1.300e+01 -1.300e+01 -1.300e+01 -1.300e+01 -1.300e+01 -1.300e+01 -1.300e+01 -1.300e+01 -1.300e+01 -1.300e+01 -1.300e+01 -1.300e+01 -1.300e+01 -1.300e+01 -1.300e+01 -1.300e+01 -1.300e+01 -1.300e+01 -1.300e+01 -1.300e+01 -1.300e+01 -1.300e+01 -1.300e+01 -1.300e+01 -1.300e+01 -1.300e+01 -1.300e+01 -1.300e+01 -1.300e+01 -1.300e+01 -1.300e+01 -1.300e+01 -1.300e+01 -1.300e+01 -1.300e+01 -1.300e+01 -1.300e+01 -1.300e+01 -1.300e+01 -1.300e+01 -1.300e+01 -1.300e+01 -1.300e+01 -1.300e+01 -1.300e+01 -1.300e+01 -1.300e+01 -1.300e+01 -1.300e+01 -1.300e+01 -1.300e+01 -1.300e+01 -1.300e+01 -1.300e+01 -1.300e+01 -1.300e+01 -1.300e+01 -1.300e+01 -1.300e+01 -1.300e+01 -1.300e+01 -1.300e+01 -1.300e+01 -1.300e+01 -1.300e+01 -1.300e+01 -1.300e+01 -1.300e+01 -1.300e+01 -1.300e+01 -1.300e+01 -1.300e+01 -1.300e+01 -1.300e+01 -1.300e+01 -1.300e+01 -1.300e+01 -1.300e+01 -1.300e+01 -1.300e+01 -1.300e+01 -1.300e+01 -1.300e+01 -1.300e+01 -1.300e+01 -1.300e+01 -1.300e+01 -1.300e+01 -1.300e+01 -1.300e+01 -1.300e+01 -1.300e+01 -1.300e+01 -1.300e+01 -1.300e+01 -1.300e+01 -1.300e+01 -1.300e+01 -1.300e+01 -1.300e+01 -1.300e+01 -1.300e+01 -1.300e+01 -1.300e+01 -1.300e+01 -1.300e+01 -1.300e+01 -1.300e+01 -1.300e+01 -1.300e+01 -1.300e+01 -1.300e+01 -1.300e+01 -1.300e+01 -1.300e+01 -1.300e+01 -1.300e+01 -1.300e+01 -1.300e+01 -1.300e+01 -1.300e+01 -1.300e+01 -1.300e+01 -1.300e+01 -1.300e+01 -1.300e+01 -1.300e+01 -1.300e+01 -1.300e+01 -1.300e+01 -1.300e+01 -1.300e+01 -1.300e+01 -1.300e+01 -1.300e+01 -1.300e+01 -1.300e+01 -1.300e+01 -1.300e+01 -1.300e+01 -1.300e+01 -1.300e+01 -1.300e+01 -1.300e+01 -1.300e+01 -1.300e+01 -1.300e+01 -1.300e+01 -1.300e+01 -1.300e+01 -1.300e+01 -1.300e+01 -1.300e+01 -1.300e+01 -1.300e+01 -1.300e+01 -1.300e+01 -1.300e+01 -1.300e+01 -1.300e+01 -1.300e+01 -1.300e+01 -1.300e+01 -1.300e+01 -1.300e+01 -1.300e+01 -1.300e+01 -1.300e+01 -1.300e+01 -1.300e+01 -1.300e+01 -1.300e+01 -1.300e+01 -1.300e+01 -1.300e+01 -1.300e+01 -1.300e+01 -1.300e+01 -1.300e+01 -1.300e+01 -1.300e+01 -1.300e+01 -1.300e+01 -1.300e+01 -1.300e+01 -1.300e+01 -1.300e+01 -1.300e+01 -1.300e+01 -1.300e+01 -1.300e+01 -1.300e+01 -1.300e+01 -1.300e+01 -1.300e+01 -1.300e+01 -1.300e+01 -1.300e+01 -1.300e+01 -1.300e+01 -1.300e+01 -1.300e+01 -1.300e+01 -1.300e+01 -1.300e+01 -1.300e+01 -1.300e+01 -1.300e+01 -1.300e+01 -1.300e+01 -1.300e+01 -1.300e+01 -1.300e+01 -1.300e+01 -1.300e+01 -1.300e+01 -1.300e+01 -1.300e+01 -1.300e+01 -1.300e+01 -1.300e+01 -1.300e+01 -1.300e+01 -1.300e+01 -1.300e+01 -1.300e+01 -1.300e+01 -1.300e+01 -1.300e+01 -1.300e+01 -1.300e+01 -1.300e+01 -1.300e+01 -1.300e+01 -1.300e+01 -1.300e+01 -1.300e+01 -1.300e+01 -1.300e+01 -1.300e+01 -1.300e+01 -1.300e+01 -1.300e+01 -1.300e+01 -1.300e+01 -1.300e+01 -1.300e+01 -1.300e+01 -1.300e+01 -1.300e+01 -1.300e+01 -1.300e+01 -1.300e+01 -1.300e+01 -1.300e+01 -1.300e+01 -1.300e+01 -1.300e+01 -1.300e+01 -1.300e+01 -1.300e+01 -1.300e+01 -1.300e+01 -1.300e+01 -1.300e+01 -1.300e+01 -1.300e+01 -1.300e+01 -1.300e+01 -1.300e+01 -1.300e+01 -1.300e+01 -1.300e+01 -1.300e+01 -1.300e+01 -1.300e+01 -1.300e+01 -1.300e+01 -1.300e+01 -1.300e+01 -1.300e+01 -1.300e+01 -1.300e+01 -1.300e+01 -1.300e+01 -1.300e+01 -1.300e+01 -1.300e+01 -1.300e+01 -1.300e+01 -1.300e+01 -1.300e+01 -1.300e+01 -1.300e+01 -1.300e+01 -1.300e+01 -1.300e+01 -1.300e+01 -1.300e+01 -1.300e+01 -1.300e+01 -1.300e+01 -1.300e+01 -1.300e+01 -1.300e+01 -1.300e+01 -1.300e+01 -1.300e+01 -1.300e+01 -1.300e+01 -1.300e+01 -1.300e+01 -1.300e+01 -1.300e+01 -1.300e+01 -1.300e+01 -1.300e+01 -1.300e+01 -1.300e+01 -1.300e+01 -1.300e+01 -1.300e+01 -1.300e+01 -1.300e+01 -1.300e+01 -1.300e+01 -1.300e+01 -1.300e+01 -1.300e+01 -1.300e+01 -1.300e+01 -1.300e+01 -1.300e+01 -1.300e+01 -1.300e+01 -1.300e+01 -1.300e+01 -1.300e+01 -1.300e+01 -1.300e+01 -1.300e+01 -1.300e+01 -1.300e+01 -1.300e+01 -1.300e+01 -1.300e+01 -1.300e+01 -1.300e+01 -1.300e+01 -1.300e+01 -1.300e+01 -1.300e+01 -1.300e+01 -1.300e+01 -1.300e+01 -1.300e+01 -1.300e+01 -1.300e+01 -1.300e+01 -1.300e+01 -1.300e+01 -1.300e+01 -1.300e+01 -1.300e+01 -1.300e+01 -1.300e+01 -1.300e+01 -1.300e+01 -1.300e+01 -1.300e+01 -1.300e+01 -1.300e+01 -1.300e+01 -1.300e+01 -1.300e+01 -1.300e+01 -1.300e+01 -1.300e+01 -1.300e+01 -1.300e+01 -1.300e+01 -1.300e+01 -1.300e+01 -1.300e+01 -1.300e+01 -1.300e+01 -1.300e+01 -1.300e+01 -1.300e+01 -1.300e+01 -1.300e+01 -1.300e+01 -1.300e+01 -1.300e+01 -1.300e+01 -1.300e+01 -1.300e+01 -1.300e+01 -1.300e+01 -1.300e+01 -1.300e+01 -1.300e+01 -1.300e+01 -1.300e+01 -1.300e+01 -1.300e+01 -1.300e+01 -1.300e+01 -1.300e+01 -1.300e+01 -1.300e+01 -1.300e+01 -1.300e+01 -1.300e+01 -1.300e+01 -1.300e+01 -1.300e+01 -1.300e+01 -1.300e+01 -1.300e+01 -1.300e+01 -1.300e+01 -1.300e+01 -1.300e+01 -1.300e+01 -1.300e+01 -1.300e+01 -1.300e+01 -1.300e+01 -1.300e+01 -1.300e+01 -1.300e+01 -1.300e+01 -1.300e+01 -1.300e+01 -1.300e+01 -1.300e+01 -1.300e+01 -1.300e+01 -1.300e+01 -1.300e+01 -1.300e+01 -1.300e+01 -1.300e+01 -1.300e+01 -1.300e+01 -1.300e+01 -1.300e+01 -1.300e+01 -1.300e+01 -1.300e+01 -1.300e+01 -1.300e+01 -1.300e+01 -1.300e+01 -1.300e+01 -1.300e+01 -1.300e+01 -1.300e+01 -1.300e+01 -1.300e+01 -1.300e+01 -1.300e+01 -1.300e+01 -1.300e+01 -1.300e+01 -1.300e+01 -1.300e+01 -1.300e+01 -1.300e+01 -1.300e+01 -1.300e+01 -1.300e+01 -1.300e+01 -1.300e+01 -1.300e+01 -1.300e+01 -1.300e+01 -1.300e+01 -1.300e+01 -1.300e+01 -1.300e+01 -1.300e+01 -1.300e+01 -1.300e+01 -1.300e+01 -1.300e+01 -1.300e+01 -1.300e+01 -1.300e+01 -1.300e+01 -1.300e+01 -1.300e+01 -1.300e+01 -1.300e+01 -5.000e+00 -5.000e+00 -5.000e+00 -5.000e+00 -5.000e+00 -5.000e+00 -5.000e+00 -5.000e+00 -5.000e+00 -5.000e+00 -5.000e+00 -5.000e+00 -5.000e+00 -5.000e+00 -5.000e+00 -5.000e+00 -5.000e+00 -5.000e+00 -5.000e+00 -5.000e+00 -5.000e+00 -5.000e+00 -5.000e+00 -5.000e+00 -5.000e+00 -5.000e+00 -5.000e+00 -5.000e+00 -5.000e+00 -5.000e+00 -5.000e+00 -5.000e+00 -5.000e+00 -5.000e+00 -5.000e+00 -5.000e+00 -5.000e+00 -5.000e+00 -5.000e+00 -5.000e+00 -5.000e+00 -5.000e+00 -5.000e+00 -5.000e+00 -5.000e+00 -5.000e+00 -5.000e+00 -5.000e+00 -1.300e+01 -1.300e+01 -1.300e+01 -1.300e+01 -1.300e+01 -1.300e+01 -1.300e+01 -1.300e+01 -1.300e+01 -1.300e+01 -1.300e+01 -1.300e+01 -1.300e+01 -1.300e+01 -1.300e+01 -1.300e+01 -1.300e+01 -1.300e+01 -1.300e+01 -1.300e+01 -1.300e+01 -1.300e+01 -1.300e+01 -1.300e+01 -1.300e+01 -1.300e+01 -1.300e+01 -1.300e+01 -1.300e+01 -1.300e+01 -1.300e+01 -1.300e+01 -1.300e+01 -1.300e+01 -1.300e+01 -1.300e+01 -1.300e+01 -1.300e+01 -1.300e+01 -1.300e+01 -1.300e+01 -1.300e+01 -1.300e+01 -1.300e+01 -1.300e+01 -1.300e+01 -1.300e+01 -1.300e+01 -1.300e+01 -1.300e+01 -1.300e+01 -1.300e+01 -1.300e+01 -1.300e+01 -1.300e+01 -1.300e+01 -1.300e+01 -1.300e+01 -1.300e+01 -1.300e+01 -1.300e+01 -1.300e+01 -1.300e+01 -1.300e+01 -1.300e+01 -1.300e+01 -1.300e+01 -1.300e+01 -1.300e+01 -1.300e+01 -1.300e+01 -1.300e+01 -1.300e+01 -1.300e+01 -1.300e+01 -1.300e+01 -1.300e+01 -1.300e+01 -1.300e+01 -1.300e+01 -1.300e+01 -1.300e+01 -1.300e+01 -1.300e+01 -1.300e+01 -1.300e+01 -1.300e+01 -1.300e+01 -1.300e+01 -1.300e+01 -1.300e+01 -1.300e+01 -1.300e+01 -1.300e+01 -1.300e+01 -1.300e+01 -1.300e+01 -1.300e+01 -1.300e+01 -1.300e+01 -1.300e+01 -1.300e+01 -1.300e+01 -1.300e+01 -1.300e+01 -1.300e+01 -1.300e+01 -1.300e+01 -1.300e+01 -1.300e+01 -1.300e+01 -1.300e+01 -1.300e+01 -1.300e+01 -1.300e+01 -1.300e+01 -1.300e+01 -1.300e+01 -1.300e+01 -1.300e+01 -1.300e+01 -1.300e+01 -1.300e+01 -1.300e+01 -1.300e+01 -1.300e+01 -1.300e+01 -1.300e+01 -1.300e+01 -1.300e+01 -1.300e+01 -1.300e+01 -1.300e+01 -1.300e+01 -1.300e+01 -1.300e+01 -1.300e+01 -1.300e+01 -1.300e+01 -1.300e+01 -1.300e+01 -1.300e+01 -1.300e+01 -1.300e+01 -1.300e+01 -1.300e+01 -1.300e+01 -1.300e+01 -1.300e+01 -1.300e+01 -1.300e+01 -1.300e+01 -1.300e+01 -1.300e+01 -1.300e+01 -1.300e+01 -1.300e+01 -1.300e+01 -1.300e+01 -1.300e+01 -1.300e+01 -1.300e+01 -1.300e+01 -1.300e+01 -1.300e+01 -1.300e+01 -1.300e+01 -1.300e+01 -1.300e+01 -1.300e+01 -1.300e+01 -1.300e+01 -1.300e+01 -1.300e+01 -1.300e+01 -1.300e+01 -1.300e+01 -1.300e+01 -1.300e+01 -1.300e+01 -1.300e+01 -1.300e+01 -1.300e+01 -1.300e+01 -1.300e+01 -1.300e+01 -1.300e+01 -1.300e+01 -1.300e+01 -1.300e+01 -1.300e+01 -1.300e+01 -1.300e+01 -1.300e+01 -1.300e+01 -1.300e+01 -1.300e+01 -1.300e+01 -1.300e+01 -1.300e+01 -1.300e+01 -1.300e+01 -1.300e+01 -1.300e+01 -1.300e+01 -1.300e+01 -1.300e+01 -1.300e+01 -1.300e+01 -1.300e+01 -1.300e+01 -1.300e+01 -1.300e+01 -1.300e+01 -1.300e+01 -1.300e+01 -1.300e+01 -1.300e+01 -1.300e+01 -1.300e+01 -1.300e+01 -1.300e+01 -1.300e+01 -1.300e+01 -1.300e+01 -1.300e+01 -1.300e+01 -1.300e+01 -1.300e+01 -1.300e+01 -1.300e+01 -1.300e+01 -1.300e+01 -1.300e+01 -1.300e+01 -1.300e+01 -1.300e+01 -1.300e+01 -1.300e+01 -1.300e+01 -1.300e+01 -1.300e+01 -1.300e+01 -1.300e+01 -1.300e+01 -1.300e+01 -1.300e+01 -1.300e+01 -1.300e+01 -1.300e+01 -1.300e+01 -1.300e+01 -1.300e+01 -1.300e+01 -1.300e+01 -1.300e+01 -1.300e+01 -1.300e+01 -1.300e+01 -1.300e+01 -1.300e+01 -1.300e+01 -1.300e+01 -1.300e+01 -1.300e+01 -1.300e+01 -1.300e+01 -1.300e+01 -1.300e+01 -1.300e+01 -1.300e+01 -1.300e+01 -1.300e+01 -1.300e+01 -1.300e+01 -1.300e+01 -1.300e+01 -1.300e+01 -1.300e+01 -1.300e+01 -1.300e+01 -1.300e+01 -1.300e+01 -1.300e+01 -1.300e+01 -1.300e+01 -1.300e+01 -1.300e+01 -1.300e+01 -1.300e+01 -1.300e+01 -1.300e+01 -1.300e+01 -1.300e+01 -1.300e+01 -1.300e+01 -1.300e+01 -1.300e+01 -1.300e+01 -1.300e+01 -1.300e+01 -1.300e+01 -1.300e+01 -1.300e+01 -1.300e+01 -1.300e+01 -1.300e+01 -1.300e+01 -1.300e+01 -1.300e+01 -1.300e+01 -1.300e+01 -1.300e+01 -1.300e+01 -1.300e+01 -1.300e+01 -1.300e+01 -1.300e+01 -1.300e+01 -1.300e+01 -1.300e+01 -1.300e+01 -1.300e+01 -1.300e+01 -1.300e+01 -1.300e+01 -1.300e+01 -1.300e+01 -1.300e+01 -1.300e+01 -1.300e+01 -1.300e+01 -1.300e+01 -1.300e+01 -1.300e+01 -1.300e+01 -1.300e+01 -1.300e+01 -1.300e+01 -1.300e+01 -1.300e+01 -1.300e+01 -1.300e+01 -1.300e+01 -1.300e+01 -1.300e+01 -1.300e+01 -1.300e+01 -1.300e+01 -1.300e+01 -1.300e+01 -1.300e+01 -1.300e+01 -1.300e+01 -1.300e+01 -1.300e+01 -1.300e+01 -1.300e+01 -1.300e+01 -1.300e+01 -1.300e+01 -1.300e+01 -1.300e+01 -1.300e+01 -1.300e+01 -1.300e+01 -1.300e+01 -1.300e+01 -1.300e+01 -1.300e+01 -1.300e+01 -1.300e+01 -1.300e+01 -1.300e+01 -1.300e+01 -1.300e+01 -1.300e+01 -1.300e+01 -1.300e+01 -1.300e+01 -1.300e+01 -1.300e+01 -1.300e+01 -1.300e+01 -1.300e+01 -1.300e+01 -1.300e+01 -1.300e+01 -1.300e+01 -1.300e+01 -1.300e+01 -1.300e+01 -1.300e+01 -1.300e+01 -1.300e+01 -1.300e+01 -1.300e+01 -1.300e+01 -1.300e+01 -1.300e+01 -1.300e+01 -1.300e+01 -1.300e+01 -1.300e+01 -1.300e+01 -1.300e+01 -1.300e+01 -1.300e+01 -1.300e+01 -1.300e+01 -1.300e+01 -1.300e+01 -1.300e+01 -1.300e+01 -1.300e+01 -1.300e+01 -1.300e+01 -1.300e+01 -1.300e+01 -1.300e+01 -1.300e+01 -1.300e+01 -1.300e+01 -1.300e+01 -1.300e+01 -1.300e+01 -1.300e+01 -1.300e+01 -1.300e+01 -1.300e+01 -1.300e+01 -1.300e+01 -1.300e+01 -1.300e+01 -1.300e+01 -1.300e+01 -1.300e+01 -1.300e+01 -1.300e+01 -1.300e+01 -1.300e+01 -1.300e+01 -1.300e+01 -1.300e+01 -1.300e+01 -1.300e+01 -1.300e+01 -1.300e+01 -1.300e+01 -1.300e+01 -1.300e+01 -1.300e+01 -1.300e+01 -1.300e+01 -1.300e+01 -1.300e+01 -1.300e+01 -1.300e+01 -1.300e+01 -1.300e+01 -1.300e+01 -1.300e+01 -1.300e+01 -1.300e+01 -1.300e+01 -1.300e+01 -1.300e+01 -1.300e+01 -1.300e+01 -1.300e+01 -1.300e+01 -1.300e+01 -1.300e+01 -1.300e+01 -1.300e+01 -1.300e+01 -1.300e+01 -1.300e+01 -1.300e+01 -1.300e+01 -1.300e+01 -1.300e+01 -1.300e+01 -1.300e+01 -1.300e+01 -1.300e+01 -1.300e+01 -1.300e+01 -1.300e+01 -1.300e+01 -1.300e+01 -1.300e+01 -1.300e+01 -1.300e+01 -1.300e+01 -1.300e+01 -1.300e+01 -1.300e+01 -1.300e+01 -1.300e+01 -1.300e+01 -1.300e+01 -1.300e+01 -1.300e+01 -1.300e+01 -1.300e+01 -1.300e+01 -1.300e+01 -1.300e+01 -1.300e+01 -1.300e+01 -1.300e+01 -1.300e+01 -1.300e+01 -1.300e+01 -1.300e+01 -1.300e+01 -1.300e+01 -1.300e+01 -1.300e+01 -1.300e+01 -1.300e+01 -1.300e+01 -1.300e+01 -1.300e+01 -1.300e+01 -1.300e+01 -1.300e+01 -1.300e+01 -1.300e+01 -1.300e+01 -1.300e+01 -1.300e+01 -1.300e+01 -1.300e+01 -1.300e+01 -1.300e+01 -1.300e+01 -1.300e+01 -1.300e+01 -1.300e+01 -1.300e+01 -1.300e+01 -1.300e+01 -1.300e+01 -1.300e+01 -1.300e+01 -1.300e+01 -1.300e+01 -1.300e+01 -1.300e+01 -1.300e+01 -1.300e+01 -1.300e+01 -1.300e+01 -1.300e+01 -1.300e+01 -1.300e+01 -1.300e+01 -1.300e+01 -1.300e+01 -1.300e+01 -1.300e+01 -1.300e+01 -1.300e+01 -1.300e+01 -5.000e+00 -5.000e+00 -5.000e+00 -5.000e+00 -5.000e+00 -5.000e+00 -5.000e+00 -5.000e+00 -5.000e+00 -5.000e+00 -5.000e+00 -5.000e+00 -5.000e+00 -5.000e+00 -5.000e+00 -5.000e+00 -5.000e+00 -5.000e+00 -5.000e+00 -5.000e+00 -5.000e+00 -5.000e+00 -5.000e+00 -5.000e+00 -5.000e+00 -5.000e+00 -5.000e+00 -5.000e+00