<?xml version="1.0"?>
<VTKFile type="UnstructuredGrid" version="0.1" byte_order="LittleEndian">
   <UnstructuredGrid>
      <Piece NumberOfPoints="810" NumberOfCells="58">
         <Points>
            <DataArray type="Float32" Name="Position" NumberOfComponents="3" format="ascii">
0.003	-5.016	0.022
-0.004	-4.999	0.033
-0.009	-4.978	0.031
-0.011	-4.963	0.017
-0.009	-4.957	-0.003
-0.004	-4.965	-0.022
0.003	-4.982	-0.033
0.008	-5.002	-0.031
0.010	-5.018	-0.017
0.008	-5.023	0.003
-0.503	-5.156	-0.065
-0.509	-5.139	-0.054
-0.515	-5.119	-0.056
-0.517	-5.103	-0.070
-0.515	-5.098	-0.090
-0.509	-5.105	-0.109
-0.503	-5.122	-0.120
-0.498	-5.142	-0.118
-0.496	-5.158	-0.104
-0.498	-5.163	-0.084
0.024	-5.014	-0.001
0.032	-4.996	0.005
0.029	-4.975	0.009
0.014	-4.961	0.009
-0.007	-4.957	0.006
-0.025	-4.966	0.000
-0.034	-4.984	-0.005
-0.030	-5.005	-0.009
-0.015	-5.019	-0.009
0.005	-5.023	-0.006
-0.078	-5.126	0.510
-0.069	-5.108	0.516
-0.073	-5.088	0.520
-0.088	-5.073	0.520
-0.108	-5.070	0.517
-0.127	-5.079	0.511
-0.135	-5.097	0.505
-0.132	-5.117	0.502
-0.117	-5.132	0.501
-0.096	-5.135	0.505
0.008	-4.971	-0.027
0.009	-4.959	-0.010
0.006	-4.958	0.010
0.000	-4.970	0.027
-0.005	-4.989	0.034
-0.009	-5.009	0.027
-0.010	-5.021	0.010
-0.007	-5.022	-0.011
-0.002	-5.010	-0.027
0.004	-4.991	-0.034
0.520	-5.100	0.047
0.521	-5.088	0.064
0.518	-5.087	0.085
0.513	-5.099	0.102
0.507	-5.118	0.108
0.503	-5.138	0.102
0.502	-5.150	0.085
0.505	-5.151	0.064
0.510	-5.139	0.047
0.516	-5.120	0.041
-0.019	-4.963	-0.010
0.001	-4.957	-0.006
0.020	-4.963	-0.001
0.031	-4.980	0.005
0.030	-5.001	0.009
0.017	-5.017	0.009
-0.003	-5.023	0.006
-0.022	-5.017	0.000
-0.033	-5.000	-0.006
-0.032	-4.979	-0.009
0.098	-5.062	-0.521
0.118	-5.056	-0.517
0.137	-5.062	-0.512
0.148	-5.079	-0.506
0.147	-5.100	-0.502
0.134	-5.117	-0.502
0.114	-5.123	-0.505
0.095	-5.116	-0.511
0.084	-5.099	-0.517
0.085	-5.078	-0.520
-0.143	-5.006	0.149
-0.028	-5.000	0.204
0.097	-4.995	0.182
0.185	-4.991	0.090
0.203	-4.991	-0.036
0.143	-4.994	-0.149
0.028	-5.000	-0.204
-0.097	-5.005	-0.182
-0.185	-5.009	-0.090
-0.203	-5.009	0.036
-0.186	-4.045	0.141
-0.073	-4.041	0.197
0.051	-4.037	0.175
0.139	-4.035	0.085
0.157	-4.035	-0.040
0.099	-4.037	-0.152
-0.015	-4.041	-0.208
-0.139	-4.045	-0.186
-0.227	-4.048	-0.096
-0.245	-4.048	0.029
-0.197	-3.563	0.138
-0.085	-3.562	0.195
0.040	-3.560	0.174
0.128	-3.558	0.084
0.147	-3.558	-0.040
0.089	-3.559	-0.152
-0.024	-3.561	-0.209
-0.148	-3.563	-0.188
-0.236	-3.564	-0.098
-0.255	-3.564	0.026
-0.203	-3.003	0.138
-0.091	-3.002	0.195
0.033	-3.001	0.175
0.122	-3.000	0.085
0.141	-2.999	-0.039
0.083	-3.000	-0.151
-0.029	-3.001	-0.207
-0.153	-3.002	-0.187
-0.242	-3.003	-0.098
-0.261	-3.003	0.027
-0.207	-2.403	0.140
-0.095	-2.402	0.197
0.029	-2.402	0.176
0.117	-2.401	0.087
0.136	-2.400	-0.037
0.078	-2.400	-0.149
-0.034	-2.400	-0.205
-0.158	-2.401	-0.185
-0.246	-2.402	-0.095
-0.265	-2.403	0.029
-0.210	-1.803	0.144
-0.098	-1.802	0.200
0.025	-1.802	0.180
0.114	-1.801	0.091
0.132	-1.800	-0.033
0.075	-1.800	-0.144
-0.037	-1.800	-0.201
-0.161	-1.801	-0.181
-0.249	-1.802	-0.091
-0.268	-1.803	0.033
-0.215	-1.202	0.145
-0.103	-1.202	0.202
0.021	-1.201	0.182
0.109	-1.201	0.093
0.128	-1.200	-0.031
0.071	-1.200	-0.142
-0.041	-1.201	-0.199
-0.165	-1.201	-0.179
-0.253	-1.202	-0.090
-0.272	-1.202	0.034
-0.217	-0.602	0.146
-0.105	-0.602	0.202
0.018	-0.601	0.182
0.106	-0.601	0.094
0.126	-0.601	-0.030
0.069	-0.600	-0.141
-0.043	-0.601	-0.197
-0.166	-0.601	-0.177
-0.255	-0.602	-0.089
-0.274	-0.602	0.035
-0.218	-0.002	0.148
-0.107	-0.002	0.204
0.016	-0.002	0.184
0.104	-0.001	0.096
0.123	-0.001	-0.028
0.066	-0.000	-0.139
-0.045	-0.001	-0.195
-0.168	-0.001	-0.175
-0.256	-0.001	-0.087
-0.275	-0.002	0.037
-0.219	0.558	0.150
-0.108	0.558	0.206
0.015	0.559	0.186
0.103	0.559	0.097
0.122	0.560	-0.026
0.065	0.560	-0.137
-0.046	0.559	-0.193
-0.169	0.559	-0.173
-0.257	0.558	-0.085
-0.276	0.558	0.039
-0.223	1.038	0.150
-0.111	1.038	0.206
0.011	1.039	0.186
0.099	1.039	0.097
0.118	1.040	-0.026
0.061	1.040	-0.136
-0.050	1.039	-0.192
-0.173	1.039	-0.173
-0.261	1.038	-0.084
-0.280	1.038	0.039
-0.224	1.758	0.153
-0.113	1.758	0.209
0.010	1.758	0.189
0.097	1.759	0.101
0.116	1.759	-0.022
0.060	1.759	-0.133
-0.051	1.759	-0.189
-0.174	1.759	-0.169
-0.261	1.759	-0.081
-0.281	1.758	0.042
-0.224	2.574	0.155
-0.114	2.574	0.211
0.008	2.574	0.191
0.096	2.575	0.103
0.115	2.575	-0.019
0.058	2.575	-0.129
-0.052	2.576	-0.185
-0.174	2.575	-0.165
-0.261	2.575	-0.077
-0.280	2.575	0.045
0.004	-5.093	-0.008
0.004	-5.087	-0.001
0.001	-5.086	0.008
-0.002	-5.090	0.016
-0.005	-5.098	0.019
-0.007	-5.106	0.017
-0.007	-5.113	0.010
-0.004	-5.114	0.001
-0.001	-5.110	-0.006
0.002	-5.102	-0.010
0.394	-5.212	0.142
0.402	-5.212	0.146
0.411	-5.212	0.145
0.418	-5.212	0.138
0.419	-5.212	0.129
0.415	-5.212	0.121
0.407	-5.212	0.117
0.398	-5.212	0.118
0.391	-5.212	0.125
0.390	-5.212	0.134
0.002	-5.212	0.016
-0.000	-5.206	0.023
-0.004	-5.197	0.024
-0.007	-5.190	0.020
-0.009	-5.186	0.011
-0.008	-5.188	0.002
-0.006	-5.194	-0.004
-0.002	-5.202	-0.006
0.001	-5.210	-0.001
0.003	-5.213	0.007
-0.477	-5.416	0.025
-0.480	-5.410	0.032
-0.483	-5.402	0.033
-0.486	-5.394	0.029
-0.488	-5.390	0.021
-0.488	-5.392	0.012
-0.485	-5.398	0.005
-0.482	-5.406	0.004
-0.478	-5.414	0.008
-0.477	-5.418	0.016
0.005	-6.088	0.059
0.008	-6.084	0.067
0.008	-6.084	0.076
0.007	-6.090	0.083
0.004	-6.099	0.085
0.001	-6.107	0.082
-0.002	-6.111	0.074
-0.002	-6.110	0.065
-0.001	-6.105	0.058
0.002	-6.096	0.055
0.235	-6.172	0.035
0.238	-6.168	0.043
0.238	-6.168	0.052
0.237	-6.174	0.059
0.234	-6.183	0.062
0.231	-6.191	0.058
0.228	-6.195	0.051
0.228	-6.194	0.041
0.229	-6.189	0.034
0.232	-6.180	0.032
-0.005	-6.189	0.083
0.001	-6.183	0.079
0.009	-6.183	0.074
0.017	-6.188	0.072
0.021	-6.196	0.072
0.020	-6.205	0.075
0.014	-6.210	0.079
0.006	-6.211	0.084
-0.002	-6.206	0.086
-0.006	-6.198	0.086
-0.099	-6.238	-0.096
-0.094	-6.232	-0.100
-0.085	-6.232	-0.105
-0.078	-6.237	-0.108
-0.074	-6.245	-0.107
-0.075	-6.254	-0.104
-0.081	-6.259	-0.100
-0.089	-6.260	-0.095
-0.096	-6.255	-0.093
-0.100	-6.247	-0.093
0.014	-6.287	0.077
0.016	-6.282	0.084
0.016	-6.283	0.094
0.015	-6.289	0.101
0.013	-6.298	0.103
0.011	-6.306	0.099
0.009	-6.311	0.091
0.008	-6.310	0.082
0.009	-6.304	0.075
0.011	-6.295	0.073
0.149	-6.326	0.073
0.158	-6.322	0.073
0.167	-6.323	0.073
0.173	-6.330	0.073
0.175	-6.339	0.073
0.170	-6.347	0.073
0.162	-6.352	0.073
0.153	-6.350	0.073
0.147	-6.344	0.073
0.145	-6.334	0.073
0.027	-6.395	0.086
0.025	-6.386	0.089
0.021	-6.381	0.095
0.014	-6.382	0.102
0.009	-6.388	0.107
0.007	-6.397	0.108
0.008	-6.405	0.104
0.013	-6.410	0.098
0.019	-6.410	0.091
0.025	-6.404	0.086
0.115	-6.409	0.164
0.114	-6.400	0.168
0.109	-6.395	0.174
0.103	-6.396	0.181
0.098	-6.402	0.186
0.095	-6.411	0.187
0.097	-6.419	0.183
0.102	-6.424	0.177
0.108	-6.424	0.170
0.113	-6.418	0.165
0.015	-6.484	0.093
0.023	-6.482	0.097
0.030	-6.485	0.101
0.033	-6.493	0.106
0.031	-6.501	0.108
0.025	-6.508	0.108
0.016	-6.510	0.104
0.009	-6.506	0.099
0.006	-6.499	0.095
0.008	-6.490	0.093
0.058	-6.518	0.006
0.066	-6.516	0.010
0.073	-6.519	0.015
0.076	-6.527	0.019
0.074	-6.536	0.021
0.068	-6.542	0.021
0.059	-6.544	0.017
0.052	-6.541	0.012
0.049	-6.533	0.008
0.051	-6.524	0.006
0.017	-6.583	0.097
0.025	-6.581	0.100
0.033	-6.585	0.104
0.036	-6.592	0.108
0.035	-6.601	0.111
0.028	-6.608	0.110
0.020	-6.610	0.107
0.012	-6.607	0.102
0.009	-6.599	0.098
0.011	-6.590	0.096
0.040	-6.600	0.044
0.049	-6.598	0.047
0.056	-6.602	0.052
0.060	-6.609	0.056
0.058	-6.618	0.058
0.052	-6.625	0.057
0.043	-6.627	0.054
0.036	-6.624	0.050
0.032	-6.616	0.046
0.034	-6.607	0.044
0.014	-6.686	0.109
0.021	-6.681	0.105
0.029	-6.682	0.101
0.036	-6.688	0.100
0.039	-6.697	0.101
0.037	-6.705	0.104
0.030	-6.710	0.108
0.021	-6.709	0.111
0.014	-6.703	0.113
0.011	-6.695	0.112
0.003	-6.693	0.081
0.010	-6.688	0.077
0.019	-6.689	0.074
0.026	-6.695	0.073
0.029	-6.703	0.074
0.026	-6.712	0.077
0.019	-6.717	0.081
0.011	-6.716	0.084
0.003	-6.710	0.085
0.001	-6.701	0.084
0.003	-5.312	0.019
0.006	-5.305	0.024
0.005	-5.295	0.025
0.001	-5.288	0.021
-0.006	-5.285	0.015
-0.011	-5.287	0.009
-0.015	-5.295	0.004
-0.014	-5.304	0.003
-0.010	-5.312	0.006
-0.003	-5.315	0.012
-0.346	-5.373	0.353
-0.342	-5.366	0.358
-0.343	-5.357	0.359
-0.348	-5.349	0.356
-0.354	-5.346	0.350
-0.360	-5.349	0.343
-0.363	-5.356	0.338
-0.362	-5.365	0.337
-0.358	-5.373	0.340
-0.352	-5.376	0.347
0.006	-5.408	0.015
0.009	-5.399	0.017
0.006	-5.391	0.020
-0.001	-5.386	0.022
-0.010	-5.386	0.023
-0.018	-5.391	0.022
-0.021	-5.400	0.020
-0.018	-5.408	0.017
-0.011	-5.413	0.015
-0.001	-5.413	0.014
0.051	-5.528	0.439
0.054	-5.520	0.442
0.051	-5.511	0.444
0.044	-5.506	0.446
0.035	-5.506	0.447
0.027	-5.512	0.447
0.024	-5.520	0.445
0.027	-5.529	0.442
0.034	-5.534	0.440
0.044	-5.534	0.439
-0.017	-5.488	0.023
-0.009	-5.485	0.020
-0.000	-5.487	0.018
0.006	-5.494	0.018
0.008	-5.503	0.021
0.003	-5.510	0.025
-0.005	-5.514	0.028
-0.013	-5.511	0.030
-0.020	-5.505	0.029
-0.021	-5.496	0.027
-0.116	-5.606	-0.324
-0.108	-5.603	-0.328
-0.100	-5.605	-0.329
-0.093	-5.612	-0.329
-0.092	-5.620	-0.326
-0.096	-5.628	-0.323
-0.104	-5.631	-0.319
-0.113	-5.629	-0.317
-0.119	-5.622	-0.318
-0.120	-5.613	-0.320
0.004	-5.598	0.020
0.003	-5.590	0.024
-0.001	-5.585	0.031
-0.007	-5.586	0.038
-0.013	-5.592	0.043
-0.016	-5.601	0.042
-0.016	-5.609	0.038
-0.012	-5.613	0.031
-0.005	-5.612	0.024
0.000	-5.606	0.020
0.321	-5.725	0.281
0.320	-5.717	0.286
0.316	-5.712	0.293
0.310	-5.713	0.300
0.304	-5.719	0.304
0.301	-5.728	0.304
0.302	-5.736	0.299
0.306	-5.740	0.292
0.312	-5.739	0.285
0.317	-5.733	0.281
-0.014	-5.687	0.035
-0.005	-5.685	0.033
0.004	-5.688	0.034
0.009	-5.696	0.036
0.008	-5.704	0.039
0.003	-5.711	0.042
-0.006	-5.713	0.044
-0.015	-5.709	0.044
-0.020	-5.702	0.041
-0.020	-5.693	0.038
-0.048	-5.809	-0.286
-0.039	-5.807	-0.288
-0.030	-5.810	-0.288
-0.025	-5.818	-0.286
-0.026	-5.826	-0.282
-0.031	-5.833	-0.279
-0.040	-5.835	-0.277
-0.049	-5.832	-0.278
-0.054	-5.824	-0.280
-0.054	-5.816	-0.283
0.001	-5.811	0.052
0.003	-5.804	0.057
0.002	-5.794	0.058
-0.002	-5.787	0.055
[...]
         <CellData>
           <DataArray type="Float32" Name="combinedRootClassID" NumberOfComponents="1" format="ascii">
 -5.000e+000 -5.000e+000 -5.000e+000 -5.000e+000 -2.000e+000 -2.000e+000 -2.000e+000 -2.000e+000 -2.000e+000 -2.000e+000 -2.000e+000 -2.000e+000 -2.000e+000 -2.000e+000 -2.000e+000 -2.000e+000 -7.000e+000 -7.000e+000 -7.000e+000 -7.000e+000 -7.000e+000 -7.000e+000 -7.000e+000 -7.000e+000 -7.000e+000 -7.000e+000 -7.000e+000 -7.000e+000 -7.000e+000 -7.000e+000 -7.000e+000 -7.000e+000 -7.000e+000 -4.000e+000 -4.000e+000 -4.000e+000 -4.000e+000 -4.000e+000 -4.000e+000 -4.000e+000 -4.000e+000 -4.000e+000 -4.000e+000 -4.000e+000 -4.000e+000 -4.000e+000 -4.000e+000 -4.000e+000 -4.000e+000 -4.000e+000 -4.000e+000 -4.000e+000 -4.000e+000 -4.000e+000 -4.000e+000 -4.000e+000 -4.000e+000 -4.000e+000
           </DataArray>
           <DataArray type="Float32" Name="nitrate/Cmin" NumberOfComponents="1" format="ascii">
 1.000e-003 1.000e-003 1.000e-003 1.000e-003 1.000e-003 1.000e-003 1.000e-003 1.000e-003 1.000e-003 1.000e-003 1.000e-003 1.000e-003 1.000e-003 1.000e-003 1.000e-003 1.000e-003 1.000e-003 1.000e-003 1.000e-003 1.000e-003 1.000e-003 1.000e-003 1.000e-003 1.000e-003 1.000e-003 1.000e-003 1.000e-003 1.000e-003 1.000e-003 1.000e-003 1.000e-003 1.000e-003 1.000e-003 1.000e-003 1.000e-003 1.000e-003 1.000e-003 1.000e-003 1.000e-003 1.000e-003 1.000e-003 1.000e-003 1.000e-003 1.000e-003 1.000e-003 1.000e-003 1.000e-003 1.000e-003 1.000e-003 1.000e-003 1.000e-003 1.000e-003 1.000e-003 1.000e-003 1.000e-003 1.000e-003 1.000e-003 1.000e-003
           </DataArray>
           <DataArray type="Float32" Name="nitrate/Imax" NumberOfComponents="1" format="ascii">
 1.900e+000 1.900e+000 1.900e+000 1.900e+000 1.900e+000 1.900e+000 1.900e+000 1.900e+000 1.900e+000 1.900e+000 1.900e+000 1.900e+000 1.900e+000 1.900e+000 1.900e+000 1.900e+000 1.900e+000 1.900e+000 1.900e+000 1.900e+000 1.900e+000 1.900e+000 1.900e+000 1.900e+000 1.900e+000 1.900e+000 1.900e+000 1.900e+000 1.900e+000 1.900e+000 1.900e+000 1.900e+000 1.900e+000 1.900e+000 1.900e+000 1.900e+000 1.900e+000 1.900e+000 1.900e+000 1.900e+000 1.900e+000 1.900e+000 1.900e+000 1.900e+000 1.900e+000 1.900e+000 1.900e+000 1.900e+000 1.900e+000 1.900e+000 1.900e+000 1.900e+000 1.900e+000 1.900e+000 1.900e+000 1.900e+000 1.900e+000 1.900e+000
           </DataArray>
           <DataArray type="Float32" Name="nitrate/Km" NumberOfComponents="1" format="ascii">
 1.610e-002 1.610e-002 1.610e-002 1.610e-002 1.610e-002 1.610e-002 1.610e-002 1.610e-002 1.610e-002 1.610e-002 1.610e-002 1.610e-002 1.610e-002 1.610e-002 1.610e-002 1.610e-002 1.610e-002 1.610e-002 1.610e-002 1.610e-002 1.610e-002 1.610e-002 1.610e-002 1.610e-002 1.610e-002 1.610e-002 1.610e-002 1.610e-002 1.610e-002 1.610e-002 1.610e-002 1.610e-002 1.610e-002 1.610e-002 1.610e-002 1.610e-002 1.610e-002 1.610e-002 1.610e-002 1.610e-002 1.610e-002 1.610e-002 1.610e-002 1.610e-002 1.610e-002 1.610e-002 1.610e-002 1.610e-002 1.610e-002 1.610e-002 1.610e-002 1.610e-002 1.610e-002 1.610e-002 1.610e-002 1.610e-002 1.610e-002 1.610e-002
           </DataArray>
           <DataArray type="Float32" Name="nitrate/minimalNutrientConcentration" NumberOfComponents="1" format="ascii">
 6.000e+002 6.000e+002 6.000e+002 6.000e+002 6.000e+002 6.000e+002 6.000e+002 6.000e+002 6.000e+002 6.000e+002 6.000e+002 6.000e+002 6.000e+002 6.000e+002 6.000e+002 6.000e+002 6.000e+002 6.000e+002 6.000e+002 6.000e+002 6.000e+002 6.000e+002 6.000e+002 6.000e+002 6.000e+002 6.000e+002 6.000e+002 6.000e+002 6.000e+002 6.000e+002 6.000e+002 6.000e+002 6.000e+002 6.000e+002 6.000e+002 6.000e+002 6.000e+002 6.000e+002 6.000e+002 6.000e+002 6.000e+002 6.000e+002 6.000e+002 6.000e+002 6.000e+002 6.000e+002 6.000e+002 6.000e+002 6.000e+002 6.000e+002 6.000e+002 6.000e+002 6.000e+002 6.000e+002 6.000e+002 6.000e+002 6.000e+002 6.000e+002
           </DataArray>
           <DataArray type="Float32" Name="nitrate/optimalNutrientConcentration" NumberOfComponents="1" format="ascii">
 1.200e+003 1.200e+003 1.200e+003 1.200e+003 1.200e+003 1.200e+003 1.200e+003 1.200e+003 1.200e+003 1.200e+003 1.200e+003 1.200e+003 1.200e+003 1.200e+003 1.200e+003 1.200e+003 1.200e+003 1.200e+003 1.200e+003 1.200e+003 1.200e+003 1.200e+003 1.200e+003 1.200e+003 1.200e+003 1.200e+003 1.200e+003 1.200e+003 1.200e+003 1.200e+003 1.200e+003 1.200e+003 1.200e+003 1.200e+003 1.200e+003 1.200e+003 1.200e+003 1.200e+003 1.200e+003 1.200e+003 1.200e+003 1.200e+003 1.200e+003 1.200e+003 1.200e+003 1.200e+003 1.200e+003 1.200e+003 1.200e+003 1.200e+003 1.200e+003 1.200e+003 1.200e+003 1.200e+003 1.200e+003 1.200e+003 1.200e+003 1.200e+003
           </DataArray>
           <DataArray type="Float32" Name="nitrate/rootSegmentMinimalNutrientContent" NumberOfComponents="1" format="ascii">
 1.094e-001 1.094e-001 1.094e-001 1.094e-001 7.165e+000 3.551e+000 4.125e+000 4.403e+000 4.388e+000 4.374e+000 4.361e+000 4.348e+000 4.047e+000 3.461e+000 5.179e+000 5.815e+000 1.781e-002 2.096e-002 9.901e-003 8.334e-003 6.151e-003 4.761e-003 4.098e-003 2.398e-003 1.200e-003 1.971e-002 1.771e-002 1.520e-002 1.734e-002 1.387e-002 1.267e-002 1.033e-002 9.453e-003 1.965e-001 1.934e-001 1.907e-001 1.883e-001 1.862e-001 1.845e-001 1.830e-001 1.815e-001 1.802e-001 1.789e-001 1.777e-001 1.766e-001 1.756e-001 1.746e-001 1.737e-001 1.729e-001 1.722e-001 1.716e-001 1.710e-001 1.705e-001 1.701e-001 1.697e-001 1.695e-001 1.693e-001 1.692e-001
           </DataArray>
           <DataArray type="Float32" Name="nitrate/rootSegmentOptimalNutrientContent" NumberOfComponents="1" format="ascii">
 2.189e-001 2.189e-001 2.189e-001 2.189e-001 1.433e+001 7.102e+000 8.249e+000 8.805e+000 8.776e+000 8.748e+000 8.721e+000 8.696e+000 8.095e+000 6.921e+000 1.036e+001 1.163e+001 3.561e-002 4.191e-002 1.980e-002 1.667e-002 1.230e-002 9.521e-003 8.196e-003 4.796e-003 2.401e-003 3.941e-002 3.542e-002 3.039e-002 3.468e-002 2.775e-002 2.533e-002 2.066e-002 1.891e-002 3.929e-001 3.868e-001 3.814e-001 3.766e-001 3.725e-001 3.690e-001 3.660e-001 3.631e-001 3.604e-001 3.578e-001 3.554e-001 3.532e-001 3.511e-001 3.492e-001 3.474e-001 3.458e-001 3.444e-001 3.431e-001 3.420e-001 3.410e-001 3.402e-001 3.395e-001 3.390e-001 3.386e-001 3.384e-001
           </DataArray>
           <DataArray type="Float32" Name="parentRootClassID" NumberOfComponents="1" format="ascii">
 -2.000e+000 -2.000e+000 -2.000e+000 -2.000e+000 -3.000e+000 -3.000e+000 -3.000e+000 -3.000e+000 -3.000e+000 -3.000e+000 -3.000e+000 -3.000e+000 -3.000e+000 -3.000e+000 -3.000e+000 -3.000e+000 -4.000e+000 -4.000e+000 -4.000e+000 -4.000e+000 -4.000e+000 -4.000e+000 -4.000e+000 -4.000e+000 -4.000e+000 -4.000e+000 -4.000e+000 -4.000e+000 -4.000e+000 -4.000e+000 -4.000e+000 -4.000e+000 -4.000e+000 -3.000e+000 -3.000e+000 -3.000e+000 -3.000e+000 -3.000e+000 -3.000e+000 -3.000e+000 -3.000e+000 -3.000e+000 -3.000e+000 -3.000e+000 -3.000e+000 -3.000e+000 -3.000e+000 -3.000e+000 -3.000e+000 -3.000e+000 -3.000e+000 -3.000e+000 -3.000e+000 -3.000e+000 -3.000e+000 -3.000e+000 -3.000e+000 -3.000e+000
           </DataArray>
           <DataArray type="Float32" Name="plantID" NumberOfComponents="1" format="ascii">
 6.000e+000 6.000e+000 6.000e+000 6.000e+000 6.000e+000 6.000e+000 6.000e+000 6.000e+000 6.000e+000 6.000e+000 6.000e+000 6.000e+000 6.000e+000 6.000e+000 6.000e+000 6.000e+000 6.000e+000 6.000e+000 6.000e+000 6.000e+000 6.000e+000 6.000e+000 6.000e+000 6.000e+000 6.000e+000 6.000e+000 6.000e+000 6.000e+000 6.000e+000 6.000e+000 6.000e+000 6.000e+000 6.000e+000 6.000e+000 6.000e+000 6.000e+000 6.000e+000 6.000e+000 6.000e+000 6.000e+000 6.000e+000 6.000e+000 6.000e+000 6.000e+000 6.000e+000 6.000e+000 6.000e+000 6.000e+000 6.000e+000 6.000e+000 6.000e+000 6.000e+000 6.000e+000 6.000e+000 6.000e+000 6.000e+000 6.000e+000 6.000e+000
           </DataArray>
           <DataArray type="Float32" Name="plantTypeID" NumberOfComponents="1" format="ascii">
 0.000e+000 0.000e+000 0.000e+000 0.000e+000 0.000e+000 0.000e+000 0.000e+000 0.000e+000 0.000e+000 0.000e+000 0.000e+000 0.000e+000 0.000e+000 0.000e+000 0.000e+000 0.000e+000 0.000e+000 0.000e+000 0.000e+000 0.000e+000 0.000e+000 0.000e+000 0.000e+000 0.000e+000 0.000e+000 0.000e+000 0.000e+000 0.000e+000 0.000e+000 0.000e+000 0.000e+000 0.000e+000 0.000e+000 0.000e+000 0.000e+000 0.000e+000 0.000e+000 0.000e+000 0.000e+000 0.000e+000 0.000e+000 0.000e+000 0.000e+000 0.000e+000 0.000e+000 0.000e+000 0.000e+000 0.000e+000 0.000e+000 0.000e+000 0.000e+000 0.000e+000 0.000e+000 0.000e+000 0.000e+000 0.000e+000 0.000e+000 0.000e+000
           </DataArray>
           <DataArray type="Float32" Name="rootCircumference" NumberOfComponents="1" format="ascii">
 2.136e-001 2.136e-001 2.136e-001 2.136e-001 1.295e+000 1.284e+000 1.281e+000 1.279e+000 1.276e+000 1.274e+000 1.273e+000 1.271e+000 1.269e+000 1.267e+000 1.266e+000 1.263e+000 9.426e-002 9.426e-002 9.425e-002 9.425e-002 9.425e-002 9.425e-002 9.425e-002 9.425e-002 9.425e-002 9.426e-002 9.425e-002 9.425e-002 9.425e-002 9.425e-002 9.425e-002 9.425e-002 9.425e-002 3.047e-001 3.023e-001 3.002e-001 2.983e-001 2.967e-001 2.953e-001 2.941e-001 2.929e-001 2.918e-001 2.908e-001 2.898e-001 2.889e-001 2.881e-001 2.873e-001 2.865e-001 2.859e-001 2.853e-001 2.848e-001 2.843e-001 2.839e-001 2.835e-001 2.832e-001 2.830e-001 2.829e-001 2.828e-001
           </DataArray>
           <DataArray type="Float32" Name="rootClassID" NumberOfComponents="1" format="ascii">
 9.900e+001 9.900e+001 9.900e+001 9.900e+001 -2.000e+000 -2.000e+000 -2.000e+000 -2.000e+000 -2.000e+000 -2.000e+000 -2.000e+000 -2.000e+000 -2.000e+000 -2.000e+000 -2.000e+000 -2.000e+000 9.700e+001 9.700e+001 9.700e+001 9.700e+001 9.700e+001 9.700e+001 9.700e+001 9.700e+001 9.700e+001 9.700e+001 9.700e+001 9.700e+001 9.700e+001 9.700e+001 9.700e+001 9.700e+001 9.700e+001 -4.000e+000 -4.000e+000 -4.000e+000 -4.000e+000 -4.000e+000 -4.000e+000 -4.000e+000 -4.000e+000 -4.000e+000 -4.000e+000 -4.000e+000 -4.000e+000 -4.000e+000 -4.000e+000 -4.000e+000 -4.000e+000 -4.000e+000 -4.000e+000 -4.000e+000 -4.000e+000 -4.000e+000 -4.000e+000 -4.000e+000 -4.000e+000 -4.000e+000
           </DataArray>
           <DataArray type="Float32" Name="rootDiameter" NumberOfComponents="1" format="ascii">
 6.800e-002 6.800e-002 6.800e-002 6.800e-002 4.123e-001 4.087e-001 4.078e-001 4.070e-001 4.063e-001 4.057e-001 4.051e-001 4.045e-001 4.039e-001 4.034e-001 4.030e-001 4.021e-001 3.000e-002 3.000e-002 3.000e-002 3.000e-002 3.000e-002 3.000e-002 3.000e-002 3.000e-002 3.000e-002 3.000e-002 3.000e-002 3.000e-002 3.000e-002 3.000e-002 3.000e-002 3.000e-002 3.000e-002 9.700e-002 9.624e-002 9.556e-002 9.496e-002 9.444e-002 9.400e-002 9.361e-002 9.324e-002 9.289e-002 9.256e-002 9.225e-002 9.196e-002 9.169e-002 9.144e-002 9.121e-002 9.100e-002 9.081e-002 9.064e-002 9.049e-002 9.036e-002 9.025e-002 9.016e-002 9.009e-002 9.004e-002 9.001e-002
           </DataArray>
           <DataArray type="Float32" Name="rootLength2Base" NumberOfComponents="1" format="ascii">
 0.000e+000 0.000e+000 0.000e+000 0.000e+000 0.000e+000 9.600e-001 1.440e+000 2.000e+000 2.600e+000 3.200e+000 3.800e+000 4.400e+000 5.000e+000 5.560e+000 6.040e+000 6.760e+000 0.000e+000 0.000e+000 0.000e+000 0.000e+000 0.000e+000 0.000e+000 0.000e+000 0.000e+000 0.000e+000 0.000e+000 0.000e+000 0.000e+000 0.000e+000 0.000e+000 0.000e+000 0.000e+000 0.000e+000 0.000e+000 4.714e-001 9.428e-001 1.414e+000 1.886e+000 2.357e+000 2.828e+000 3.300e+000 3.771e+000 4.243e+000 4.714e+000 5.185e+000 5.657e+000 6.128e+000 6.600e+000 7.071e+000 7.542e+000 8.014e+000 8.485e+000 8.957e+000 9.428e+000 9.899e+000 1.037e+001 1.084e+001 1.131e+001
           </DataArray>
           <DataArray type="Float32" Name="rootPotentialSecondaryGrowth" NumberOfComponents="1" format="ascii">
 6.800e-002 6.800e-002 6.800e-002 6.800e-002 4.123e-001 4.087e-001 4.078e-001 4.070e-001 4.063e-001 4.057e-001 4.051e-001 4.045e-001 4.039e-001 4.034e-001 4.030e-001 4.021e-001 3.000e-002 3.000e-002 3.000e-002 3.000e-002 3.000e-002 3.000e-002 3.000e-002 3.000e-002 3.000e-002 3.000e-002 3.000e-002 3.000e-002 3.000e-002 3.000e-002 3.000e-002 3.000e-002 3.000e-002 9.700e-002 9.624e-002 9.556e-002 9.496e-002 9.444e-002 9.400e-002 9.361e-002 9.324e-002 9.289e-002 9.256e-002 9.225e-002 9.196e-002 9.169e-002 9.144e-002 9.121e-002 9.100e-002 9.081e-002 9.064e-002 9.049e-002 9.036e-002 9.025e-002 9.016e-002 9.009e-002 9.004e-002 9.001e-002
           </DataArray>
           <DataArray type="Float32" Name="rootSegmentAge" NumberOfComponents="1" format="ascii">
 8.330e-001 8.330e-001 8.330e-001 8.330e-001 5.000e+000 4.400e+000 4.200e+000 4.000e+000 3.800e+000 3.600e+000 3.400e+000 3.200e+000 3.000e+000 2.800e+000 2.600e+000 2.200e+000 7.149e-001 6.725e-001 2.906e-001 2.482e-001 2.058e-001 1.633e-001 1.209e-001 7.849e-002 3.606e-002 6.300e-001 5.876e-001 5.452e-001 5.028e-001 4.603e-001 4.179e-001 3.755e-001 3.331e-001 5.000e+000 4.800e+000 4.600e+000 4.400e+000 4.200e+000 4.000e+000 3.800e+000 3.600e+000 3.400e+000 3.200e+000 3.000e+000 2.800e+000 2.600e+000 2.400e+000 2.200e+000 2.000e+000 1.800e+000 1.600e+000 1.400e+000 1.200e+000 1.000e+000 8.000e-001 6.000e-001 4.000e-001 2.000e-001
           </DataArray>
           <DataArray type="Float32" Name="rootSegmentDryWeight" NumberOfComponents="1" format="ascii">
 1.824e-004 1.824e-004 1.824e-004 1.824e-004 1.194e-002 5.919e-003 6.874e-003 7.338e-003 7.313e-003 7.290e-003 7.268e-003 7.247e-003 6.746e-003 5.768e-003 8.631e-003 9.692e-003 2.968e-005 3.493e-005 1.650e-005 1.389e-005 1.025e-005 7.934e-006 6.830e-006 3.996e-006 2.000e-006 3.284e-005 2.952e-005 2.533e-005 2.890e-005 2.312e-005 2.111e-005 1.722e-005 1.575e-005 3.275e-004 3.223e-004 3.178e-004 3.138e-004 3.104e-004 3.075e-004 3.050e-004 3.026e-004 3.003e-004 2.982e-004 2.962e-004 2.943e-004 2.926e-004 2.910e-004 2.895e-004 2.882e-004 2.870e-004 2.859e-004 2.850e-004 2.842e-004 2.835e-004 2.829e-004 2.825e-004 2.821e-004 2.820e-004
           </DataArray>
           <DataArray type="Float32" Name="rootSegmentLength" NumberOfComponents="1" format="ascii">
 5.343e-001 5.343e-001 5.343e-001 5.343e-001 9.600e-001 4.800e-001 5.600e-001 6.000e-001 6.000e-001 6.000e-001 6.000e-001 6.000e-001 5.600e-001 4.800e-001 7.200e-001 8.162e-001 4.466e-001 5.255e-001 2.483e-001 2.090e-001 1.543e-001 1.194e-001 1.028e-001 6.014e-002 3.011e-002 4.942e-001 4.442e-001 3.811e-001 4.349e-001 3.480e-001 3.177e-001 2.592e-001 2.371e-001 4.714e-001 4.714e-001 4.714e-001 4.714e-001 4.714e-001 4.714e-001 4.714e-001 4.714e-001 4.714e-001 4.714e-001 4.714e-001 4.714e-001 4.714e-001 4.714e-001 4.714e-001 4.714e-001 4.714e-001 4.714e-001 4.714e-001 4.714e-001 4.714e-001 4.714e-001 4.714e-001 4.714e-001 4.714e-001
           </DataArray>
           <DataArray type="Float32" Name="rootSegmentLengthDuration" NumberOfComponents="1" format="ascii">
 1.687e-001 1.687e-001 1.687e-001 1.687e-001 4.480e+000 2.064e+000 2.296e+000 2.340e+000 2.220e+000 2.100e+000 1.980e+000 1.860e+000 1.624e+000 1.296e+000 1.736e+000 1.341e+000 1.596e-001 1.806e-001 4.036e-002 3.015e-002 1.962e-002 9.753e-003 6.215e-003 5.368e-003 2.048e-003 1.596e-001 1.305e-001 1.039e-001 1.093e-001 8.387e-002 7.018e-002 4.865e-002 3.948e-002 2.310e+000 2.216e+000 2.121e+000 2.027e+000 1.933e+000 1.838e+000 1.744e+000 1.650e+000 1.556e+000 1.461e+000 1.367e+000 1.273e+000 1.178e+000 1.084e+000 9.899e-001 8.957e-001 8.014e-001 7.071e-001 6.128e-001 5.185e-001 4.243e-001 3.300e-001 2.357e-001 1.414e-001 4.714e-002
           </DataArray>
           <DataArray type="Float32" Name="rootSegmentSurfaceArea" NumberOfComponents="1" format="ascii">
 1.141e-001 1.141e-001 1.141e-001 1.141e-001 1.238e+000 6.163e-001 7.174e-001 7.672e-001 7.659e-001 7.647e-001 7.635e-001 7.624e-001 7.106e-001 6.084e-001 9.115e-001 1.028e+000 4.209e-002 4.953e-002 2.341e-002 1.970e-002 1.454e-002 1.125e-002 9.688e-003 5.669e-003 2.838e-003 4.658e-002 4.187e-002 3.592e-002 4.099e-002 3.280e-002 2.994e-002 2.443e-002 2.235e-002 1.437e-001 1.425e-001 1.415e-001 1.406e-001 1.399e-001 1.392e-001 1.386e-001 1.381e-001 1.376e-001 1.371e-001 1.366e-001 1.362e-001 1.358e-001 1.354e-001 1.351e-001 1.348e-001 1.345e-001 1.342e-001 1.340e-001 1.338e-001 1.337e-001 1.335e-001 1.334e-001 1.333e-001 1.333e-001
           </DataArray>
           <DataArray type="Float32" Name="rootSegmentVolume" NumberOfComponents="1" format="ascii">
 1.941e-003 1.941e-003 1.941e-003 1.941e-003 1.270e-001 6.296e-002 7.313e-002 7.806e-002 7.780e-002 7.755e-002 7.732e-002 7.710e-002 7.176e-002 6.136e-002 9.182e-002 1.031e-001 3.157e-004 3.715e-004 1.755e-004 1.478e-004 1.091e-004 8.441e-005 7.266e-005 4.251e-005 2.128e-005 3.494e-004 3.140e-004 2.694e-004 3.074e-004 2.460e-004 2.246e-004 1.832e-004 1.676e-004 3.484e-003 3.429e-003 3.381e-003 3.339e-003 3.302e-003 3.271e-003 3.244e-003 3.219e-003 3.195e-003 3.172e-003 3.151e-003 3.131e-003 3.113e-003 3.096e-003 3.080e-003 3.066e-003 3.053e-003 3.042e-003 3.032e-003 3.023e-003 3.016e-003 3.010e-003 3.005e-003 3.002e-003 3.000e-003
           </DataArray>
           <DataArray type="Float32" Name="spatialRootDensity" NumberOfComponents="1" format="ascii">
 1.936e+000 1.936e+000 1.936e+000 1.936e+000 1.776e+000 6.228e-001 0.000e+000 0.000e+000 0.000e+000 0.000e+000 0.000e+000 0.000e+000 0.000e+000 0.000e+000 0.000e+000 0.000e+000 1.958e+000 1.989e+000 1.540e+000 1.443e+000 1.330e+000 1.333e+000 1.118e+000 1.038e+000 9.410e-001 2.033e+000 2.074e+000 2.226e+000 2.227e+000 2.255e+000 2.263e+000 2.389e+000 1.884e+000 1.782e+000 1.842e+000 1.888e+000 6.928e-001 3.391e-001 7.459e-002 0.000e+000 0.000e+000 0.000e+000 0.000e+000 0.000e+000 0.000e+000 0.000e+000 0.000e+000 0.000e+000 0.000e+000 0.000e+000 0.000e+000 0.000e+000 0.000e+000 0.000e+000 0.000e+000 0.000e+000 0.000e+000 0.000e+000
           </DataArray>
         </CellData>
      </Piece>
   </UnstructuredGrid>
</VTKFile>
