<?xml version="1.0"?>
<VTKFile type="UnstructuredGrid" version="0.1" byte_order="LittleEndian">
   <UnstructuredGrid>
      <Piece NumberOfPoints="1600" NumberOfCells="112">
         <Points>
            <DataArray type="Float32" Name="Position" NumberOfComponents="3" format="ascii">
0.008	-5.017	0.018
-0.000	-5.003	0.031
-0.009	-4.984	0.032
-0.014	-4.967	0.021
-0.014	-4.959	0.001
-0.009	-4.963	-0.019
-0.001	-4.977	-0.032
0.007	-4.997	-0.033
0.013	-5.013	-0.021
0.013	-5.021	-0.002
-0.837	-5.380	-0.124
-0.846	-5.368	-0.109
-0.857	-5.351	-0.105
-0.865	-5.334	-0.114
-0.868	-5.324	-0.132
-0.864	-5.324	-0.152
-0.855	-5.336	-0.168
-0.845	-5.354	-0.172
-0.836	-5.371	-0.163
-0.834	-5.381	-0.144
-1.422	-5.803	-0.215
-1.430	-5.796	-0.197
-1.443	-5.782	-0.188
-1.455	-5.765	-0.192
-1.463	-5.753	-0.207
-1.463	-5.749	-0.228
-1.455	-5.756	-0.246
-1.442	-5.770	-0.255
-1.429	-5.787	-0.251
-1.422	-5.799	-0.236
-1.977	-6.226	-0.283
-1.958	-6.226	-0.274
-1.938	-6.226	-0.277
-1.923	-6.226	-0.292
-1.920	-6.226	-0.312
-1.929	-6.226	-0.331
-1.948	-6.226	-0.341
-1.969	-6.226	-0.337
-1.983	-6.226	-0.323
-1.987	-6.226	-0.302
0.024	-5.013	-0.002
0.032	-4.995	0.005
0.028	-4.975	0.010
0.013	-4.961	0.011
-0.008	-4.958	0.008
-0.025	-4.967	0.001
-0.034	-4.985	-0.005
-0.030	-5.005	-0.010
-0.014	-5.019	-0.011
0.006	-5.022	-0.008
-0.159	-5.269	0.885
-0.151	-5.251	0.894
-0.156	-5.232	0.901
-0.172	-5.219	0.904
-0.193	-5.216	0.901
-0.210	-5.225	0.893
-0.218	-5.243	0.884
-0.213	-5.262	0.877
-0.197	-5.275	0.875
-0.176	-5.278	0.878
-0.282	-5.625	1.508
-0.276	-5.609	1.520
-0.282	-5.592	1.530
-0.299	-5.580	1.535
-0.319	-5.578	1.532
-0.336	-5.586	1.523
-0.343	-5.603	1.511
-0.337	-5.620	1.501
-0.320	-5.632	1.497
-0.299	-5.634	1.499
-0.392	-6.028	2.052
-0.385	-6.012	2.065
-0.392	-5.996	2.076
-0.408	-5.984	2.081
-0.429	-5.982	2.078
-0.446	-5.990	2.069
-0.452	-6.006	2.056
-0.446	-6.022	2.045
-0.429	-6.034	2.040
-0.409	-6.036	2.042
0.009	-4.972	-0.028
0.011	-4.960	-0.011
0.008	-4.959	0.010
0.002	-4.970	0.027
-0.005	-4.988	0.034
-0.010	-5.008	0.027
-0.012	-5.020	0.011
-0.010	-5.021	-0.010
-0.004	-5.010	-0.027
0.004	-4.992	-0.034
0.896	-5.270	0.098
0.899	-5.258	0.115
0.897	-5.256	0.136
0.890	-5.267	0.153
0.882	-5.285	0.160
0.875	-5.303	0.154
0.871	-5.316	0.137
0.874	-5.317	0.116
0.880	-5.307	0.099
0.889	-5.289	0.092
1.540	-5.616	0.180
1.544	-5.605	0.197
1.543	-5.603	0.218
1.535	-5.613	0.235
1.524	-5.629	0.242
1.515	-5.647	0.235
1.510	-5.659	0.219
1.512	-5.660	0.198
1.519	-5.651	0.181
1.530	-5.634	0.174
2.117	-5.981	0.250
2.122	-5.970	0.267
2.121	-5.968	0.288
2.113	-5.977	0.305
2.102	-5.994	0.312
2.091	-6.011	0.306
2.086	-6.023	0.289
2.088	-6.024	0.268
2.096	-6.015	0.251
2.107	-5.998	0.244
-0.017	-4.962	-0.012
0.004	-4.957	-0.009
0.022	-4.965	-0.002
0.032	-4.982	0.005
0.029	-5.002	0.010
0.015	-5.018	0.012
-0.005	-5.023	0.008
-0.023	-5.015	0.002
-0.033	-4.998	-0.005
-0.031	-4.978	-0.011
0.188	-5.220	-0.898
0.209	-5.218	-0.895
0.226	-5.226	-0.887
0.234	-5.244	-0.878
0.229	-5.262	-0.870
0.213	-5.276	-0.867
0.192	-5.279	-0.870
0.175	-5.270	-0.878
0.167	-5.253	-0.888
0.173	-5.234	-0.896
0.321	-5.621	-1.505
0.341	-5.621	-1.500
0.356	-5.631	-1.490
0.360	-5.648	-1.477
0.351	-5.664	-1.467
0.332	-5.674	-1.464
0.312	-5.673	-1.469
0.297	-5.663	-1.479
0.294	-5.647	-1.492
0.303	-5.631	-1.502
0.452	-6.048	-2.032
0.452	-6.039	-2.014
0.452	-6.042	-1.993
0.452	-6.057	-1.978
0.452	-6.078	-1.975
0.452	-6.096	-1.984
0.452	-6.106	-2.003
0.452	-6.103	-2.024
0.452	-6.088	-2.039
0.452	-6.067	-2.042
-0.146	-5.006	0.151
-0.029	-5.000	0.208
0.099	-4.994	0.185
0.189	-4.991	0.092
0.207	-4.991	-0.037
0.146	-4.994	-0.151
0.029	-5.000	-0.208
-0.099	-5.006	-0.185
-0.189	-5.009	-0.092
-0.207	-5.009	0.037
-0.188	-4.045	0.144
-0.073	-4.041	0.200
0.053	-4.037	0.178
0.142	-4.034	0.086
0.161	-4.034	-0.041
0.101	-4.037	-0.154
-0.014	-4.041	-0.211
-0.141	-4.045	-0.189
-0.230	-4.048	-0.097
-0.248	-4.048	0.030
-0.199	-3.563	0.140
-0.085	-3.562	0.198
0.041	-3.560	0.177
0.131	-3.558	0.086
0.150	-3.558	-0.041
0.091	-3.559	-0.154
-0.023	-3.561	-0.211
-0.149	-3.563	-0.191
-0.239	-3.564	-0.099
-0.258	-3.564	0.027
-0.205	-3.003	0.140
-0.091	-3.002	0.198
0.035	-3.001	0.177
0.124	-3.000	0.086
0.143	-2.999	-0.040
0.085	-3.000	-0.153
-0.029	-3.001	-0.210
-0.155	-3.002	-0.189
-0.244	-3.003	-0.099
-0.263	-3.003	0.027
-0.209	-2.403	0.142
-0.095	-2.402	0.199
0.030	-2.402	0.178
0.119	-2.401	0.088
0.138	-2.400	-0.037
0.080	-2.400	-0.150
-0.033	-2.400	-0.207
-0.159	-2.401	-0.187
-0.248	-2.402	-0.096
-0.267	-2.403	0.029
-0.212	-1.803	0.145
-0.099	-1.802	0.202
0.026	-1.802	0.182
0.115	-1.801	0.092
0.134	-1.800	-0.033
0.076	-1.800	-0.146
-0.037	-1.800	-0.203
-0.162	-1.801	-0.182
-0.251	-1.802	-0.092
-0.270	-1.803	0.033
-0.216	-1.202	0.146
-0.103	-1.202	0.203
0.022	-1.201	0.183
0.111	-1.201	0.093
0.130	-1.200	-0.031
0.072	-1.200	-0.144
-0.041	-1.201	-0.201
-0.165	-1.201	-0.180
-0.254	-1.202	-0.091
-0.274	-1.202	0.034
-0.218	-0.602	0.147
-0.105	-0.602	0.204
0.019	-0.601	0.184
0.108	-0.601	0.094
0.127	-0.601	-0.030
0.070	-0.600	-0.142
-0.043	-0.601	-0.199
-0.167	-0.601	-0.179
-0.256	-0.602	-0.090
-0.275	-0.602	0.035
-0.219	-0.002	0.149
-0.107	-0.002	0.206
0.017	-0.002	0.186
0.106	-0.001	0.096
0.125	-0.001	-0.028
0.068	-0.000	-0.140
-0.045	-0.001	-0.197
-0.169	-0.001	-0.177
-0.258	-0.001	-0.087
-0.277	-0.002	0.037
-0.220	0.558	0.151
-0.108	0.558	0.207
0.016	0.559	0.187
0.104	0.559	0.098
0.124	0.560	-0.026
0.066	0.560	-0.138
-0.046	0.559	-0.194
-0.170	0.559	-0.174
-0.258	0.558	-0.085
-0.278	0.558	0.039
-0.224	1.038	0.151
-0.112	1.038	0.207
0.012	1.039	0.187
0.100	1.039	0.098
0.120	1.040	-0.026
0.062	1.040	-0.137
-0.050	1.039	-0.194
-0.173	1.039	-0.174
-0.262	1.038	-0.085
-0.281	1.038	0.039
-0.225	1.758	0.153
-0.113	1.758	0.210
0.010	1.758	0.190
0.098	1.759	0.101
0.118	1.759	-0.022
0.061	1.759	-0.133
-0.051	1.760	-0.190
-0.174	1.759	-0.170
-0.262	1.759	-0.081
-0.282	1.758	0.042
-0.224	2.574	0.155
-0.114	2.574	0.211
0.008	2.574	0.191
0.096	2.575	0.103
0.115	2.575	-0.019
0.058	2.575	-0.129
-0.052	2.576	-0.185
-0.174	2.575	-0.165
-0.261	2.575	-0.077
-0.280	2.575	0.045
0.004	-5.093	-0.008
0.003	-5.087	-0.001
0.001	-5.085	0.008
-0.003	-5.090	0.016
-0.005	-5.098	0.019
-0.007	-5.107	0.017
-0.006	-5.113	0.010
-0.004	-5.114	0.001
-0.000	-5.110	-0.006
0.002	-5.102	-0.010
0.763	-5.262	0.225
0.762	-5.255	0.232
0.759	-5.254	0.241
0.756	-5.259	0.248
0.754	-5.267	0.252
0.753	-5.276	0.249
0.755	-5.283	0.243
0.757	-5.284	0.234
0.760	-5.279	0.226
0.762	-5.271	0.223
1.001	-5.276	0.297
0.999	-5.270	0.304
0.996	-5.270	0.313
0.994	-5.275	0.320
0.992	-5.283	0.323
0.992	-5.292	0.321
0.994	-5.298	0.314
0.997	-5.299	0.305
0.999	-5.294	0.298
1.001	-5.285	0.295
0.003	-5.212	0.016
0.001	-5.206	0.022
-0.003	-5.198	0.024
-0.007	-5.190	0.020
-0.009	-5.186	0.012
-0.009	-5.188	0.003
-0.006	-5.193	-0.004
-0.003	-5.202	-0.006
0.001	-5.209	-0.002
0.003	-5.213	0.006
-0.680	-5.529	0.042
-0.682	-5.524	0.049
-0.686	-5.516	0.051
-0.691	-5.508	0.048
-0.694	-5.504	0.040
-0.694	-5.505	0.031
-0.691	-5.510	0.024
-0.687	-5.518	0.021
-0.683	-5.525	0.025
-0.680	-5.530	0.032
-1.128	-5.820	0.070
-1.130	-5.815	0.078
-1.135	-5.808	0.081
-1.140	-5.801	0.079
-1.143	-5.796	0.072
-1.144	-5.796	0.062
-1.142	-5.800	0.055
-1.137	-5.808	0.051
-1.132	-5.815	0.054
-1.129	-5.820	0.061
0.004	-6.087	0.059
0.006	-6.083	0.067
0.007	-6.084	0.076
0.006	-6.091	0.083
0.004	-6.099	0.085
0.002	-6.108	0.081
-0.000	-6.112	0.073
-0.001	-6.110	0.064
-0.001	-6.104	0.057
0.001	-6.095	0.056
0.811	-6.283	-0.054
0.813	-6.278	-0.046
0.813	-6.280	-0.037
0.812	-6.286	-0.030
0.810	-6.294	-0.028
0.808	-6.303	-0.032
0.806	-6.307	-0.040
0.806	-6.306	-0.049
0.807	-6.300	-0.056
0.809	-6.291	-0.058
1.059	-6.338	-0.062
1.061	-6.334	-0.054
1.061	-6.335	-0.044
1.060	-6.340	-0.037
1.058	-6.349	-0.035
1.056	-6.358	-0.039
1.055	-6.362	-0.047
1.054	-6.362	-0.056
1.056	-6.356	-0.063
1.057	-6.347	-0.065
-0.004	-6.194	0.088
-0.001	-6.186	0.084
0.005	-6.182	0.079
0.013	-6.184	0.073
0.018	-6.191	0.070
0.019	-6.200	0.070
0.016	-6.208	0.074
0.010	-6.212	0.079
0.002	-6.210	0.085
-0.003	-6.203	0.088
-0.484	-6.274	-0.532
-0.481	-6.266	-0.536
-0.474	-6.262	-0.541
-0.467	-6.264	-0.547
-0.462	-6.271	-0.550
-0.460	-6.280	-0.549
-0.463	-6.288	-0.546
-0.470	-6.292	-0.540
-0.477	-6.290	-0.535
-0.482	-6.283	-0.532
-0.636	-6.312	-0.729
-0.633	-6.304	-0.733
-0.627	-6.300	-0.739
-0.619	-6.302	-0.744
-0.614	-6.309	-0.747
-0.612	-6.319	-0.747
-0.615	-6.326	-0.743
-0.622	-6.330	-0.737
-0.629	-6.328	-0.732
-0.635	-6.321	-0.729
0.012	-6.286	0.077
0.016	-6.282	0.085
0.018	-6.284	0.094
0.018	-6.291	0.100
0.016	-6.299	0.102
0.012	-6.307	0.098
0.008	-6.311	0.091
0.006	-6.309	0.082
0.006	-6.302	0.075
0.008	-6.293	0.074
0.749	-6.537	-0.170
0.753	-6.533	-0.162
0.755	-6.535	-0.153
0.755	-6.542	-0.147
0.753	-6.551	-0.145
0.749	-6.559	-0.149
0.746	-6.562	-0.156
0.743	-6.560	-0.165
0.743	-6.553	-0.171
0.745	-6.545	-0.173
0.816	-6.557	-0.196
0.820	-6.554	-0.188
0.822	-6.556	-0.180
0.823	-6.563	-0.173
0.821	-6.571	-0.172
0.817	-6.579	-0.175
0.813	-6.582	-0.183
0.810	-6.580	-0.192
0.810	-6.574	-0.198
0.812	-6.565	-0.200
0.026	-6.393	0.085
0.023	-6.385	0.089
0.018	-6.381	0.096
0.013	-6.383	0.103
0.009	-6.390	0.108
0.008	-6.399	0.108
0.011	-6.407	0.105
0.016	-6.411	0.098
0.021	-6.409	0.090
0.025	-6.402	0.085
0.689	-6.413	0.592
0.697	-6.409	0.592
0.706	-6.410	0.592
0.713	-6.416	0.592
0.715	-6.426	0.591
0.711	-6.434	0.591
0.702	-6.438	0.590
0.693	-6.437	0.590
0.686	-6.431	0.591
0.685	-6.422	0.591
0.013	-6.484	0.095
0.022	-6.481	0.097
0.030	-6.484	0.101
0.034	-6.492	0.104
0.033	-6.501	0.106
0.027	-6.508	0.106
0.018	-6.510	0.104
0.010	-6.507	0.100
0.006	-6.499	0.097
0.007	-6.490	0.095
0.249	-6.674	-0.620
0.257	-6.672	-0.618
0.265	-6.675	-0.615
0.270	-6.683	-0.612
0.268	-6.692	-0.610
0.262	-6.698	-0.609
0.253	-6.701	-0.611
0.245	-6.697	-0.614
0.241	-6.690	-0.618
0.242	-6.681	-0.620
0.285	-6.723	-0.779
0.294	-6.721	-0.777
0.302	-6.724	-0.775
0.306	-6.732	-0.771
0.305	-6.741	-0.769
0.298	-6.747	-0.768
0.289	-6.750	-0.769
0.281	-6.746	-0.772
0.277	-6.739	-0.776
[...]
         <CellData>
           <DataArray type="Float32" Name="combinedRootClassID" NumberOfComponents="1" format="ascii">
 -5.000e+000 -5.000e+000 -5.000e+000 -5.000e+000 -5.000e+000 -5.000e+000 -5.000e+000 -5.000e+000 -5.000e+000 -5.000e+000 -5.000e+000 -5.000e+000 -2.000e+000 -2.000e+000 -2.000e+000 -2.000e+000 -2.000e+000 -2.000e+000 -2.000e+000 -2.000e+000 -2.000e+000 -2.000e+000 -2.000e+000 -2.000e+000 -7.000e+000 -7.000e+000 -7.000e+000 -7.000e+000 -7.000e+000 -7.000e+000 -7.000e+000 -7.000e+000 -7.000e+000 -7.000e+000 -7.000e+000 -7.000e+000 -7.000e+000 -7.000e+000 -7.000e+000 -7.000e+000 -7.000e+000 -7.000e+000 -7.000e+000 -7.000e+000 -7.000e+000 -7.000e+000 -7.000e+000 -7.000e+000 -7.000e+000 -7.000e+000 -7.000e+000 -7.000e+000 -7.000e+000 -7.000e+000 -7.000e+000 -7.000e+000 -7.000e+000 -7.000e+000 -7.000e+000 -7.000e+000 -7.000e+000 -7.000e+000 -7.000e+000 -7.000e+000 -7.000e+000 -7.000e+000 -7.000e+000 -7.000e+000 -7.000e+000 -7.000e+000 -7.000e+000 -7.000e+000 -7.000e+000 -7.000e+000 -7.000e+000 -7.000e+000 -7.000e+000 -7.000e+000 -7.000e+000 -7.000e+000 -7.000e+000 -9.000e+000 -4.000e+000 -4.000e+000 -4.000e+000 -4.000e+000 -4.000e+000 -4.000e+000 -4.000e+000 -4.000e+000 -4.000e+000 -4.000e+000 -4.000e+000 -4.000e+000 -4.000e+000 -4.000e+000 -4.000e+000 -4.000e+000 -4.000e+000 -4.000e+000 -4.000e+000 -4.000e+000 -4.000e+000 -4.000e+000 -4.000e+000 -4.000e+000 -4.000e+000 -4.000e+000 -4.000e+000 -4.000e+000 -4.000e+000 -4.000e+000
           </DataArray>
           <DataArray type="Float32" Name="nitrate/Cmin" NumberOfComponents="1" format="ascii">
 1.000e-003 1.000e-003 1.000e-003 1.000e-003 1.000e-003 1.000e-003 1.000e-003 1.000e-003 1.000e-003 1.000e-003 1.000e-003 1.000e-003 1.000e-003 1.000e-003 1.000e-003 1.000e-003 1.000e-003 1.000e-003 1.000e-003 1.000e-003 1.000e-003 1.000e-003 1.000e-003 1.000e-003 1.000e-003 1.000e-003 1.000e-003 1.000e-003 1.000e-003 1.000e-003 1.000e-003 1.000e-003 1.000e-003 1.000e-003 1.000e-003 1.000e-003 1.000e-003 1.000e-003 1.000e-003 1.000e-003 1.000e-003 1.000e-003 1.000e-003 1.000e-003 1.000e-003 1.000e-003 1.000e-003 1.000e-003 1.000e-003 1.000e-003 1.000e-003 1.000e-003 1.000e-003 1.000e-003 1.000e-003 1.000e-003 1.000e-003 1.000e-003 1.000e-003 1.000e-003 1.000e-003 1.000e-003 1.000e-003 1.000e-003 1.000e-003 1.000e-003 1.000e-003 1.000e-003 1.000e-003 1.000e-003 1.000e-003 1.000e-003 1.000e-003 1.000e-003 1.000e-003 1.000e-003 1.000e-003 1.000e-003 1.000e-003 1.000e-003 1.000e-003 1.000e-003 1.000e-003 1.000e-003 1.000e-003 1.000e-003 1.000e-003 1.000e-003 1.000e-003 1.000e-003 1.000e-003 1.000e-003 1.000e-003 1.000e-003 1.000e-003 1.000e-003 1.000e-003 1.000e-003 1.000e-003 1.000e-003 1.000e-003 1.000e-003 1.000e-003 1.000e-003 1.000e-003 1.000e-003 1.000e-003 1.000e-003 1.000e-003 1.000e-003 1.000e-003 1.000e-003
           </DataArray>
           <DataArray type="Float32" Name="nitrate/Imax" NumberOfComponents="1" format="ascii">
 1.900e+000 1.900e+000 1.900e+000 1.900e+000 1.900e+000 1.900e+000 1.900e+000 1.900e+000 1.900e+000 1.900e+000 1.900e+000 1.900e+000 1.900e+000 1.900e+000 1.900e+000 1.900e+000 1.900e+000 1.900e+000 1.900e+000 1.900e+000 1.900e+000 1.900e+000 1.900e+000 1.900e+000 1.900e+000 1.900e+000 1.900e+000 1.900e+000 1.900e+000 1.900e+000 1.900e+000 1.900e+000 1.900e+000 1.900e+000 1.900e+000 1.900e+000 1.900e+000 1.900e+000 1.900e+000 1.900e+000 1.900e+000 1.900e+000 1.900e+000 1.900e+000 1.900e+000 1.900e+000 1.900e+000 1.900e+000 1.900e+000 1.900e+000 1.900e+000 1.900e+000 1.900e+000 1.900e+000 1.900e+000 1.900e+000 1.900e+000 1.900e+000 1.900e+000 1.900e+000 1.900e+000 1.900e+000 1.900e+000 1.900e+000 1.900e+000 1.900e+000 1.900e+000 1.900e+000 1.900e+000 1.900e+000 1.900e+000 1.900e+000 1.900e+000 1.900e+000 1.900e+000 1.900e+000 1.900e+000 1.900e+000 1.900e+000 1.900e+000 1.900e+000 1.900e+000 1.900e+000 1.900e+000 1.900e+000 1.900e+000 1.900e+000 1.900e+000 1.900e+000 1.900e+000 1.900e+000 1.900e+000 1.900e+000 1.900e+000 1.900e+000 1.900e+000 1.900e+000 1.900e+000 1.900e+000 1.900e+000 1.900e+000 1.900e+000 1.900e+000 1.900e+000 1.900e+000 1.900e+000 1.900e+000 1.900e+000 1.900e+000 1.900e+000 1.900e+000 1.900e+000
           </DataArray>
           <DataArray type="Float32" Name="nitrate/Km" NumberOfComponents="1" format="ascii">
 1.610e-002 1.610e-002 1.610e-002 1.610e-002 1.610e-002 1.610e-002 1.610e-002 1.610e-002 1.610e-002 1.610e-002 1.610e-002 1.610e-002 1.610e-002 1.610e-002 1.610e-002 1.610e-002 1.610e-002 1.610e-002 1.610e-002 1.610e-002 1.610e-002 1.610e-002 1.610e-002 1.610e-002 1.610e-002 1.610e-002 1.610e-002 1.610e-002 1.610e-002 1.610e-002 1.610e-002 1.610e-002 1.610e-002 1.610e-002 1.610e-002 1.610e-002 1.610e-002 1.610e-002 1.610e-002 1.610e-002 1.610e-002 1.610e-002 1.610e-002 1.610e-002 1.610e-002 1.610e-002 1.610e-002 1.610e-002 1.610e-002 1.610e-002 1.610e-002 1.610e-002 1.610e-002 1.610e-002 1.610e-002 1.610e-002 1.610e-002 1.610e-002 1.610e-002 1.610e-002 1.610e-002 1.610e-002 1.610e-002 1.610e-002 1.610e-002 1.610e-002 1.610e-002 1.610e-002 1.610e-002 1.610e-002 1.610e-002 1.610e-002 1.610e-002 1.610e-002 1.610e-002 1.610e-002 1.610e-002 1.610e-002 1.610e-002 1.610e-002 1.610e-002 1.610e-002 1.610e-002 1.610e-002 1.610e-002 1.610e-002 1.610e-002 1.610e-002 1.610e-002 1.610e-002 1.610e-002 1.610e-002 1.610e-002 1.610e-002 1.610e-002 1.610e-002 1.610e-002 1.610e-002 1.610e-002 1.610e-002 1.610e-002 1.610e-002 1.610e-002 1.610e-002 1.610e-002 1.610e-002 1.610e-002 1.610e-002 1.610e-002 1.610e-002 1.610e-002 1.610e-002
           </DataArray>
           <DataArray type="Float32" Name="nitrate/minimalNutrientConcentration" NumberOfComponents="1" format="ascii">
 6.000e+002 6.000e+002 6.000e+002 6.000e+002 6.000e+002 6.000e+002 6.000e+002 6.000e+002 6.000e+002 6.000e+002 6.000e+002 6.000e+002 6.000e+002 6.000e+002 6.000e+002 6.000e+002 6.000e+002 6.000e+002 6.000e+002 6.000e+002 6.000e+002 6.000e+002 6.000e+002 6.000e+002 6.000e+002 6.000e+002 6.000e+002 6.000e+002 6.000e+002 6.000e+002 6.000e+002 6.000e+002 6.000e+002 6.000e+002 6.000e+002 6.000e+002 6.000e+002 6.000e+002 6.000e+002 6.000e+002 6.000e+002 6.000e+002 6.000e+002 6.000e+002 6.000e+002 6.000e+002 6.000e+002 6.000e+002 6.000e+002 6.000e+002 6.000e+002 6.000e+002 6.000e+002 6.000e+002 6.000e+002 6.000e+002 6.000e+002 6.000e+002 6.000e+002 6.000e+002 6.000e+002 6.000e+002 6.000e+002 6.000e+002 6.000e+002 6.000e+002 6.000e+002 6.000e+002 6.000e+002 6.000e+002 6.000e+002 6.000e+002 6.000e+002 6.000e+002 6.000e+002 6.000e+002 6.000e+002 6.000e+002 6.000e+002 6.000e+002 6.000e+002 6.000e+002 6.000e+002 6.000e+002 6.000e+002 6.000e+002 6.000e+002 6.000e+002 6.000e+002 6.000e+002 6.000e+002 6.000e+002 6.000e+002 6.000e+002 6.000e+002 6.000e+002 6.000e+002 6.000e+002 6.000e+002 6.000e+002 6.000e+002 6.000e+002 6.000e+002 6.000e+002 6.000e+002 6.000e+002 6.000e+002 6.000e+002 6.000e+002 6.000e+002 6.000e+002 6.000e+002
           </DataArray>
           <DataArray type="Float32" Name="nitrate/optimalNutrientConcentration" NumberOfComponents="1" format="ascii">
 1.200e+003 1.200e+003 1.200e+003 1.200e+003 1.200e+003 1.200e+003 1.200e+003 1.200e+003 1.200e+003 1.200e+003 1.200e+003 1.200e+003 1.200e+003 1.200e+003 1.200e+003 1.200e+003 1.200e+003 1.200e+003 1.200e+003 1.200e+003 1.200e+003 1.200e+003 1.200e+003 1.200e+003 1.200e+003 1.200e+003 1.200e+003 1.200e+003 1.200e+003 1.200e+003 1.200e+003 1.200e+003 1.200e+003 1.200e+003 1.200e+003 1.200e+003 1.200e+003 1.200e+003 1.200e+003 1.200e+003 1.200e+003 1.200e+003 1.200e+003 1.200e+003 1.200e+003 1.200e+003 1.200e+003 1.200e+003 1.200e+003 1.200e+003 1.200e+003 1.200e+003 1.200e+003 1.200e+003 1.200e+003 1.200e+003 1.200e+003 1.200e+003 1.200e+003 1.200e+003 1.200e+003 1.200e+003 1.200e+003 1.200e+003 1.200e+003 1.200e+003 1.200e+003 1.200e+003 1.200e+003 1.200e+003 1.200e+003 1.200e+003 1.200e+003 1.200e+003 1.200e+003 1.200e+003 1.200e+003 1.200e+003 1.200e+003 1.200e+003 1.200e+003 1.200e+003 1.200e+003 1.200e+003 1.200e+003 1.200e+003 1.200e+003 1.200e+003 1.200e+003 1.200e+003 1.200e+003 1.200e+003 1.200e+003 1.200e+003 1.200e+003 1.200e+003 1.200e+003 1.200e+003 1.200e+003 1.200e+003 1.200e+003 1.200e+003 1.200e+003 1.200e+003 1.200e+003 1.200e+003 1.200e+003 1.200e+003 1.200e+003 1.200e+003 1.200e+003 1.200e+003
           </DataArray>
           <DataArray type="Float32" Name="nitrate/rootSegmentMinimalNutrientContent" NumberOfComponents="1" format="ascii">
 1.941e-001 1.502e-001 1.406e-001 1.941e-001 1.502e-001 1.406e-001 1.941e-001 1.502e-001 1.406e-001 1.941e-001 1.502e-001 1.406e-001 7.418e+000 3.665e+000 4.245e+000 4.517e+000 4.488e+000 4.462e+000 4.439e+000 4.419e+000 4.109e+000 3.510e+000 5.249e+000 5.850e+000 3.278e-002 9.962e-003 3.033e-002 2.181e-002 3.377e-002 1.022e-002 3.186e-002 1.007e-002 3.307e-002 2.989e-003 3.392e-002 3.123e-002 6.778e-003 2.991e-002 3.055e-003 3.117e-002 3.328e-003 3.367e-002 2.959e-002 3.110e-002 3.538e-002 1.564e-002 2.625e-002 2.413e-002 2.085e-002 1.975e-002 2.146e-002 1.937e-002 1.971e-002 1.760e-002 1.766e-002 1.262e-002 3.583e-002 1.206e-002 1.329e-002 1.230e-002 1.060e-002 8.439e-003 9.190e-003 6.264e-003 5.600e-003 4.454e-003 2.955e-003 2.214e-003 3.195e-002 1.115e-002 5.105e-004 3.116e-002 2.069e-002 3.500e-002 9.041e-003 3.391e-002 9.092e-003 3.237e-002 5.503e-003 3.218e-002 5.676e-003 2.414e-002 2.151e-001 2.110e-001 2.071e-001 2.033e-001 1.998e-001 1.965e-001 1.934e-001 1.907e-001 1.883e-001 1.862e-001 1.845e-001 1.830e-001 1.815e-001 1.802e-001 1.789e-001 1.777e-001 1.766e-001 1.756e-001 1.746e-001 1.737e-001 1.729e-001 1.722e-001 1.716e-001 1.710e-001 1.705e-001 1.701e-001 1.697e-001 1.695e-001 1.693e-001 1.692e-001
           </DataArray>
           <DataArray type="Float32" Name="nitrate/rootSegmentOptimalNutrientContent" NumberOfComponents="1" format="ascii">
 3.882e-001 3.003e-001 2.812e-001 3.882e-001 3.003e-001 2.812e-001 3.882e-001 3.003e-001 2.812e-001 3.882e-001 3.003e-001 2.812e-001 1.484e+001 7.331e+000 8.490e+000 9.034e+000 8.976e+000 8.924e+000 8.878e+000 8.839e+000 8.218e+000 7.021e+000 1.050e+001 1.170e+001 6.557e-002 1.992e-002 6.067e-002 4.363e-002 6.754e-002 2.044e-002 6.372e-002 2.015e-002 6.615e-002 5.979e-003 6.785e-002 6.246e-002 1.356e-002 5.981e-002 6.110e-003 6.234e-002 6.657e-003 6.733e-002 5.919e-002 6.221e-002 7.076e-002 3.128e-002 5.249e-002 4.825e-002 4.169e-002 3.950e-002 4.291e-002 3.874e-002 3.942e-002 3.519e-002 3.531e-002 2.524e-002 7.166e-002 2.411e-002 2.658e-002 2.460e-002 2.121e-002 1.688e-002 1.838e-002 1.253e-002 1.120e-002 8.907e-003 5.910e-003 4.427e-003 6.389e-002 2.230e-002 1.021e-003 6.232e-002 4.139e-002 7.000e-002 1.808e-002 6.781e-002 1.818e-002 6.474e-002 1.101e-002 6.436e-002 1.135e-002 4.827e-002 4.302e-001 4.220e-001 4.141e-001 4.067e-001 3.996e-001 3.929e-001 3.868e-001 3.814e-001 3.766e-001 3.725e-001 3.690e-001 3.660e-001 3.631e-001 3.604e-001 3.578e-001 3.554e-001 3.532e-001 3.511e-001 3.492e-001 3.474e-001 3.458e-001 3.444e-001 3.431e-001 3.420e-001 3.410e-001 3.402e-001 3.395e-001 3.390e-001 3.386e-001 3.384e-001
           </DataArray>
           <DataArray type="Float32" Name="parentRootClassID" NumberOfComponents="1" format="ascii">
 -2.000e+000 -2.000e+000 -2.000e+000 -2.000e+000 -2.000e+000 -2.000e+000 -2.000e+000 -2.000e+000 -2.000e+000 -2.000e+000 -2.000e+000 -2.000e+000 -3.000e+000 -3.000e+000 -3.000e+000 -3.000e+000 -3.000e+000 -3.000e+000 -3.000e+000 -3.000e+000 -3.000e+000 -3.000e+000 -3.000e+000 -3.000e+000 -4.000e+000 -4.000e+000 -4.000e+000 -4.000e+000 -4.000e+000 -4.000e+000 -4.000e+000 -4.000e+000 -4.000e+000 -4.000e+000 -4.000e+000 -4.000e+000 -4.000e+000 -4.000e+000 -4.000e+000 -4.000e+000 -4.000e+000 -4.000e+000 -4.000e+000 -4.000e+000 -4.000e+000 -4.000e+000 -4.000e+000 -4.000e+000 -4.000e+000 -4.000e+000 -4.000e+000 -4.000e+000 -4.000e+000 -4.000e+000 -4.000e+000 -4.000e+000 -4.000e+000 -4.000e+000 -4.000e+000 -4.000e+000 -4.000e+000 -4.000e+000 -4.000e+000 -4.000e+000 -4.000e+000 -4.000e+000 -4.000e+000 -4.000e+000 -4.000e+000 -4.000e+000 -4.000e+000 -4.000e+000 -4.000e+000 -4.000e+000 -4.000e+000 -4.000e+000 -4.000e+000 -4.000e+000 -4.000e+000 -4.000e+000 -4.000e+000 -4.000e+000 -3.000e+000 -3.000e+000 -3.000e+000 -3.000e+000 -3.000e+000 -3.000e+000 -3.000e+000 -3.000e+000 -3.000e+000 -3.000e+000 -3.000e+000 -3.000e+000 -3.000e+000 -3.000e+000 -3.000e+000 -3.000e+000 -3.000e+000 -3.000e+000 -3.000e+000 -3.000e+000 -3.000e+000 -3.000e+000 -3.000e+000 -3.000e+000 -3.000e+000 -3.000e+000 -3.000e+000 -3.000e+000 -3.000e+000 -3.000e+000
           </DataArray>
           <DataArray type="Float32" Name="plantID" NumberOfComponents="1" format="ascii">
 7.000e+000 7.000e+000 7.000e+000 7.000e+000 7.000e+000 7.000e+000 7.000e+000 7.000e+000 7.000e+000 7.000e+000 7.000e+000 7.000e+000 7.000e+000 7.000e+000 7.000e+000 7.000e+000 7.000e+000 7.000e+000 7.000e+000 7.000e+000 7.000e+000 7.000e+000 7.000e+000 7.000e+000 7.000e+000 7.000e+000 7.000e+000 7.000e+000 7.000e+000 7.000e+000 7.000e+000 7.000e+000 7.000e+000 7.000e+000 7.000e+000 7.000e+000 7.000e+000 7.000e+000 7.000e+000 7.000e+000 7.000e+000 7.000e+000 7.000e+000 7.000e+000 7.000e+000 7.000e+000 7.000e+000 7.000e+000 7.000e+000 7.000e+000 7.000e+000 7.000e+000 7.000e+000 7.000e+000 7.000e+000 7.000e+000 7.000e+000 7.000e+000 7.000e+000 7.000e+000 7.000e+000 7.000e+000 7.000e+000 7.000e+000 7.000e+000 7.000e+000 7.000e+000 7.000e+000 7.000e+000 7.000e+000 7.000e+000 7.000e+000 7.000e+000 7.000e+000 7.000e+000 7.000e+000 7.000e+000 7.000e+000 7.000e+000 7.000e+000 7.000e+000 7.000e+000 7.000e+000 7.000e+000 7.000e+000 7.000e+000 7.000e+000 7.000e+000 7.000e+000 7.000e+000 7.000e+000 7.000e+000 7.000e+000 7.000e+000 7.000e+000 7.000e+000 7.000e+000 7.000e+000 7.000e+000 7.000e+000 7.000e+000 7.000e+000 7.000e+000 7.000e+000 7.000e+000 7.000e+000 7.000e+000 7.000e+000 7.000e+000 7.000e+000 7.000e+000 7.000e+000
           </DataArray>
           <DataArray type="Float32" Name="plantTypeID" NumberOfComponents="1" format="ascii">
 0.000e+000 0.000e+000 0.000e+000 0.000e+000 0.000e+000 0.000e+000 0.000e+000 0.000e+000 0.000e+000 0.000e+000 0.000e+000 0.000e+000 0.000e+000 0.000e+000 0.000e+000 0.000e+000 0.000e+000 0.000e+000 0.000e+000 0.000e+000 0.000e+000 0.000e+000 0.000e+000 0.000e+000 0.000e+000 0.000e+000 0.000e+000 0.000e+000 0.000e+000 0.000e+000 0.000e+000 0.000e+000 0.000e+000 0.000e+000 0.000e+000 0.000e+000 0.000e+000 0.000e+000 0.000e+000 0.000e+000 0.000e+000 0.000e+000 0.000e+000 0.000e+000 0.000e+000 0.000e+000 0.000e+000 0.000e+000 0.000e+000 0.000e+000 0.000e+000 0.000e+000 0.000e+000 0.000e+000 0.000e+000 0.000e+000 0.000e+000 0.000e+000 0.000e+000 0.000e+000 0.000e+000 0.000e+000 0.000e+000 0.000e+000 0.000e+000 0.000e+000 0.000e+000 0.000e+000 0.000e+000 0.000e+000 0.000e+000 0.000e+000 0.000e+000 0.000e+000 0.000e+000 0.000e+000 0.000e+000 0.000e+000 0.000e+000 0.000e+000 0.000e+000 0.000e+000 0.000e+000 0.000e+000 0.000e+000 0.000e+000 0.000e+000 0.000e+000 0.000e+000 0.000e+000 0.000e+000 0.000e+000 0.000e+000 0.000e+000 0.000e+000 0.000e+000 0.000e+000 0.000e+000 0.000e+000 0.000e+000 0.000e+000 0.000e+000 0.000e+000 0.000e+000 0.000e+000 0.000e+000 0.000e+000 0.000e+000 0.000e+000 0.000e+000 0.000e+000 0.000e+000
           </DataArray>
           <DataArray type="Float32" Name="rootCircumference" NumberOfComponents="1" format="ascii">
 2.136e-001 2.136e-001 2.136e-001 2.136e-001 2.136e-001 2.136e-001 2.136e-001 2.136e-001 2.136e-001 2.136e-001 2.136e-001 2.136e-001 1.320e+000 1.304e+000 1.300e+000 1.295e+000 1.291e+000 1.287e+000 1.284e+000 1.281e+000 1.279e+000 1.276e+000 1.274e+000 1.271e+000 9.431e-002 9.425e-002 9.430e-002 9.426e-002 9.428e-002 9.425e-002 9.428e-002 9.425e-002 9.428e-002 9.425e-002 9.427e-002 9.427e-002 9.425e-002 9.427e-002 9.425e-002 9.427e-002 9.425e-002 9.427e-002 9.427e-002 9.426e-002 9.430e-002 9.425e-002 9.426e-002 9.426e-002 9.426e-002 9.426e-002 9.426e-002 9.426e-002 9.426e-002 9.425e-002 9.425e-002 9.425e-002 9.430e-002 9.425e-002 9.425e-002 9.425e-002 9.425e-002 9.425e-002 9.425e-002 9.425e-002 9.425e-002 9.425e-002 9.425e-002 9.425e-002 9.429e-002 9.425e-002 9.425e-002 9.429e-002 9.425e-002 9.429e-002 9.425e-002 9.429e-002 9.425e-002 9.428e-002 9.425e-002 9.428e-002 9.425e-002 9.426e-002 3.189e-001 3.158e-001 3.128e-001 3.100e-001 3.073e-001 3.047e-001 3.023e-001 3.002e-001 2.983e-001 2.967e-001 2.953e-001 2.941e-001 2.929e-001 2.918e-001 2.908e-001 2.898e-001 2.889e-001 2.881e-001 2.873e-001 2.865e-001 2.859e-001 2.853e-001 2.848e-001 2.843e-001 2.839e-001 2.835e-001 2.832e-001 2.830e-001 2.829e-001 2.828e-001
           </DataArray>
           <DataArray type="Float32" Name="rootClassID" NumberOfComponents="1" format="ascii">
 9.900e+001 9.900e+001 9.900e+001 9.900e+001 9.900e+001 9.900e+001 9.900e+001 9.900e+001 9.900e+001 9.900e+001 9.900e+001 9.900e+001 -2.000e+000 -2.000e+000 -2.000e+000 -2.000e+000 -2.000e+000 -2.000e+000 -2.000e+000 -2.000e+000 -2.000e+000 -2.000e+000 -2.000e+000 -2.000e+000 9.700e+001 9.700e+001 9.700e+001 9.700e+001 9.700e+001 9.700e+001 9.700e+001 9.700e+001 9.700e+001 9.700e+001 9.700e+001 9.700e+001 9.700e+001 9.700e+001 9.700e+001 9.700e+001 9.700e+001 9.700e+001 9.700e+001 9.700e+001 9.700e+001 9.700e+001 9.700e+001 9.700e+001 9.700e+001 9.700e+001 9.700e+001 9.700e+001 9.700e+001 9.700e+001 9.700e+001 9.700e+001 9.700e+001 9.700e+001 9.700e+001 9.700e+001 9.700e+001 9.700e+001 9.700e+001 9.700e+001 9.700e+001 9.700e+001 9.700e+001 9.700e+001 9.700e+001 9.700e+001 9.700e+001 9.700e+001 9.700e+001 9.700e+001 9.700e+001 9.700e+001 9.700e+001 9.700e+001 9.700e+001 9.700e+001 9.700e+001 9.700e+001 -4.000e+000 -4.000e+000 -4.000e+000 -4.000e+000 -4.000e+000 -4.000e+000 -4.000e+000 -4.000e+000 -4.000e+000 -4.000e+000 -4.000e+000 -4.000e+000 -4.000e+000 -4.000e+000 -4.000e+000 -4.000e+000 -4.000e+000 -4.000e+000 -4.000e+000 -4.000e+000 -4.000e+000 -4.000e+000 -4.000e+000 -4.000e+000 -4.000e+000 -4.000e+000 -4.000e+000 -4.000e+000 -4.000e+000 -4.000e+000
           </DataArray>
           <DataArray type="Float32" Name="rootDiameter" NumberOfComponents="1" format="ascii">
 6.800e-002 6.800e-002 6.800e-002 6.800e-002 6.800e-002 6.800e-002 6.800e-002 6.800e-002 6.800e-002 6.800e-002 6.800e-002 6.800e-002 4.201e-001 4.152e-001 4.137e-001 4.123e-001 4.109e-001 4.097e-001 4.087e-001 4.078e-001 4.070e-001 4.063e-001 4.057e-001 4.045e-001 3.002e-002 3.000e-002 3.002e-002 3.000e-002 3.001e-002 3.000e-002 3.001e-002 3.000e-002 3.001e-002 3.000e-002 3.001e-002 3.001e-002 3.000e-002 3.001e-002 3.000e-002 3.001e-002 3.000e-002 3.001e-002 3.001e-002 3.001e-002 3.002e-002 3.000e-002 3.000e-002 3.000e-002 3.000e-002 3.000e-002 3.000e-002 3.000e-002 3.000e-002 3.000e-002 3.000e-002 3.000e-002 3.002e-002 3.000e-002 3.000e-002 3.000e-002 3.000e-002 3.000e-002 3.000e-002 3.000e-002 3.000e-002 3.000e-002 3.000e-002 3.000e-002 3.001e-002 3.000e-002 3.000e-002 3.001e-002 3.000e-002 3.001e-002 3.000e-002 3.001e-002 3.000e-002 3.001e-002 3.000e-002 3.001e-002 3.000e-002 3.001e-002 1.015e-001 1.005e-001 9.958e-002 9.868e-002 9.782e-002 9.700e-002 9.624e-002 9.556e-002 9.496e-002 9.444e-002 9.400e-002 9.361e-002 9.324e-002 9.289e-002 9.256e-002 9.225e-002 9.196e-002 9.169e-002 9.144e-002 9.121e-002 9.100e-002 9.081e-002 9.064e-002 9.049e-002 9.036e-002 9.025e-002 9.016e-002 9.009e-002 9.004e-002 9.001e-002
           </DataArray>
           <DataArray type="Float32" Name="rootLength2Base" NumberOfComponents="1" format="ascii">