<?xml version="1.0"?>
<VTKFile type="UnstructuredGrid" version="0.1" byte_order="LittleEndian">
   <UnstructuredGrid>
      <Piece NumberOfPoints="4890" NumberOfCells="353">
         <Points>
            <DataArray type="Float32" Name="Position" NumberOfComponents="3" format="ascii">
-0.148	-5.022	-0.016
-0.149	-5.013	-0.012
-0.149	-5.005	-0.015
-0.148	-4.999	-0.022
-0.146	-4.998	-0.031
-0.144	-5.003	-0.039
-0.144	-5.012	-0.042
-0.144	-5.021	-0.039
-0.145	-5.027	-0.032
-0.147	-5.027	-0.023
-0.317	-5.026	-0.048
-0.317	-5.017	-0.044
-0.317	-5.008	-0.047
-0.316	-5.002	-0.054
-0.314	-5.002	-0.063
-0.313	-5.007	-0.071
-0.312	-5.015	-0.074
-0.312	-5.024	-0.072
-0.313	-5.030	-0.064
-0.315	-5.031	-0.055
-0.290	-5.060	-0.042
-0.291	-5.051	-0.038
-0.291	-5.042	-0.040
-0.291	-5.036	-0.047
-0.290	-5.035	-0.056
-0.288	-5.040	-0.064
-0.287	-5.048	-0.068
-0.287	-5.057	-0.066
-0.288	-5.063	-0.059
-0.289	-5.064	-0.050
-0.435	-5.057	-0.083
-0.431	-5.057	-0.075
-0.432	-5.057	-0.066
-0.439	-5.057	-0.059
-0.448	-5.057	-0.058
-0.456	-5.057	-0.062
-0.461	-5.057	-0.070
-0.459	-5.057	-0.080
-0.453	-5.057	-0.086
-0.443	-5.057	-0.088
-0.421	-5.107	-0.073
-0.416	-5.100	-0.070
-0.417	-5.091	-0.069
-0.423	-5.083	-0.070
-0.432	-5.081	-0.073
-0.439	-5.084	-0.077
-0.444	-5.092	-0.080
-0.443	-5.101	-0.081
-0.437	-5.108	-0.079
-0.428	-5.111	-0.076
-0.474	-5.127	0.054
-0.469	-5.119	0.057
-0.470	-5.110	0.058
-0.476	-5.103	0.057
-0.485	-5.101	0.054
-0.492	-5.104	0.050
-0.497	-5.112	0.047
-0.496	-5.121	0.046
-0.490	-5.128	0.047
-0.481	-5.130	0.051
-0.572	-5.151	-0.099
-0.563	-5.148	-0.099
-0.554	-5.150	-0.099
-0.548	-5.157	-0.098
-0.548	-5.166	-0.097
-0.553	-5.174	-0.095
-0.561	-5.177	-0.095
-0.570	-5.175	-0.095
-0.576	-5.168	-0.096
-0.577	-5.159	-0.097
-0.574	-5.172	-0.230
-0.565	-5.168	-0.231
-0.556	-5.171	-0.231
-0.550	-5.178	-0.230
-0.550	-5.187	-0.228
-0.555	-5.194	-0.227
-0.563	-5.198	-0.226
-0.572	-5.196	-0.226
-0.578	-5.189	-0.227
-0.579	-5.180	-0.229
-0.678	-5.254	-0.115
-0.674	-5.246	-0.112
-0.675	-5.237	-0.110
-0.681	-5.230	-0.111
-0.690	-5.227	-0.114
-0.698	-5.231	-0.118
-0.702	-5.239	-0.121
-0.700	-5.248	-0.123
-0.694	-5.255	-0.122
-0.686	-5.257	-0.119
-0.720	-5.274	-0.011
-0.716	-5.266	-0.008
-0.718	-5.257	-0.007
-0.723	-5.250	-0.008
-0.732	-5.248	-0.011
-0.740	-5.251	-0.014
-0.744	-5.259	-0.018
-0.743	-5.268	-0.019
-0.737	-5.275	-0.018
-0.728	-5.277	-0.015
-0.802	-5.324	-0.144
-0.797	-5.322	-0.136
-0.798	-5.321	-0.127
-0.804	-5.322	-0.120
-0.813	-5.325	-0.118
-0.821	-5.328	-0.121
-0.825	-5.330	-0.129
-0.825	-5.330	-0.138
-0.819	-5.329	-0.146
-0.810	-5.326	-0.148
-0.780	-5.432	-0.116
-0.779	-5.424	-0.111
-0.779	-5.415	-0.112
-0.781	-5.408	-0.117
-0.783	-5.406	-0.126
-0.785	-5.409	-0.134
-0.786	-5.417	-0.139
-0.786	-5.426	-0.139
-0.784	-5.433	-0.133
-0.782	-5.436	-0.124
-0.946	-5.397	-0.150
-0.937	-5.393	-0.151
-0.928	-5.395	-0.151
-0.922	-5.402	-0.151
-0.921	-5.411	-0.149
-0.926	-5.419	-0.148
-0.934	-5.423	-0.147
-0.943	-5.421	-0.147
-0.949	-5.414	-0.148
-0.950	-5.405	-0.149
-0.949	-5.404	-0.207
-0.940	-5.401	-0.208
-0.931	-5.403	-0.208
-0.925	-5.410	-0.208
-0.924	-5.419	-0.207
-0.929	-5.427	-0.205
-0.937	-5.430	-0.204
-0.946	-5.428	-0.204
-0.952	-5.422	-0.205
-0.953	-5.412	-0.206
-1.051	-5.501	-0.164
-1.047	-5.493	-0.161
-1.048	-5.484	-0.160
-1.054	-5.477	-0.161
-1.062	-5.475	-0.164
-1.070	-5.478	-0.167
-1.075	-5.486	-0.170
-1.074	-5.495	-0.171
-1.068	-5.502	-0.170
-1.059	-5.504	-0.167
-1.084	-5.495	-0.118
-1.076	-5.495	-0.114
-1.066	-5.495	-0.115
-1.060	-5.495	-0.122
-1.058	-5.495	-0.131
-1.063	-5.495	-0.139
-1.071	-5.495	-0.143
-1.080	-5.495	-0.142
-1.087	-5.495	-0.135
-1.088	-5.495	-0.126
-1.192	-5.563	-0.184
-1.183	-5.560	-0.185
-1.174	-5.562	-0.184
-1.169	-5.570	-0.183
-1.168	-5.579	-0.182
-1.173	-5.586	-0.180
-1.182	-5.590	-0.180
-1.191	-5.587	-0.180
-1.197	-5.580	-0.181
-1.197	-5.571	-0.183
-1.172	-5.578	-0.212
-1.168	-5.578	-0.204
-1.169	-5.578	-0.195
-1.176	-5.578	-0.188
-1.185	-5.578	-0.187
-1.193	-5.578	-0.191
-1.197	-5.578	-0.199
-1.196	-5.578	-0.208
-1.189	-5.578	-0.215
-1.180	-5.578	-0.216
0.008	-5.017	0.019
-0.000	-5.003	0.032
-0.009	-4.983	0.032
-0.014	-4.967	0.021
-0.014	-4.959	0.001
-0.009	-4.963	-0.019
-0.001	-4.977	-0.032
0.007	-4.997	-0.033
0.013	-5.013	-0.021
0.013	-5.021	-0.002
-0.837	-5.380	-0.124
-0.846	-5.368	-0.109
-0.857	-5.351	-0.105
-0.865	-5.334	-0.114
-0.868	-5.323	-0.132
-0.864	-5.324	-0.152
-0.855	-5.336	-0.168
-0.845	-5.354	-0.172
-0.836	-5.371	-0.163
-0.834	-5.381	-0.144
-1.422	-5.803	-0.215
-1.430	-5.796	-0.197
-1.443	-5.782	-0.188
-1.455	-5.765	-0.192
-1.463	-5.753	-0.207
-1.463	-5.749	-0.228
-1.455	-5.756	-0.246
-1.442	-5.770	-0.255
-1.429	-5.787	-0.251
-1.422	-5.799	-0.236
-1.929	-6.251	-0.307
-1.935	-6.247	-0.287
-1.948	-6.235	-0.275
-1.963	-6.220	-0.275
-1.974	-6.208	-0.288
-1.977	-6.202	-0.308
-1.971	-6.206	-0.327
-1.958	-6.217	-0.340
-1.943	-6.232	-0.339
-1.932	-6.245	-0.327
-2.469	-6.840	-0.347
-2.473	-6.838	-0.326
-2.485	-6.828	-0.312
-2.501	-6.815	-0.309
-2.514	-6.803	-0.320
-2.521	-6.797	-0.339
-2.517	-6.799	-0.359
-2.505	-6.808	-0.374
-2.489	-6.822	-0.376
-2.476	-6.834	-0.366
-2.838	-7.312	-0.359
-2.841	-7.310	-0.339
-2.852	-7.301	-0.324
-2.869	-7.289	-0.320
-2.883	-7.277	-0.329
-2.891	-7.271	-0.348
-2.889	-7.273	-0.369
-2.877	-7.282	-0.384
-2.861	-7.294	-0.387
-2.846	-7.306	-0.378
-3.242	-7.825	-0.354
-3.244	-7.823	-0.333
-3.255	-7.814	-0.318
-3.272	-7.802	-0.314
-3.287	-7.790	-0.323
-3.295	-7.784	-0.341
-3.293	-7.786	-0.362
-3.281	-7.795	-0.378
-3.265	-7.807	-0.382
-3.250	-7.818	-0.373
-3.658	-8.392	-0.354
-3.659	-8.391	-0.333
-3.670	-8.383	-0.317
-3.687	-8.371	-0.312
-3.703	-8.360	-0.320
-3.712	-8.354	-0.338
-3.710	-8.354	-0.359
-3.699	-8.362	-0.375
-3.682	-8.374	-0.380
-3.667	-8.385	-0.372
-4.085	-9.014	-0.371
-4.086	-9.014	-0.350
-4.097	-9.007	-0.334
-4.114	-8.996	-0.328
-4.130	-8.985	-0.335
-4.140	-8.978	-0.353
-4.139	-8.978	-0.374
-4.128	-8.985	-0.390
-4.111	-8.997	-0.396
-4.095	-9.008	-0.389
-4.512	-9.679	-0.373
-4.511	-9.680	-0.352
-4.522	-9.673	-0.335
-4.539	-9.663	-0.328
-4.556	-9.653	-0.334
-4.567	-9.646	-0.351
-4.567	-9.646	-0.372
-4.556	-9.652	-0.389
-4.539	-9.662	-0.396
-4.522	-9.673	-0.390
-4.911	-10.371	-0.389
-4.911	-10.372	-0.368
-4.921	-10.366	-0.351
-4.938	-10.356	-0.344
-4.955	-10.346	-0.350
-4.967	-10.340	-0.366
-4.967	-10.339	-0.387
-4.957	-10.345	-0.405
-4.940	-10.355	-0.412
-4.922	-10.365	-0.406
-5.315	-11.061	-0.386
-5.314	-11.062	-0.365
-5.324	-11.056	-0.347
-5.341	-11.047	-0.340
-5.359	-11.037	-0.345
-5.371	-11.031	-0.361
-5.372	-11.030	-0.382
-5.362	-11.035	-0.400
-5.345	-11.045	-0.408
-5.327	-11.055	-0.402
-5.684	-11.769	-0.392
-5.682	-11.771	-0.372
-5.691	-11.767	-0.353
-5.708	-11.758	-0.344
-5.727	-11.749	-0.349
-5.739	-11.742	-0.364
-5.741	-11.741	-0.385
-5.732	-11.745	-0.403
-5.715	-11.754	-0.412
-5.697	-11.763	-0.408
-5.857	-12.129	-0.405
-5.854	-12.131	-0.384
-5.863	-12.127	-0.365
-5.880	-12.119	-0.356
-5.899	-12.110	-0.360
-5.912	-12.104	-0.375
-5.914	-12.102	-0.396
-5.905	-12.106	-0.414
-5.888	-12.114	-0.424
-5.870	-12.123	-0.420
-0.027	-5.021	0.156
-0.027	-5.012	0.161
-0.028	-5.003	0.160
-0.028	-4.996	0.153
-0.028	-4.995	0.144
-0.028	-4.999	0.136
-0.028	-5.007	0.131
-0.027	-5.016	0.132
-0.027	-5.023	0.139
-0.027	-5.024	0.148
-0.198	-5.031	0.158
-0.198	-5.023	0.163
-0.199	-5.014	0.162
-0.200	-5.007	0.155
-0.200	-5.005	0.146
-0.200	-5.009	0.138
-0.199	-5.017	0.133
-0.199	-5.026	0.134
-0.198	-5.033	0.141
-0.198	-5.035	0.150
-0.054	-5.050	0.300
-0.055	-5.042	0.305
-0.056	-5.033	0.304
-0.057	-5.026	0.298
-0.057	-5.024	0.289
-0.057	-5.027	0.280
-0.057	-5.035	0.276
-0.056	-5.044	0.277
-0.055	-5.051	0.283
-0.054	-5.053	0.292
-0.226	-5.066	0.296
-0.221	-5.058	0.296
-0.223	-5.048	0.296
-0.229	-5.042	0.296
-0.239	-5.040	0.296
-0.247	-5.045	0.296
-0.251	-5.053	0.296
-0.250	-5.062	0.296
-0.243	-5.069	0.296
-0.234	-5.070	0.296
-0.076	-5.088	0.434
-0.071	-5.080	0.435
-0.072	-5.071	0.436
-0.078	-5.063	0.434
-0.087	-5.061	0.432
-0.095	-5.065	0.431
-0.100	-5.073	0.429
-0.099	-5.082	0.429
-0.093	-5.089	0.430
-0.084	-5.091	0.432
-0.110	-5.091	0.588
-0.105	-5.084	0.589
-0.106	-5.074	0.589
-0.112	-5.067	0.588
-0.121	-5.065	0.586
-0.129	-5.069	0.584
-0.134	-5.077	0.583
-0.133	-5.086	0.583
-0.127	-5.093	0.584
-0.118	-5.095	0.586
-0.116	-5.136	0.581
-0.116	-5.128	0.585
-0.117	-5.119	0.584
-0.117	-5.112	0.578
-0.118	-5.110	0.569
-0.117	-5.114	0.561
-0.117	-5.122	0.556
-0.116	-5.131	0.557
-0.115	-5.138	0.563
-0.115	-5.140	0.573
-0.244	-5.146	0.581
-0.245	-5.137	0.585
-0.246	-5.128	0.584
-0.246	-5.122	0.578
-0.246	-5.120	0.569
-0.246	-5.124	0.560
-0.245	-5.132	0.556
-0.245	-5.141	0.557
-0.244	-5.148	0.563
-0.244	-5.149	0.572
-0.137	-5.189	0.710
-0.132	-5.181	0.711
-0.133	-5.172	0.711
-0.139	-5.165	0.710
-0.148	-5.162	0.708
-0.156	-5.166	0.706
-0.161	-5.174	0.705
-0.160	-5.183	0.705
-0.154	-5.190	0.706
-0.146	-5.192	0.708
-0.164	-5.189	0.835
-0.159	-5.181	0.836
-0.160	-5.172	0.836
-0.166	-5.165	0.835
-0.175	-5.162	0.833
-0.183	-5.166	0.831
-0.188	-5.174	0.830
-0.187	-5.183	0.830
-0.181	-5.190	0.831
-0.173	-5.192	0.833
-0.166	-5.241	0.847
-0.161	-5.234	0.848
-0.162	-5.224	0.848
-0.168	-5.217	0.847
-0.177	-5.215	0.846
-0.185	-5.219	0.844
-0.190	-5.227	0.843
-0.189	-5.236	0.843
-0.183	-5.243	0.844
-0.174	-5.245	0.845
-0.179	-5.244	0.920
-0.175	-5.236	0.921
-0.176	-5.227	0.921
-0.182	-5.220	0.920
-0.191	-5.218	0.918
-0.199	-5.221	0.917
-0.204	-5.229	0.916
-0.203	-5.239	0.915
-0.197	-5.246	0.916
-0.188	-5.248	0.918
-0.194	-5.306	0.980
-0.189	-5.298	0.981
-0.190	-5.288	0.981
-0.196	-5.281	0.980
-0.205	-5.279	0.978
-0.213	-5.283	0.976
-0.218	-5.291	0.975
-0.217	-5.300	0.975
-0.211	-5.307	0.976
-0.202	-5.309	0.978
-0.208	-5.308	1.047
-0.203	-5.300	1.048
-0.204	-5.291	1.048
-0.210	-5.284	1.047
-0.219	-5.282	1.046
-0.227	-5.286	1.044
-0.232	-5.293	1.042
-0.231	-5.303	1.042
-0.225	-5.310	1.043
-0.216	-5.312	1.045
-0.225	-5.358	1.096
-0.226	-5.351	1.101
-0.230	-5.349	1.110
-0.234	-5.352	1.117
-0.237	-5.360	1.121
-0.238	-5.369	1.120
-0.236	-5.376	1.114
-0.232	-5.379	1.106
[...]
         <CellData>
           <DataArray type="Float32" Name="combinedRootClassID" NumberOfComponents="1" format="ascii">
 -1.300e+001 -1.300e+001 -1.300e+001 -1.300e+001 -1.300e+001 -1.300e+001 -1.300e+001 -1.300e+001 -1.300e+001 -5.000e+000 -5.000e+000 -5.000e+000 -5.000e+000 -5.000e+000 -5.000e+000 -5.000e+000 -5.000e+000 -5.000e+000 -5.000e+000 -5.000e+000 -5.000e+000 -5.000e+000 -1.300e+001 -1.300e+001 -1.300e+001 -1.300e+001 -1.300e+001 -1.300e+001 -1.300e+001 -1.300e+001 -1.300e+001 -5.000e+000 -5.000e+000 -5.000e+000 -5.000e+000 -5.000e+000 -5.000e+000 -5.000e+000 -5.000e+000 -5.000e+000 -5.000e+000 -5.000e+000 -5.000e+000 -5.000e+000 -1.300e+001 -1.300e+001 -1.300e+001 -1.300e+001 -1.300e+001 -1.300e+001 -1.300e+001 -1.300e+001 -1.300e+001 -5.000e+000 -5.000e+000 -5.000e+000 -5.000e+000 -5.000e+000 -5.000e+000 -5.000e+000 -5.000e+000 -5.000e+000 -5.000e+000 -5.000e+000 -5.000e+000 -5.000e+000 -1.300e+001 -1.300e+001 -1.300e+001 -1.300e+001 -1.300e+001 -1.300e+001 -1.300e+001 -1.300e+001 -1.300e+001 -5.000e+000 -5.000e+000 -5.000e+000 -5.000e+000 -5.000e+000 -5.000e+000 -5.000e+000 -5.000e+000 -5.000e+000 -5.000e+000 -5.000e+000 -5.000e+000 -5.000e+000 -1.100e+001 -1.100e+001 -1.100e+001 -1.100e+001 -1.100e+001 -1.100e+001 -1.100e+001 -1.100e+001 -1.100e+001 -1.100e+001 -1.100e+001 -1.100e+001 -2.000e+000 -2.000e+000 -2.000e+000 -2.000e+000 -2.000e+000 -2.000e+000 -2.000e+000 -2.000e+000 -2.000e+000 -2.000e+000 -2.000e+000 -2.000e+000 -7.000e+000 -7.000e+000 -7.000e+000 -7.000e+000 -7.000e+000 -7.000e+000 -7.000e+000 -7.000e+000 -7.000e+000 -7.000e+000 -7.000e+000 -7.000e+000 -7.000e+000 -7.000e+000 -7.000e+000 -7.000e+000 -7.000e+000 -7.000e+000 -7.000e+000 -7.000e+000 -7.000e+000 -7.000e+000 -7.000e+000 -7.000e+000 -7.000e+000 -7.000e+000 -7.000e+000 -7.000e+000 -7.000e+000 -7.000e+000 -7.000e+000 -7.000e+000 -7.000e+000 -7.000e+000 -7.000e+000 -7.000e+000 -7.000e+000 -7.000e+000 -7.000e+000 -7.000e+000 -7.000e+000 -7.000e+000 -7.000e+000 -7.000e+000 -7.000e+000 -7.000e+000 -7.000e+000 -7.000e+000 -7.000e+000 -7.000e+000 -7.000e+000 -7.000e+000 -7.000e+000 -7.000e+000 -7.000e+000 -7.000e+000 -7.000e+000 -7.000e+000 -7.000e+000 -7.000e+000 -7.000e+000 -7.000e+000 -7.000e+000 -7.000e+000 -7.000e+000 -7.000e+000 -7.000e+000 -7.000e+000 -7.000e+000 -7.000e+000 -7.000e+000 -7.000e+000 -7.000e+000 -7.000e+000 -7.000e+000 -7.000e+000 -7.000e+000 -7.000e+000 -7.000e+000 -7.000e+000 -7.000e+000 -7.000e+000 -7.000e+000 -7.000e+000 -7.000e+000 -7.000e+000 -7.000e+000 -7.000e+000 -7.000e+000 -7.000e+000 -7.000e+000 -7.000e+000 -7.000e+000 -7.000e+000 -7.000e+000 -7.000e+000 -7.000e+000 -7.000e+000 -7.000e+000 -7.000e+000 -7.000e+000 -7.000e+000 -7.000e+000 -7.000e+000 -7.000e+000 -7.000e+000 -7.000e+000 -7.000e+000 -7.000e+000 -7.000e+000 -7.000e+000 -7.000e+000 -7.000e+000 -7.000e+000 -7.000e+000 -7.000e+000 -7.000e+000 -7.000e+000 -7.000e+000 -7.000e+000 -7.000e+000 -7.000e+000 -7.000e+000 -7.000e+000 -7.000e+000 -7.000e+000 -7.000e+000 -7.000e+000 -7.000e+000 -7.000e+000 -7.000e+000 -7.000e+000 -7.000e+000 -7.000e+000 -7.000e+000 -7.000e+000 -7.000e+000 -7.000e+000 -7.000e+000 -7.000e+000 -7.000e+000 -7.000e+000 -7.000e+000 -7.000e+000 -7.000e+000 -7.000e+000 -7.000e+000 -7.000e+000 -7.000e+000 -7.000e+000 -7.000e+000 -7.000e+000 -7.000e+000 -7.000e+000 -7.000e+000 -7.000e+000 -7.000e+000 -7.000e+000 -7.000e+000 -7.000e+000 -7.000e+000 -7.000e+000 -7.000e+000 -7.000e+000 -7.000e+000 -7.000e+000 -7.000e+000 -7.000e+000 -7.000e+000 -7.000e+000 -7.000e+000 -7.000e+000 -7.000e+000 -7.000e+000 -7.000e+000 -7.000e+000 -7.000e+000 -7.000e+000 -7.000e+000 -7.000e+000 -7.000e+000 -7.000e+000 -7.000e+000 -7.000e+000 -7.000e+000 -7.000e+000 -7.000e+000 -7.000e+000 -7.000e+000 -7.000e+000 -7.000e+000 -7.000e+000 -7.000e+000 -7.000e+000 -7.000e+000 -9.000e+000 -9.000e+000 -9.000e+000 -9.000e+000 -9.000e+000 -9.000e+000 -4.000e+000 -4.000e+000 -4.000e+000 -4.000e+000 -4.000e+000 -4.000e+000 -4.000e+000 -4.000e+000 -4.000e+000 -4.000e+000 -4.000e+000 -4.000e+000 -4.000e+000 -4.000e+000 -4.000e+000 -4.000e+000 -4.000e+000 -4.000e+000 -4.000e+000 -4.000e+000 -4.000e+000 -4.000e+000 -4.000e+000 -4.000e+000 -4.000e+000 -4.000e+000 -4.000e+000 -4.000e+000 -4.000e+000 -4.000e+000 -4.000e+000 -4.000e+000 -4.000e+000 -4.000e+000 -4.000e+000 -4.000e+000 -4.000e+000 -4.000e+000 -4.000e+000 -4.000e+000
           </DataArray>
           <DataArray type="Float32" Name="nitrate/Cmin" NumberOfComponents="1" format="ascii">
 1.000e-003 1.000e-003 1.000e-003 1.000e-003 1.000e-003 1.000e-003 1.000e-003 1.000e-003 1.000e-003 1.000e-003 1.000e-003 1.000e-003 1.000e-003 1.000e-003 1.000e-003 1.000e-003 1.000e-003 1.000e-003 1.000e-003 1.000e-003 1.000e-003 1.000e-003 1.000e-003 1.000e-003 1.000e-003 1.000e-003 1.000e-003 1.000e-003 1.000e-003 1.000e-003 1.000e-003 1.000e-003 1.000e-003 1.000e-003 1.000e-003 1.000e-003 1.000e-003 1.000e-003 1.000e-003 1.000e-003 1.000e-003 1.000e-003 1.000e-003 1.000e-003 1.000e-003 1.000e-003 1.000e-003 1.000e-003 1.000e-003 1.000e-003 1.000e-003 1.000e-003 1.000e-003 1.000e-003 1.000e-003 1.000e-003 1.000e-003 1.000e-003 1.000e-003 1.000e-003 1.000e-003 1.000e-003 1.000e-003 1.000e-003 1.000e-003 1.000e-003 1.000e-003 1.000e-003 1.000e-003 1.000e-003 1.000e-003 1.000e-003 1.000e-003 1.000e-003 1.000e-003 1.000e-003 1.000e-003 1.000e-003 1.000e-003 1.000e-003 1.000e-003 1.000e-003 1.000e-003 1.000e-003 1.000e-003 1.000e-003 1.000e-003 1.000e-003 1.000e-003 1.000e-003 1.000e-003 1.000e-003 1.000e-003 1.000e-003 1.000e-003 1.000e-003 1.000e-003 1.000e-003 1.000e-003 1.000e-003 1.000e-003 1.000e-003 1.000e-003 1.000e-003 1.000e-003 1.000e-003 1.000e-003 1.000e-003 1.000e-003 1.000e-003 1.000e-003 1.000e-003 1.000e-003 1.000e-003 1.000e-003 1.000e-003 1.000e-003 1.000e-003 1.000e-003 1.000e-003 1.000e-003 1.000e-003 1.000e-003 1.000e-003 1.000e-003 1.000e-003 1.000e-003 1.000e-003 1.000e-003 1.000e-003 1.000e-003 1.000e-003 1.000e-003 1.000e-003 1.000e-003 1.000e-003 1.000e-003 1.000e-003 1.000e-003 1.000e-003 1.000e-003 1.000e-003 1.000e-003 1.000e-003 1.000e-003 1.000e-003 1.000e-003 1.000e-003 1.000e-003 1.000e-003 1.000e-003 1.000e-003 1.000e-003 1.000e-003 1.000e-003 1.000e-003 1.000e-003 1.000e-003 1.000e-003 1.000e-003 1.000e-003 1.000e-003 1.000e-003 1.000e-003 1.000e-003 1.000e-003 1.000e-003 1.000e-003 1.000e-003 1.000e-003 1.000e-003 1.000e-003 1.000e-003 1.000e-003 1.000e-003 1.000e-003 1.000e-003 1.000e-003 1.000e-003 1.000e-003 1.000e-003 1.000e-003 1.000e-003 1.000e-003 1.000e-003 1.000e-003 1.000e-003 1.000e-003 1.000e-003 1.000e-003 1.000e-003 1.000e-003 1.000e-003 1.000e-003 1.000e-003 1.000e-003 1.000e-003 1.000e-003 1.000e-003 1.000e-003 1.000e-003 1.000e-003 1.000e-003 1.000e-003 1.000e-003 1.000e-003 1.000e-003 1.000e-003 1.000e-003 1.000e-003 1.000e-003 1.000e-003 1.000e-003 1.000e-003 1.000e-003 1.000e-003 1.000e-003 1.000e-003 1.000e-003 1.000e-003 1.000e-003 1.000e-003 1.000e-003 1.000e-003 1.000e-003 1.000e-003 1.000e-003 1.000e-003 1.000e-003 1.000e-003 1.000e-003 1.000e-003 1.000e-003 1.000e-003 1.000e-003 1.000e-003 1.000e-003 1.000e-003 1.000e-003 1.000e-003 1.000e-003 1.000e-003 1.000e-003 1.000e-003 1.000e-003 1.000e-003 1.000e-003 1.000e-003 1.000e-003 1.000e-003 1.000e-003 1.000e-003 1.000e-003 1.000e-003 1.000e-003 1.000e-003 1.000e-003 1.000e-003 1.000e-003 1.000e-003 1.000e-003 1.000e-003 1.000e-003 1.000e-003 1.000e-003 1.000e-003 1.000e-003 1.000e-003 1.000e-003 1.000e-003 1.000e-003 1.000e-003 1.000e-003 1.000e-003 1.000e-003 1.000e-003 1.000e-003 1.000e-003 1.000e-003 1.000e-003 1.000e-003 1.000e-003 1.000e-003 1.000e-003 1.000e-003 1.000e-003 1.000e-003 1.000e-003 1.000e-003 1.000e-003 1.000e-003 1.000e-003 1.000e-003 1.000e-003 1.000e-003 1.000e-003 1.000e-003 1.000e-003 1.000e-003 1.000e-003 1.000e-003 1.000e-003 1.000e-003 1.000e-003 1.000e-003 1.000e-003 1.000e-003 1.000e-003 1.000e-003 1.000e-003 1.000e-003 1.000e-003 1.000e-003 1.000e-003 1.000e-003 1.000e-003 1.000e-003 1.000e-003 1.000e-003 1.000e-003 1.000e-003 1.000e-003 1.000e-003 1.000e-003 1.000e-003 1.000e-003 1.000e-003 1.000e-003 1.000e-003 1.000e-003 1.000e-003 1.000e-003 1.000e-003 1.000e-003 1.000e-003 1.000e-003 1.000e-003 1.000e-003 1.000e-003 1.000e-003 1.000e-003 1.000e-003 1.000e-003 1.000e-003 1.000e-003 1.000e-003 1.000e-003 1.000e-003 1.000e-003 1.000e-003 1.000e-003 1.000e-003 1.000e-003
           </DataArray>
           <DataArray type="Float32" Name="nitrate/Imax" NumberOfComponents="1" format="ascii">
 1.900e+000 1.900e+000 1.900e+000 1.900e+000 1.900e+000 1.900e+000 1.900e+000 1.900e+000 1.900e+000 1.900e+000 1.900e+000 1.900e+000 1.900e+000 1.900e+000 1.900e+000 1.900e+000 1.900e+000 1.900e+000 1.900e+000 1.900e+000 1.900e+000 1.900e+000 1.900e+000 1.900e+000 1.900e+000 1.900e+000 1.900e+000 1.900e+000 1.900e+000 1.900e+000 1.900e+000 1.900e+000 1.900e+000 1.900e+000 1.900e+000 1.900e+000 1.900e+000 1.900e+000 1.900e+000 1.900e+000 1.900e+000 1.900e+000 1.900e+000 1.900e+000 1.900e+000 1.900e+000 1.900e+000 1.900e+000 1.900e+000 1.900e+000 1.900e+000 1.900e+000 1.900e+000 1.900e+000 1.900e+000 1.900e+000 1.900e+000 1.900e+000 1.900e+000 1.900e+000 1.900e+000 1.900e+000 1.900e+000 1.900e+000 1.900e+000 1.900e+000 1.900e+000 1.900e+000 1.900e+000 1.900e+000 1.900e+000 1.900e+000 1.900e+000 1.900e+000 1.900e+000 1.900e+000 1.900e+000 1.900e+000 1.900e+000 1.900e+000 1.900e+000 1.900e+000 1.900e+000 1.900e+000 1.900e+000 1.900e+000 1.900e+000 1.900e+000 1.900e+000 1.900e+000 1.900e+000 1.900e+000 1.900e+000 1.900e+000 1.900e+000 1.900e+000 1.900e+000 1.900e+000 1.900e+000 1.900e+000 1.900e+000 1.900e+000 1.900e+000 1.900e+000 1.900e+000 1.900e+000 1.900e+000 1.900e+000 1.900e+000 1.900e+000 1.900e+000 1.900e+000 1.900e+000 1.900e+000 1.900e+000 1.900e+000 1.900e+000 1.900e+000 1.900e+000 1.900e+000 1.900e+000 1.900e+000 1.900e+000 1.900e+000 1.900e+000 1.900e+000 1.900e+000 1.900e+000 1.900e+000 1.900e+000 1.900e+000 1.900e+000 1.900e+000 1.900e+000 1.900e+000 1.900e+000 1.900e+000 1.900e+000 1.900e+000 1.900e+000 1.900e+000 1.900e+000 1.900e+000 1.900e+000 1.900e+000 1.900e+000 1.900e+000 1.900e+000 1.900e+000 1.900e+000 1.900e+000 1.900e+000 1.900e+000 1.900e+000 1.900e+000 1.900e+000 1.900e+000 1.900e+000 1.900e+000 1.900e+000 1.900e+000 1.900e+000 1.900e+000 1.900e+000 1.900e+000 1.900e+000 1.900e+000 1.900e+000 1.900e+000 1.900e+000 1.900e+000 1.900e+000 1.900e+000 1.900e+000 1.900e+000 1.900e+000 1.900e+000 1.900e+000 1.900e+000 1.900e+000 1.900e+000 1.900e+000 1.900e+000 1.900e+000 1.900e+000 1.900e+000 1.900e+000 1.900e+000 1.900e+000 1.900e+000 1.900e+000 1.900e+000 1.900e+000 1.900e+000 1.900e+000 1.900e+000 1.900e+000 1.900e+000 1.900e+000 1.900e+000 1.900e+000 1.900e+000 1.900e+000 1.900e+000 1.900e+000 1.900e+000 1.900e+000 1.900e+000 1.900e+000 1.900e+000 1.900e+000 1.900e+000 1.900e+000 1.900e+000 1.900e+000 1.900e+000 1.900e+000 1.900e+000 1.900e+000 1.900e+000 1.900e+000 1.900e+000 1.900e+000 1.900e+000 1.900e+000 1.900e+000 1.900e+000 1.900e+000 1.900e+000 1.900e+000 1.900e+000 1.900e+000 1.900e+000 1.900e+000 1.900e+000 1.900e+000 1.900e+000 1.900e+000 1.900e+000 1.900e+000 1.900e+000 1.900e+000 1.900e+000 1.900e+000 1.900e+000 1.900e+000 1.900e+000 1.900e+000 1.900e+000 1.900e+000 1.900e+000 1.900e+000 1.900e+000 1.900e+000 1.900e+000 1.900e+000 1.900e+000 1.900e+000 1.900e+000 1.900e+000 1.900e+000 1.900e+000 1.900e+000 1.900e+000 1.900e+000 1.900e+000 1.900e+000 1.900e+000 1.900e+000 1.900e+000 1.900e+000 1.900e+000 1.900e+000 1.900e+000 1.900e+000 1.900e+000 1.900e+000 1.900e+000 1.900e+000 1.900e+000 1.900e+000 1.900e+000 1.900e+000 1.900e+000 1.900e+000 1.900e+000 1.900e+000 1.900e+000 1.900e+000 1.900e+000 1.900e+000 1.900e+000 1.900e+000 1.900e+000 1.900e+000 1.900e+000 1.900e+000 1.900e+000 1.900e+000 1.900e+000 1.900e+000 1.900e+000 1.900e+000 1.900e+000 1.900e+000 1.900e+000 1.900e+000 1.900e+000 1.900e+000 1.900e+000 1.900e+000 1.900e+000 1.900e+000 1.900e+000 1.900e+000 1.900e+000 1.900e+000 1.900e+000 1.900e+000 1.900e+000 1.900e+000 1.900e+000 1.900e+000 1.900e+000 1.900e+000 1.900e+000 1.900e+000 1.900e+000 1.900e+000 1.900e+000 1.900e+000 1.900e+000 1.900e+000 1.900e+000 1.900e+000 1.900e+000 1.900e+000 1.900e+000 1.900e+000 1.900e+000 1.900e+000 1.900e+000 1.900e+000 1.900e+000 1.900e+000 1.900e+000 1.900e+000 1.900e+000 1.900e+000 1.900e+000 1.900e+000 1.900e+000 1.900e+000
           </DataArray>
           <DataArray type="Float32" Name="nitrate/Km" NumberOfComponents="1" format="ascii">
 1.610e-002 1.610e-002 1.610e-002 1.610e-002 1.610e-002 1.610e-002 1.610e-002 1.610e-002 1.610e-002 1.610e-002 1.610e-002 1.610e-002 1.610e-002 1.610e-002 1.610e-002 1.610e-002 1.610e-002 1.610e-002 1.610e-002 1.610e-002 1.610e-002 1.610e-002 1.610e-002 1.610e-002 1.610e-002 1.610e-002 1.610e-002 1.610e-002 1.610e-002 1.610e-002 1.610e-002 1.610e-002 1.610e-002 1.610e-002 1.610e-002 1.610e-002 1.610e-002 1.610e-002 1.610e-002 1.610e-002 1.610e-002 1.610e-002 1.610e-002 1.610e-002 1.610e-002 1.610e-002 1.610e-002 1.610e-002 1.610e-002 1.610e-002 1.610e-002 1.610e-002 1.610e-002 1.610e-002 1.610e-002 1.610e-002 1.610e-002 1.610e-002 1.610e-002 1.610e-002 1.610e-002 1.610e-002 1.610e-002 1.610e-002 1.610e-002 1.610e-002 1.610e-002 1.610e-002 1.610e-002 1.610e-002 1.610e-002 1.610e-002 1.610e-002 1.610e-002 1.610e-002 1.610e-002 1.610e-002 1.610e-002 1.610e-002 1.610e-002 1.610e-002 1.610e-002 1.610e-002 1.610e-002 1.610e-002 1.610e-002 1.610e-002 1.610e-002 1.610e-002 1.610e-002 1.610e-002 1.610e-002 1.610e-002 1.610e-002 1.610e-002 1.610e-002 1.610e-002 1.610e-002 1.610e-002 1.610e-002 1.610e-002 1.610e-002 1.610e-002 1.610e-002 1.610e-002 1.610e-002 1.610e-002 1.610e-002 1.610e-002 1.610e-002 1.610e-002 1.610e-002 1.610e-002 1.610e-002 1.610e-002 1.610e-002 1.610e-002 1.610e-002 1.610e-002 1.610e-002 1.610e-002 1.610e-002 1.610e-002 1.610e-002 1.610e-002 1.610e-002 1.610e-002 1.610e-002 1.610e-002 1.610e-002 1.610e-002 1.610e-002 1.610e-002 1.610e-002 1.610e-002 1.610e-002 1.610e-002 1.610e-002 1.610e-002 1.610e-002 1.610e-002 1.610e-002 1.610e-002 1.610e-002 1.610e-002 1.610e-002 1.610e-002 1.610e-002 1.610e-002 1.610e-002 1.610e-002 1.610e-002 1.610e-002 1.610e-002 1.610e-002 1.610e-002 1.610e-002 1.610e-002 1.610e-002 1.610e-002 1.610e-002 1.610e-002 1.610e-002 1.610e-002 1.610e-002 1.610e-002 1.610e-002 1.610e-002 1.610e-002 1.610e-002 1.610e-002 1.610e-002 1.610e-002 1.610e-002 1.610e-002 1.610e-002 1.610e-002 1.610e-002 1.610e-002 1.610e-002 1.610e-002 1.610e-002 1.610e-002 1.610e-002 1.610e-002 1.610e-002 1.610e-002 1.610e-002 1.610e-002 1.610e-002 1.610e-002 1.610e-002 1.610e-002 1.610e-002 1.610e-002 1.610e-002 1.610e-002 1.610e-002 1.610e-002 1.610e-002 1.610e-002 1.610e-002 1.610e-002 1.610e-002 1.610e-002 1.610e-002 1.610e-002 1.610e-002 1.610e-002 1.610e-002 1.610e-002 1.610e-002 1.610e-002 1.610e-002 1.610e-002 1.610e-002 1.610e-002 1.610e-002 1.610e-002 1.610e-002 1.610e-002 1.610e-002 1.610e-002 1.610e-002 1.610e-002 1.610e-002 1.610e-002 1.610e-002 1.610e-002 1.610e-002 1.610e-002 1.610e-002 1.610e-002 1.610e-002 1.610e-002 1.610e-002 1.610e-002 1.610e-002 1.610e-002 1.610e-002 1.610e-002 1.610e-002 1.610e-002 1.610e-002 1.610e-002 1.610e-002 1.610e-002 1.610e-002 1.610e-002 1.610e-002 1.610e-002 1.610e-002 1.610e-002 1.610e-002 1.610e-002 1.610e-002 1.610e-002 1.610e-002 1.610e-002 1.610e-002 1.610e-002 1.610e-002 1.610e-002 1.610e-002 1.610e-002 1.610e-002 1.610e-002 1.610e-002 1.610e-002 1.610e-002 1.610e-002 1.610e-002 1.610e-002 1.610e-002 1.610e-002 1.610e-002 1.610e-002 1.610e-002 1.610e-002 1.610e-002 1.610e-002 1.610e-002 1.610e-002 1.610e-002 1.610e-002 1.610e-002 1.610e-002 1.610e-002 1.610e-002 1.610e-002 1.610e-002 1.610e-002 1.610e-002 1.610e-002 1.610e-002 1.610e-002 1.610e-002 1.610e-002 1.610e-002 1.610e-002 1.610e-002 1.610e-002 1.610e-002 1.610e-002 1.610e-002 1.610e-002 1.610e-002 1.610e-002 1.610e-002 1.610e-002 1.610e-002 1.610e-002 1.610e-002 1.610e-002 1.610e-002 1.610e-002 1.610e-002 1.610e-002 1.610e-002 1.610e-002 1.610e-002 1.610e-002 1.610e-002 1.610e-002 1.610e-002 1.610e-002 1.610e-002 1.610e-002 1.610e-002 1.610e-002 1.610e-002 1.610e-002 1.610e-002 1.610e-002 1.610e-002 1.610e-002 1.610e-002 1.610e-002 1.610e-002 1.610e-002 1.610e-002 1.610e-002 1.610e-002 1.610e-002 1.610e-002 1.610e-002 1.610e-002 1.610e-002 1.610e-002 1.610e-002 1.610e-002 1.610e-002 1.610e-002
           </DataArray>
           <DataArray type="Float32" Name="nitrate/minimalNutrientConcentration" NumberOfComponents="1" format="ascii">