<?xml version="1.0"?>
<VTKFile type="UnstructuredGrid" version="0.1" byte_order="LittleEndian">
   <UnstructuredGrid>
      <Piece NumberOfPoints="75910" NumberOfCells="5645">
         <Points>
            <DataArray type="Float32" Name="Position" NumberOfComponents="3" format="ascii">
-0.110	-5.023	0.073
-0.106	-5.023	0.082
-0.109	-5.022	0.091
-0.116	-5.021	0.097
-0.125	-5.020	0.098
-0.133	-5.020	0.093
-0.136	-5.020	0.084
-0.134	-5.021	0.075
-0.127	-5.022	0.069
-0.118	-5.023	0.069
-0.180	-5.854	0.146
-0.176	-5.853	0.154
-0.178	-5.851	0.163
-0.185	-5.850	0.169
-0.195	-5.849	0.169
-0.203	-5.849	0.165
-0.206	-5.850	0.156
-0.204	-5.852	0.147
-0.197	-5.853	0.141
-0.187	-5.854	0.141
-0.220	-6.715	0.311
-0.217	-6.714	0.319
-0.219	-6.713	0.328
-0.225	-6.712	0.334
-0.235	-6.712	0.335
-0.243	-6.713	0.331
-0.246	-6.714	0.323
-0.245	-6.715	0.314
-0.238	-6.716	0.307
-0.228	-6.716	0.306
-0.134	-7.585	0.393
-0.130	-7.583	0.402
-0.132	-7.582	0.411
-0.139	-7.582	0.417
-0.148	-7.582	0.418
-0.156	-7.584	0.414
-0.160	-7.585	0.406
-0.158	-7.586	0.397
-0.151	-7.587	0.390
-0.142	-7.586	0.389
-0.085	-8.451	0.569
-0.081	-8.450	0.577
-0.083	-8.448	0.586
-0.090	-8.447	0.592
-0.099	-8.447	0.593
-0.107	-8.449	0.588
-0.111	-8.451	0.580
-0.109	-8.452	0.571
-0.102	-8.453	0.565
-0.093	-8.453	0.564
-0.227	-5.074	0.160
-0.224	-5.065	0.161
-0.228	-5.056	0.163
-0.235	-5.052	0.166
-0.244	-5.053	0.169
-0.251	-5.059	0.170
-0.253	-5.068	0.169
-0.250	-5.076	0.167
-0.242	-5.081	0.164
-0.234	-5.080	0.161
-0.014	-5.189	0.902
-0.012	-5.180	0.903
-0.015	-5.172	0.904
-0.023	-5.167	0.907
-0.032	-5.168	0.910
-0.039	-5.174	0.911
-0.041	-5.183	0.911
-0.038	-5.191	0.909
-0.030	-5.196	0.906
-0.021	-5.195	0.904
0.252	-5.242	1.777
0.254	-5.233	1.777
0.251	-5.224	1.779
0.243	-5.220	1.782
0.234	-5.221	1.785
0.228	-5.227	1.787
0.226	-5.236	1.787
0.229	-5.245	1.785
0.237	-5.249	1.782
0.246	-5.248	1.779
0.538	-5.304	2.504
0.539	-5.295	2.505
0.535	-5.287	2.508
0.528	-5.284	2.512
0.519	-5.286	2.515
0.514	-5.293	2.517
0.512	-5.302	2.516
0.516	-5.310	2.513
0.524	-5.313	2.509
0.532	-5.311	2.506
0.934	-5.458	3.259
0.936	-5.449	3.260
0.932	-5.441	3.263
0.924	-5.437	3.267
0.916	-5.438	3.270
0.910	-5.445	3.271
0.908	-5.454	3.270
0.912	-5.462	3.268
0.919	-5.466	3.264
0.928	-5.464	3.261
1.010	-5.490	3.522
1.012	-5.481	3.522
1.009	-5.473	3.524
1.001	-5.468	3.527
0.992	-5.469	3.529
0.985	-5.475	3.530
0.983	-5.484	3.530
0.986	-5.493	3.528
0.994	-5.497	3.525
1.003	-5.496	3.523
-1.200	-5.740	0.827
-1.198	-5.733	0.832
-1.198	-5.724	0.832
-1.201	-5.716	0.827
-1.206	-5.713	0.820
-1.210	-5.716	0.812
-1.213	-5.723	0.808
-1.213	-5.733	0.807
-1.210	-5.740	0.812
-1.205	-5.743	0.819
-1.872	-5.773	1.234
-1.870	-5.766	1.239
-1.870	-5.756	1.240
-1.874	-5.749	1.235
-1.878	-5.746	1.228
-1.883	-5.749	1.220
-1.885	-5.756	1.215
-1.884	-5.765	1.215
-1.881	-5.773	1.219
-1.876	-5.776	1.226
-2.578	-5.867	1.630
-2.576	-5.860	1.636
-2.578	-5.851	1.637
-2.582	-5.844	1.634
-2.587	-5.840	1.627
-2.591	-5.843	1.618
-2.592	-5.850	1.612
-2.590	-5.858	1.611
-2.586	-5.866	1.614
-2.581	-5.869	1.621
-3.246	-6.177	1.975
-3.245	-6.170	1.982
-3.248	-6.162	1.984
-3.253	-6.154	1.981
-3.258	-6.151	1.975
-3.262	-6.153	1.967
-3.263	-6.159	1.960
-3.260	-6.168	1.957
-3.256	-6.175	1.960
-3.250	-6.179	1.967
-3.907	-6.460	2.396
-3.906	-6.453	2.403
-3.909	-6.445	2.406
-3.914	-6.438	2.405
-3.921	-6.435	2.399
-3.926	-6.436	2.392
-3.927	-6.443	2.385
-3.925	-6.451	2.382
-3.919	-6.458	2.383
-3.912	-6.461	2.389
-4.181	-6.716	2.672
-4.179	-6.710	2.679
-4.182	-6.702	2.683
-4.189	-6.696	2.683
-4.196	-6.692	2.678
-4.202	-6.694	2.671
-4.204	-6.700	2.664
-4.201	-6.708	2.660
-4.194	-6.714	2.660
-4.187	-6.717	2.665
-6.896	-17.119	4.838
-6.898	-17.110	4.837
-6.897	-17.102	4.831
-6.892	-17.099	4.824
-6.886	-17.102	4.817
-6.881	-17.109	4.813
-6.879	-17.118	4.815
-6.881	-17.125	4.820
-6.885	-17.128	4.827
-6.891	-17.126	4.834
-7.586	-17.355	4.332
-7.589	-17.346	4.332
-7.589	-17.338	4.327
-7.586	-17.334	4.320
-7.581	-17.335	4.312
-7.575	-17.341	4.308
-7.572	-17.350	4.308
-7.572	-17.358	4.313
-7.575	-17.362	4.320
-7.581	-17.361	4.328
-8.201	-17.638	3.964
-8.204	-17.629	3.965
-8.205	-17.621	3.962
-8.203	-17.616	3.954
-8.199	-17.616	3.946
-8.194	-17.621	3.940
-8.190	-17.629	3.939
-8.189	-17.637	3.943
-8.191	-17.643	3.950
-8.196	-17.643	3.958
-8.757	-17.797	3.682
-8.760	-17.788	3.683
-8.760	-17.780	3.679
-8.758	-17.775	3.672
-8.754	-17.775	3.664
-8.749	-17.780	3.658
-8.746	-17.789	3.656
-8.745	-17.798	3.660
-8.748	-17.803	3.667
-8.752	-17.802	3.676
-6.911	-17.255	4.852
-6.910	-17.247	4.856
-6.914	-17.242	4.863
-6.921	-17.242	4.870
-6.927	-17.247	4.873
-6.932	-17.255	4.873
-6.932	-17.263	4.868
-6.929	-17.268	4.861
-6.922	-17.268	4.855
-6.915	-17.263	4.851
-6.413	-17.566	5.347
-6.412	-17.558	5.351
-6.415	-17.553	5.358
-6.422	-17.552	5.364
-6.429	-17.557	5.368
-6.434	-17.565	5.367
-6.435	-17.573	5.363
-6.431	-17.578	5.356
-6.425	-17.578	5.350
-6.417	-17.574	5.346
-5.943	-17.942	5.886
-5.942	-17.934	5.891
-5.945	-17.930	5.898
-5.952	-17.930	5.904
-5.959	-17.934	5.908
-5.964	-17.942	5.907
-5.965	-17.950	5.902
-5.962	-17.954	5.894
-5.955	-17.955	5.888
-5.948	-17.950	5.885
-5.444	-18.353	6.366
-5.436	-18.353	6.371
-5.427	-18.353	6.369
-5.420	-18.353	6.363
-5.419	-18.353	6.353
-5.423	-18.353	6.345
-5.431	-18.353	6.341
-5.441	-18.353	6.342
-5.447	-18.353	6.349
-5.449	-18.353	6.358
-6.948	-17.409	4.904
-6.944	-17.402	4.908
-6.944	-17.393	4.909
-6.948	-17.385	4.905
-6.954	-17.382	4.899
-6.961	-17.385	4.893
-6.965	-17.392	4.889
-6.965	-17.401	4.889
-6.961	-17.409	4.893
-6.954	-17.412	4.898
-7.507	-17.437	5.522
-7.503	-17.430	5.526
-7.503	-17.421	5.526
-7.507	-17.413	5.523
-7.514	-17.410	5.517
-7.521	-17.413	5.512
-7.525	-17.420	5.508
-7.525	-17.430	5.508
-7.520	-17.437	5.511
-7.514	-17.440	5.516
-8.069	-17.463	6.216
-8.065	-17.455	6.219
-8.065	-17.446	6.219
-8.069	-17.439	6.216
-8.077	-17.436	6.211
-8.083	-17.438	6.206
-8.088	-17.446	6.202
-8.087	-17.455	6.202
-8.083	-17.463	6.205
-8.076	-17.466	6.210
-8.369	-17.488	6.629
-8.364	-17.480	6.633
-8.365	-17.471	6.633
-8.369	-17.463	6.630
-8.376	-17.460	6.625
-8.383	-17.463	6.620
-8.388	-17.471	6.617
-8.387	-17.480	6.616
-8.383	-17.487	6.619
-8.376	-17.490	6.624
-6.972	-17.539	4.919
-6.973	-17.531	4.924
-6.977	-17.527	4.931
-6.983	-17.528	4.938
-6.988	-17.534	4.943
-6.991	-17.543	4.943
-6.990	-17.551	4.938
-6.985	-17.555	4.931
-6.980	-17.554	4.924
-6.975	-17.548	4.919
-6.326	-17.726	5.396
-6.326	-17.718	5.401
-6.330	-17.715	5.409
-6.336	-17.717	5.416
-6.340	-17.724	5.420
-6.343	-17.732	5.420
-6.342	-17.740	5.414
-6.338	-17.744	5.407
-6.333	-17.742	5.399
-6.328	-17.735	5.395
-5.625	-17.983	5.787
-5.625	-17.977	5.793
-5.628	-17.975	5.802
-5.632	-17.978	5.809
-5.636	-17.986	5.813
-5.639	-17.994	5.811
-5.639	-18.001	5.805
-5.636	-18.003	5.796
-5.632	-17.999	5.788
-5.628	-17.992	5.785
-5.242	-18.134	5.865
-5.241	-18.128	5.873
-5.243	-18.127	5.882
-5.246	-18.131	5.889
-5.250	-18.139	5.892
-5.252	-18.148	5.890
-5.253	-18.154	5.883
-5.252	-18.155	5.874
-5.248	-18.150	5.866
-5.245	-18.142	5.863
-6.996	-17.686	4.952
-6.997	-17.677	4.955
-7.001	-17.672	4.961
-7.008	-17.671	4.968
-7.014	-17.677	4.972
-7.018	-17.685	4.972
-7.018	-17.694	4.969
-7.013	-17.699	4.963
-7.007	-17.699	4.957
-7.000	-17.694	4.952
-6.415	-17.900	5.560
-6.415	-17.892	5.563
-6.420	-17.886	5.568
-6.427	-17.886	5.575
-6.433	-17.891	5.579
-6.437	-17.899	5.580
-6.436	-17.908	5.577
-6.432	-17.913	5.571
-6.425	-17.914	5.565
-6.418	-17.909	5.560
-5.912	-18.024	6.125
-5.912	-18.015	6.127
-5.917	-18.009	6.133
-5.924	-18.008	6.139
-5.931	-18.012	6.143
-5.934	-18.021	6.145
-5.934	-18.030	6.142
-5.929	-18.036	6.137
-5.922	-18.037	6.131
-5.916	-18.033	6.127
-5.455	-18.134	6.730
-5.455	-18.125	6.732
-5.460	-18.118	6.737
-5.467	-18.117	6.743
-5.474	-18.122	6.748
-5.478	-18.130	6.749
-5.477	-18.139	6.747
-5.472	-18.145	6.743
-5.465	-18.146	6.737
-5.458	-18.142	6.732
-5.308	-18.158	6.906
-5.309	-18.149	6.908
-5.314	-18.143	6.913
-5.321	-18.142	6.919
-5.327	-18.146	6.924
-5.331	-18.155	6.925
-5.330	-18.164	6.923
-5.325	-18.170	6.918
-5.318	-18.171	6.912
-5.311	-18.166	6.908
-7.034	-17.819	4.983
-7.026	-17.818	4.988
-7.021	-17.821	4.995
-7.020	-17.828	5.001
-7.025	-17.836	5.004
-7.032	-17.841	5.003
-7.040	-17.842	4.998
-7.045	-17.839	4.992
-7.046	-17.832	4.985
-7.042	-17.824	4.982
-6.611	-18.297	4.396
-6.603	-18.297	4.401
-6.598	-18.301	4.407
-6.597	-18.307	4.414
-6.602	-18.314	4.417
-6.610	-18.319	4.417
-6.618	-18.320	4.413
-6.623	-18.316	4.406
-6.624	-18.309	4.400
-6.619	-18.302	4.396
-6.319	-18.874	3.810
-6.311	-18.874	3.813
-6.305	-18.878	3.820
-6.305	-18.885	3.826
-6.310	-18.892	3.830
-6.318	-18.896	3.830
-6.326	-18.896	3.826
-6.332	-18.892	3.820
-6.332	-18.885	3.814
-6.327	-18.878	3.810
-6.208	-19.121	3.566
-6.200	-19.121	3.570
-6.191	-19.121	3.569
-6.184	-19.121	3.562
-6.183	-19.121	3.553
-6.187	-19.121	3.545
-6.195	-19.121	3.540
-6.204	-19.121	3.542
-6.211	-19.121	3.548
-6.212	-19.121	3.558
-7.060	-17.963	5.014
-7.052	-17.962	5.019
-7.047	-17.966	5.025
-7.046	-17.973	5.032
-7.051	-17.980	5.035
-7.058	-17.985	5.034
-7.066	-17.986	5.030
-7.072	-17.983	5.023
-7.072	-17.976	5.017
-7.068	-17.968	5.013
-6.681	-18.463	4.446
-6.672	-18.462	4.450
-6.666	-18.465	4.456
-6.665	-18.473	4.462
-6.668	-18.480	4.465
-6.676	-18.486	4.465
-6.684	-18.487	4.461
-6.690	-18.483	4.455
-6.692	-18.476	4.449
-6.688	-18.468	4.446
-6.351	-18.833	3.729
-6.343	-18.832	3.732
-6.336	-18.836	3.737
-6.333	-18.843	3.742
-6.336	-18.851	3.745
-6.343	-18.857	3.745
-6.352	-18.858	3.742
-6.359	-18.855	3.737
-6.361	-18.847	3.732
-6.358	-18.839	3.729
-6.313	-18.882	3.639
-6.304	-18.881	3.642
-6.297	-18.885	3.647
-6.295	-18.892	3.652
-6.298	-18.900	3.655
-6.305	-18.906	3.655
-6.314	-18.907	3.652
-6.321	-18.904	3.647
-6.323	-18.896	3.642
-6.320	-18.888	3.639
-7.095	-18.120	5.066
-7.094	-18.111	5.064
-7.089	-18.105	5.059
-7.083	-18.104	5.052
-7.078	-18.109	5.046
-7.075	-18.118	5.044
-7.076	-18.127	5.046
-7.080	-18.133	5.052
-7.087	-18.133	5.059
-7.092	-18.128	5.064
-7.718	-18.185	4.492
-7.716	-18.176	4.490
[...]
         <CellData>
           <DataArray type="Float32" Name="combinedRootClassID" NumberOfComponents="1" format="ascii">
 -1.300e+001 -1.300e+001 -1.300e+001 -1.300e+001 -1.300e+001 -1.300e+001 -1.300e+001 -1.300e+001 -1.300e+001 -1.300e+001 -1.300e+001 -1.300e+001 -1.300e+001 -1.300e+001 -1.300e+001 -1.300e+001 -1.300e+001 -1.300e+001 -1.300e+001 -1.300e+001 -1.300e+001 -1.300e+001 -1.300e+001 -1.300e+001 -1.300e+001 -1.300e+001 -1.300e+001 -1.300e+001 -1.300e+001 -1.300e+001 -1.300e+001 -1.300e+001 -1.300e+001 -1.300e+001 -1.300e+001 -1.300e+001 -1.300e+001 -1.300e+001 -1.300e+001 -1.300e+001 -1.300e+001 -1.300e+001 -1.300e+001 -1.300e+001 -1.300e+001 -1.300e+001 -1.300e+001 -1.300e+001 -1.300e+001 -1.300e+001 -1.300e+001 -1.300e+001 -1.300e+001 -1.300e+001 -1.300e+001 -1.300e+001 -1.300e+001 -1.300e+001 -1.300e+001 -1.300e+001 -1.300e+001 -1.300e+001 -1.300e+001 -1.300e+001 -1.300e+001 -1.300e+001 -1.300e+001 -1.300e+001 -1.300e+001 -1.300e+001 -1.300e+001 -1.300e+001 -1.300e+001 -1.300e+001 -1.300e+001 -1.300e+001 -1.300e+001 -1.300e+001 -1.300e+001 -1.300e+001 -1.300e+001 -1.300e+001 -1.300e+001 -1.300e+001 -1.300e+001 -1.300e+001 -1.300e+001 -1.300e+001 -1.300e+001 -1.300e+001 -1.300e+001 -1.300e+001 -1.300e+001 -1.300e+001 -1.300e+001 -1.300e+001 -1.300e+001 -1.300e+001 -1.300e+001 -1.300e+001 -1.300e+001 -1.300e+001 -1.300e+001 -1.300e+001 -1.300e+001 -1.300e+001 -1.300e+001 -1.300e+001 -1.300e+001 -1.300e+001 -1.300e+001 -1.300e+001 -1.300e+001 -1.300e+001 -1.300e+001 -1.300e+001 -1.300e+001 -1.300e+001 -1.300e+001 -1.300e+001 -1.300e+001 -1.300e+001 -1.300e+001 -1.300e+001 -1.300e+001 -1.300e+001 -1.300e+001 -1.300e+001 -1.300e+001 -1.300e+001 -1.300e+001 -1.300e+001 -1.300e+001 -1.300e+001 -1.300e+001 -1.300e+001 -1.300e+001 -1.300e+001 -1.300e+001 -1.300e+001 -1.300e+001 -1.300e+001 -1.300e+001 -1.300e+001 -1.300e+001 -1.300e+001 -1.300e+001 -1.300e+001 -1.300e+001 -1.300e+001 -1.300e+001 -1.300e+001 -1.300e+001 -1.300e+001 -1.300e+001 -1.300e+001 -1.300e+001 -1.300e+001 -1.300e+001 -1.300e+001 -1.300e+001 -1.300e+001 -1.300e+001 -1.300e+001 -1.300e+001 -1.300e+001 -1.300e+001 -1.300e+001 -1.300e+001 -1.300e+001 -1.300e+001 -1.300e+001 -1.300e+001 -1.300e+001 -1.300e+001 -1.300e+001 -1.300e+001 -1.300e+001 -1.300e+001 -1.300e+001 -1.300e+001 -1.300e+001 -1.300e+001 -1.300e+001 -1.300e+001 -1.300e+001 -1.300e+001 -1.300e+001 -1.300e+001 -1.300e+001 -1.300e+001 -1.300e+001 -1.300e+001 -1.300e+001 -1.300e+001 -1.300e+001 -1.300e+001 -1.300e+001 -1.300e+001 -1.300e+001 -1.300e+001 -1.300e+001 -1.300e+001 -1.300e+001 -1.300e+001 -1.300e+001 -1.300e+001 -1.300e+001 -1.300e+001 -1.300e+001 -1.300e+001 -1.300e+001 -1.300e+001 -1.300e+001 -1.300e+001 -1.300e+001 -1.300e+001 -1.300e+001 -1.300e+001 -1.300e+001 -1.300e+001 -1.300e+001 -1.300e+001 -1.300e+001 -1.300e+001 -1.300e+001 -1.300e+001 -1.300e+001 -1.300e+001 -1.300e+001 -1.300e+001 -1.300e+001 -1.300e+001 -1.300e+001 -1.300e+001 -1.300e+001 -1.300e+001 -1.300e+001 -1.300e+001 -1.300e+001 -1.300e+001 -1.300e+001 -1.300e+001 -1.300e+001 -1.300e+001 -1.300e+001 -1.300e+001 -1.300e+001 -1.300e+001 -1.300e+001 -1.300e+001 -1.300e+001 -1.300e+001 -1.300e+001 -1.300e+001 -1.300e+001 -1.300e+001 -1.300e+001 -1.300e+001 -1.300e+001 -1.300e+001 -1.300e+001 -1.300e+001 -1.300e+001 -1.300e+001 -1.300e+001 -1.300e+001 -1.300e+001 -1.300e+001 -1.300e+001 -1.300e+001 -1.300e+001 -1.300e+001 -1.300e+001 -1.300e+001 -1.300e+001 -1.300e+001 -1.300e+001 -1.300e+001 -1.300e+001 -1.300e+001 -1.300e+001 -1.300e+001 -1.300e+001 -1.300e+001 -1.300e+001 -1.300e+001 -1.300e+001 -1.300e+001 -1.300e+001 -1.300e+001 -1.300e+001 -1.300e+001 -1.300e+001 -1.300e+001 -1.300e+001 -1.300e+001 -1.300e+001 -1.300e+001 -1.300e+001 -1.300e+001 -1.300e+001 -1.300e+001 -1.300e+001 -1.300e+001 -1.300e+001 -1.300e+001 -1.300e+001 -1.300e+001 -1.300e+001 -1.300e+001 -1.300e+001 -1.300e+001 -1.300e+001 -1.300e+001 -1.300e+001 -1.300e+001 -1.300e+001 -1.300e+001 -1.300e+001 -1.300e+001 -1.300e+001 -1.300e+001 -1.300e+001 -1.300e+001 -1.300e+001 -1.300e+001 -1.300e+001 -1.300e+001 -1.300e+001 -1.300e+001 -1.300e+001 -1.300e+001 -1.300e+001 -1.300e+001 -1.300e+001 -1.300e+001 -1.300e+001 -1.300e+001 -1.300e+001 -1.300e+001 -1.300e+001 -1.300e+001 -1.300e+001 -1.300e+001 -1.300e+001 -1.300e+001 -1.300e+001 -1.300e+001 -1.300e+001 -1.300e+001 -1.300e+001 -1.300e+001 -1.300e+001 -1.300e+001 -1.300e+001 -1.300e+001 -1.300e+001 -1.300e+001 -1.300e+001 -1.300e+001 -1.300e+001 -1.300e+001 -1.300e+001 -1.300e+001 -1.300e+001 -1.300e+001 -1.300e+001 -1.300e+001 -1.300e+001 -1.300e+001 -1.300e+001 -1.300e+001 -1.300e+001 -1.300e+001 -1.300e+001 -1.300e+001 -1.300e+001 -1.300e+001 -1.300e+001 -1.300e+001 -1.300e+001 -1.300e+001 -1.300e+001 -1.300e+001 -1.300e+001 -1.300e+001 -1.300e+001 -1.300e+001 -1.300e+001 -1.300e+001 -1.300e+001 -1.300e+001 -1.300e+001 -1.300e+001 -1.300e+001 -1.300e+001 -1.300e+001 -1.300e+001 -1.300e+001 -1.300e+001 -1.300e+001 -1.300e+001 -1.300e+001 -1.300e+001 -1.300e+001 -1.300e+001 -1.300e+001 -1.300e+001 -1.300e+001 -1.300e+001 -1.300e+001 -1.300e+001 -1.300e+001 -1.300e+001 -1.300e+001 -1.300e+001 -1.300e+001 -1.300e+001 -1.300e+001 -1.300e+001 -1.300e+001 -1.300e+001 -1.300e+001 -1.300e+001 -1.300e+001 -1.300e+001 -1.300e+001 -1.300e+001 -1.300e+001 -1.300e+001 -1.300e+001 -1.300e+001 -1.300e+001 -1.300e+001 -1.300e+001 -1.300e+001 -1.300e+001 -1.300e+001 -1.300e+001 -1.300e+001 -1.300e+001 -1.300e+001 -1.300e+001 -1.300e+001 -1.300e+001 -1.300e+001 -1.300e+001 -1.300e+001 -1.300e+001 -1.300e+001 -1.300e+001 -1.300e+001 -1.300e+001 -1.300e+001 -1.300e+001 -1.300e+001 -1.300e+001 -1.300e+001 -1.300e+001 -1.300e+001 -1.300e+001 -1.300e+001 -1.300e+001 -1.300e+001 -1.300e+001 -1.300e+001 -1.300e+001 -1.300e+001 -1.300e+001 -1.300e+001 -1.300e+001 -1.300e+001 -1.300e+001 -1.300e+001 -1.300e+001 -1.300e+001 -1.300e+001 -1.300e+001 -1.300e+001 -1.300e+001 -1.300e+001 -1.300e+001 -1.300e+001 -1.300e+001 -1.300e+001 -1.300e+001 -1.300e+001 -1.300e+001 -1.300e+001 -1.300e+001 -1.300e+001 -1.300e+001 -1.300e+001 -1.300e+001 -1.300e+001 -1.300e+001 -1.300e+001 -1.300e+001 -1.300e+001 -1.300e+001 -1.300e+001 -1.300e+001 -1.300e+001 -1.300e+001 -1.300e+001 -1.300e+001 -1.300e+001 -1.300e+001 -1.300e+001 -1.300e+001 -1.300e+001 -1.300e+001 -1.300e+001 -1.300e+001 -1.300e+001 -1.300e+001 -1.300e+001 -1.300e+001 -1.300e+001 -1.300e+001 -1.300e+001 -1.300e+001 -1.300e+001 -1.300e+001 -1.300e+001 -1.300e+001 -1.300e+001 -1.300e+001 -1.300e+001 -1.300e+001 -1.300e+001 -1.300e+001 -1.300e+001 -1.300e+001 -1.300e+001 -1.300e+001 -1.300e+001 -1.300e+001 -1.300e+001 -1.300e+001 -1.300e+001 -1.300e+001 -1.300e+001 -1.300e+001 -1.300e+001 -1.300e+001 -1.300e+001 -1.300e+001 -1.300e+001 -1.300e+001 -1.300e+001 -1.300e+001 -1.300e+001 -1.300e+001 -1.300e+001 -1.300e+001 -1.300e+001 -1.300e+001 -1.300e+001 -1.300e+001 -1.300e+001 -1.300e+001 -1.300e+001 -1.300e+001 -1.300e+001 -1.300e+001 -1.300e+001 -1.300e+001 -1.300e+001 -5.000e+000 -5.000e+000 -5.000e+000 -5.000e+000 -5.000e+000 -5.000e+000 -5.000e+000 -5.000e+000 -5.000e+000 -5.000e+000 -5.000e+000 -5.000e+000 -5.000e+000 -5.000e+000 -5.000e+000 -5.000e+000 -5.000e+000 -5.000e+000 -5.000e+000 -5.000e+000 -5.000e+000 -5.000e+000 -5.000e+000 -5.000e+000 -5.000e+000 -5.000e+000 -5.000e+000 -5.000e+000 -5.000e+000 -5.000e+000 -5.000e+000 -5.000e+000 -5.000e+000 -5.000e+000 -5.000e+000 -5.000e+000 -5.000e+000 -5.000e+000 -5.000e+000 -5.000e+000 -5.000e+000 -5.000e+000 -5.000e+000 -5.000e+000 -5.000e+000 -5.000e+000 -5.000e+000 -5.000e+000 -1.300e+001 -1.300e+001 -1.300e+001 -1.300e+001 -1.300e+001 -1.300e+001 -1.300e+001 -1.300e+001 -1.300e+001 -1.300e+001 -1.300e+001 -1.300e+001 -1.300e+001 -1.300e+001 -1.300e+001 -1.300e+001 -1.300e+001 -1.300e+001 -1.300e+001 -1.300e+001 -1.300e+001 -1.300e+001 -1.300e+001 -1.300e+001 -1.300e+001 -1.300e+001 -1.300e+001 -1.300e+001 -1.300e+001 -1.300e+001 -1.300e+001 -1.300e+001 -1.300e+001 -1.300e+001 -1.300e+001 -1.300e+001 -1.300e+001 -1.300e+001 -1.300e+001 -1.300e+001 -1.300e+001 -1.300e+001 -1.300e+001 -1.300e+001 -1.300e+001 -1.300e+001 -1.300e+001 -1.300e+001 -1.300e+001 -1.300e+001 -1.300e+001 -1.300e+001 -1.300e+001 -1.300e+001 -1.300e+001 -1.300e+001 -1.300e+001 -1.300e+001 -1.300e+001 -1.300e+001 -1.300e+001 -1.300e+001 -1.300e+001 -1.300e+001 -1.300e+001 -1.300e+001 -1.300e+001 -1.300e+001 -1.300e+001 -1.300e+001 -1.300e+001 -1.300e+001 -1.300e+001 -1.300e+001 -1.300e+001 -1.300e+001 -1.300e+001 -1.300e+001 -1.300e+001 -1.300e+001 -1.300e+001 -1.300e+001 -1.300e+001 -1.300e+001 -1.300e+001 -1.300e+001 -1.300e+001 -1.300e+001 -1.300e+001 -1.300e+001 -1.300e+001 -1.300e+001 -1.300e+001 -1.300e+001 -1.300e+001 -1.300e+001 -1.300e+001 -1.300e+001 -1.300e+001 -1.300e+001 -1.300e+001 -1.300e+001 -1.300e+001 -1.300e+001 -1.300e+001 -1.300e+001 -1.300e+001 -1.300e+001 -1.300e+001 -1.300e+001 -1.300e+001 -1.300e+001 -1.300e+001 -1.300e+001 -1.300e+001 -1.300e+001 -1.300e+001 -1.300e+001 -1.300e+001 -1.300e+001 -1.300e+001 -1.300e+001 -1.300e+001 -1.300e+001 -1.300e+001 -1.300e+001 -1.300e+001 -1.300e+001 -1.300e+001 -1.300e+001 -1.300e+001 -1.300e+001 -1.300e+001 -1.300e+001 -1.300e+001 -1.300e+001 -1.300e+001 -1.300e+001 -1.300e+001 -1.300e+001 -1.300e+001 -1.300e+001 -1.300e+001 -1.300e+001 -1.300e+001 -1.300e+001 -1.300e+001 -1.300e+001 -1.300e+001 -1.300e+001 -1.300e+001 -1.300e+001 -1.300e+001 -1.300e+001 -1.300e+001 -1.300e+001 -1.300e+001 -1.300e+001 -1.300e+001 -1.300e+001 -1.300e+001 -1.300e+001 -1.300e+001 -1.300e+001 -1.300e+001 -1.300e+001 -1.300e+001 -1.300e+001 -1.300e+001 -1.300e+001 -1.300e+001 -1.300e+001 -1.300e+001 -1.300e+001 -1.300e+001 -1.300e+001 -1.300e+001 -1.300e+001 -1.300e+001 -1.300e+001 -1.300e+001 -1.300e+001 -1.300e+001 -1.300e+001 -1.300e+001 -1.300e+001 -1.300e+001 -1.300e+001 -1.300e+001 -1.300e+001 -1.300e+001 -1.300e+001 -1.300e+001 -1.300e+001 -1.300e+001 -1.300e+001 -1.300e+001 -1.300e+001 -1.300e+001 -1.300e+001 -1.300e+001 -1.300e+001 -1.300e+001 -1.300e+001 -1.300e+001 -1.300e+001 -1.300e+001 -1.300e+001 -1.300e+001 -1.300e+001 -1.300e+001 -1.300e+001 -1.300e+001 -1.300e+001 -1.300e+001 -1.300e+001 -1.300e+001 -1.300e+001 -1.300e+001 -1.300e+001 -1.300e+001 -1.300e+001 -1.300e+001 -1.300e+001 -1.300e+001 -1.300e+001 -1.300e+001 -1.300e+001 -1.300e+001 -1.300e+001 -1.300e+001 -1.300e+001 -1.300e+001 -1.300e+001 -1.300e+001 -1.300e+001 -1.300e+001 -1.300e+001 -1.300e+001 -1.300e+001 -1.300e+001 -1.300e+001 -1.300e+001 -1.300e+001 -1.300e+001 -1.300e+001 -1.300e+001 -1.300e+001 -1.300e+001 -1.300e+001 -1.300e+001 -1.300e+001 -1.300e+001 -1.300e+001 -1.300e+001 -1.300e+001 -1.300e+001 -1.300e+001 -1.300e+001 -1.300e+001 -1.300e+001 -1.300e+001 -1.300e+001 -1.300e+001 -1.300e+001 -1.300e+001 -1.300e+001 -1.300e+001 -1.300e+001 -1.300e+001 -1.300e+001 -1.300e+001 -1.300e+001 -1.300e+001 -1.300e+001 -1.300e+001 -1.300e+001 -1.300e+001 -1.300e+001 -1.300e+001 -1.300e+001 -1.300e+001 -1.300e+001 -1.300e+001 -1.300e+001 -1.300e+001 -1.300e+001 -1.300e+001 -1.300e+001 -1.300e+001 -1.300e+001 -1.300e+001 -1.300e+001 -1.300e+001 -1.300e+001 -1.300e+001 -1.300e+001 -1.300e+001 -1.300e+001 -1.300e+001 -1.300e+001 -1.300e+001 -1.300e+001 -1.300e+001 -1.300e+001 -1.300e+001 -1.300e+001 -1.300e+001 -1.300e+001 -1.300e+001 -1.300e+001 -1.300e+001 -1.300e+001 -1.300e+001 -1.300e+001 -1.300e+001 -1.300e+001 -1.300e+001 -1.300e+001 -1.300e+001 -1.300e+001 -1.300e+001 -1.300e+001 -1.300e+001 -1.300e+001 -1.300e+001 -1.300e+001 -1.300e+001 -1.300e+001 -1.300e+001 -1.300e+001 -1.300e+001 -1.300e+001 -1.300e+001 -1.300e+001 -1.300e+001 -1.300e+001 -1.300e+001 -1.300e+001 -1.300e+001 -1.300e+001 -1.300e+001 -1.300e+001 -1.300e+001 -1.300e+001 -1.300e+001 -1.300e+001 -1.300e+001 -1.300e+001 -1.300e+001 -1.300e+001 -1.300e+001 -1.300e+001 -1.300e+001 -1.300e+001 -1.300e+001 -1.300e+001 -1.300e+001 -1.300e+001 -1.300e+001 -1.300e+001 -1.300e+001 -1.300e+001 -1.300e+001 -1.300e+001 -1.300e+001 -1.300e+001 -1.300e+001 -1.300e+001 -1.300e+001 -1.300e+001 -1.300e+001 -1.300e+001 -1.300e+001 -1.300e+001 -1.300e+001 -1.300e+001 -1.300e+001 -1.300e+001 -1.300e+001 -1.300e+001 -1.300e+001 -1.300e+001 -1.300e+001 -1.300e+001 -1.300e+001 -1.300e+001 -1.300e+001 -1.300e+001 -1.300e+001 -1.300e+001 -1.300e+001 -1.300e+001 -1.300e+001 -1.300e+001 -1.300e+001 -1.300e+001 -1.300e+001 -1.300e+001 -1.300e+001 -1.300e+001 -1.300e+001 -1.300e+001 -1.300e+001 -1.300e+001 -1.300e+001 -1.300e+001 -1.300e+001 -1.300e+001 -1.300e+001 -1.300e+001 -1.300e+001 -1.300e+001 -1.300e+001 -1.300e+001 -1.300e+001 -1.300e+001 -1.300e+001 -1.300e+001 -1.300e+001 -1.300e+001 -1.300e+001 -1.300e+001 -1.300e+001 -1.300e+001 -1.300e+001 -1.300e+001 -1.300e+001 -1.300e+001 -1.300e+001 -1.300e+001 -1.300e+001 -1.300e+001 -1.300e+001 -1.300e+001 -1.300e+001 -1.300e+001 -1.300e+001 -1.300e+001 -1.300e+001 -1.300e+001 -1.300e+001 -1.300e+001 -1.300e+001 -1.300e+001 -1.300e+001 -1.300e+001 -1.300e+001 -1.300e+001 -1.300e+001 -1.300e+001 -1.300e+001 -1.300e+001 -1.300e+001 -1.300e+001 -1.300e+001 -1.300e+001 -1.300e+001 -1.300e+001 -1.300e+001 -1.300e+001 -1.300e+001 -1.300e+001 -1.300e+001 -1.300e+001 -1.300e+001 -1.300e+001 -1.300e+001 -1.300e+001 -1.300e+001 -1.300e+001 -1.300e+001 -1.300e+001 -1.300e+001 -1.300e+001 -1.300e+001 -1.300e+001 -1.300e+001 -1.300e+001 -1.300e+001 -1.300e+001 -1.300e+001 -1.300e+001 -1.300e+001 -1.300e+001 -1.300e+001 -1.300e+001 -1.300e+001 -1.300e+001 -1.300e+001 -1.300e+001 -1.300e+001 -1.300e+001 -1.300e+001 -1.300e+001 -1.300e+001 -1.300e+001 -1.300e+001 -1.300e+001 -1.300e+001 -1.300e+001 -1.300e+001 -1.300e+001 -1.300e+001 -1.300e+001 -1.300e+001 -1.300e+001 -1.300e+001 -1.300e+001 -1.300e+001 -1.300e+001 -1.300e+001 -1.300e+001 -1.300e+001 -1.300e+001 -1.300e+001 -1.300e+001 -1.300e+001 -1.300e+001 -1.300e+001 -1.300e+001 -1.300e+001 -1.300e+001 -1.300e+001 -1.300e+001 -1.300e+001 -1.300e+001 -1.300e+001 -1.300e+001 -1.300e+001 -1.300e+001 -1.300e+001 -1.300e+001 -1.300e+001 -1.300e+001 -1.300e+001 -1.300e+001 -1.300e+001 -1.300e+001 -1.300e+001 -1.300e+001 -1.300e+001 -1.300e+001 -1.300e+001 -1.300e+001 -1.300e+001 -1.300e+001 -1.300e+001 -1.300e+001 -1.300e+001 -1.300e+001 -1.300e+001 -1.300e+001 -1.300e+001 -1.300e+001 -1.300e+001 -1.300e+001 -1.300e+001 -1.300e+001 -1.300e+001 -1.300e+001 -1.300e+001 -1.300e+001 -1.300e+001 -1.300e+001 -1.300e+001 -1.300e+001 -1.300e+001 -1.300e+001 -1.300e+001 -1.300e+001 -1.300e+001 -5.000e+000 -5.000e+000 -5.000e+000 -5.000e+000 -5.000e+000 -5.000e+000 -5.000e+000 -5.000e+000 -5.000e+000 -5.000e+000 -5.000e+000 -5.000e+000 -5.000e+000 -5.000e+000 -5.000e+000 -5.000e+000 -5.000e+000 -5.000e+000 -5.000e+000 -5.000e+000 -5.000e+000 -5.000e+000 -5.000e+000 -5.000e+000 -5.000e+000 -5.000e+000 -5.000e+000 -5.000e+000 -5.000e+000 -5.000e+000 -5.000e+000 -5.000e+000 -5.000e+000 -5.000e+000 -5.000e+000 -5.000e+000 -5.000e+000 -5.000e+000 -5.000e+000 -5.000e+000 -5.000e+000 -5.000e+000 -5.000e+000 -5.000e+000 -5.000e+000 -5.000e+000 -5.000e+000 -5.000e+000 -1.300e+001 -1.300e+001 -1.300e+001 -1.300e+001 -1.300e+001 -1.300e+001 -1.300e+001 -1.300e+001 -1.300e+001 -1.300e+001 -1.300e+001 -1.300e+001 -1.300e+001 -1.300e+001 -1.300e+001 -1.300e+001 -1.300e+001 -1.300e+001 -1.300e+001 -1.300e+001 -1.300e+001 -1.300e+001 -1.300e+001 -1.300e+001 -1.300e+001 -1.300e+001 -1.300e+001 -1.300e+001 -1.300e+001 -1.300e+001 -1.300e+001 -1.300e+001 -1.300e+001 -1.300e+001 -1.300e+001 -1.300e+001 -1.300e+001 -1.300e+001 -1.300e+001 -1.300e+001 -1.300e+001 -1.300e+001 -1.300e+001 -1.300e+001 -1.300e+001 -1.300e+001 -1.300e+001 -1.300e+001 -1.300e+001 -1.300e+001 -1.300e+001 -1.300e+001 -1.300e+001 -1.300e+001 -1.300e+001 -1.300e+001 -1.300e+001 -1.300e+001 -1.300e+001 -1.300e+001 -1.300e+001 -1.300e+001 -1.300e+001 -1.300e+001 -1.300e+001 -1.300e+001 -1.300e+001 -1.300e+001 -1.300e+001 -1.300e+001 -1.300e+001 -1.300e+001 -1.300e+001 -1.300e+001 -1.300e+001 -1.300e+001 -1.300e+001 -1.300e+001 -1.300e+001 -1.300e+001 -1.300e+001 -1.300e+001 -1.300e+001 -1.300e+001 -1.300e+001 -1.300e+001 -1.300e+001 -1.300e+001 -1.300e+001 -1.300e+001 -1.300e+001 -1.300e+001 -1.300e+001 -1.300e+001 -1.300e+001 -1.300e+001 -1.300e+001 -1.300e+001 -1.300e+001 -1.300e+001 -1.300e+001 -1.300e+001 -1.300e+001 -1.300e+001 -1.300e+001 -1.300e+001 -1.300e+001 -1.300e+001 -1.300e+001 -1.300e+001 -1.300e+001 -1.300e+001 -1.300e+001 -1.300e+001 -1.300e+001 -1.300e+001 -1.300e+001 -1.300e+001 -1.300e+001 -1.300e+001 -1.300e+001 -1.300e+001 -1.300e+001 -1.300e+001 -1.300e+001 -1.300e+001 -1.300e+001 -1.300e+001 -1.300e+001 -1.300e+001 -1.300e+001 -1.300e+001 -1.300e+001 -1.300e+001 -1.300e+001 -1.300e+001 -1.300e+001 -1.300e+001 -1.300e+001 -1.300e+001 -1.300e+001 -1.300e+001 -1.300e+001 -1.300e+001 -1.300e+001 -1.300e+001 -1.300e+001 -1.300e+001 -1.300e+001 -1.300e+001 -1.300e+001 -1.300e+001 -1.300e+001 -1.300e+001 -1.300e+001 -1.300e+001 -1.300e+001 -1.300e+001 -1.300e+001 -1.300e+001 -1.300e+001 -1.300e+001 -1.300e+001 -1.300e+001 -1.300e+001 -1.300e+001 -1.300e+001 -1.300e+001 -1.300e+001 -1.300e+001 -1.300e+001 -1.300e+001 -1.300e+001 -1.300e+001 -1.300e+001 -1.300e+001 -1.300e+001 -1.300e+001 -1.300e+001 -1.300e+001 -1.300e+001 -1.300e+001 -1.300e+001 -1.300e+001 -1.300e+001 -1.300e+001 -1.300e+001 -1.300e+001 -1.300e+001 -1.300e+001 -1.300e+001 -1.300e+001 -1.300e+001 -1.300e+001 -1.300e+001 -1.300e+001 -1.300e+001 -1.300e+001 -1.300e+001 -1.300e+001 -1.300e+001 -1.300e+001 -1.300e+001 -1.300e+001 -1.300e+001 -1.300e+001 -1.300e+001 -1.300e+001 -1.300e+001 -1.300e+001 -1.300e+001 -1.300e+001 -1.300e+001 -1.300e+001 -1.300e+001 -1.300e+001 -1.300e+001 -1.300e+001 -1.300e+001 -1.300e+001 -1.300e+001 -1.300e+001 -1.300e+001 -1.300e+001 -1.300e+001 -1.300e+001 -1.300e+001 -1.300e+001 -1.300e+001 -1.300e+001 -1.300e+001 -1.300e+001 -1.300e+001 -1.300e+001 -1.300e+001 -1.300e+001 -1.300e+001 -1.300e+001 -1.300e+001 -1.300e+001 -1.300e+001 -1.300e+001 -1.300e+001 -1.300e+001 -1.300e+001 -1.300e+001 -1.300e+001 -1.300e+001 -1.300e+001 -1.300e+001 -1.300e+001 -1.300e+001 -1.300e+001 -1.300e+001 -1.300e+001 -1.300e+001 -1.300e+001 -1.300e+001 -1.300e+001 -1.300e+001 -1.300e+001 -1.300e+001 -1.300e+001 -1.300e+001 -1.300e+001 -1.300e+001 -1.300e+001 -1.300e+001 -1.300e+001 -1.300e+001 -1.300e+001 -1.300e+001 -1.300e+001 -1.300e+001 -1.300e+001 -1.300e+001 -1.300e+001 -1.300e+001 -1.300e+001 -1.300e+001 -1.300e+001 -1.300e+001 -1.300e+001 -1.300e+001 -1.300e+001 -1.300e+001 -1.300e+001 -1.300e+001 -1.300e+001 -1.300e+001 -1.300e+001 -1.300e+001 -1.300e+001 -1.300e+001 -1.300e+001 -1.300e+001 -1.300e+001 -1.300e+001 -1.300e+001 -1.300e+001 -1.300e+001 -1.300e+001 -1.300e+001 -1.300e+001 -1.300e+001 -1.300e+001 -1.300e+001 -1.300e+001 -1.300e+001 -1.300e+001 -1.300e+001 -1.300e+001 -1.300e+001 -1.300e+001 -1.300e+001 -1.300e+001 -1.300e+001 -1.300e+001 -1.300e+001 -1.300e+001 -1.300e+001 -1.300e+001 -1.300e+001 -1.300e+001 -1.300e+001 -1.300e+001 -1.300e+001 -1.300e+001 -1.300e+001 -1.300e+001 -1.300e+001 -1.300e+001 -1.300e+001 -1.300e+001 -1.300e+001 -1.300e+001 -1.300e+001 -1.300e+001 -1.300e+001 -1.300e+001 -1.300e+001 -1.300e+001 -1.300e+001 -1.300e+001 -1.300e+001 -1.300e+001 -1.300e+001 -1.300e+001 -1.300e+001 -1.300e+001 -1.300e+001 -1.300e+001 -1.300e+001 -1.300e+001 -1.300e+001 -1.300e+001 -1.300e+001 -1.300e+001 -1.300e+001 -1.300e+001 -1.300e+001 -1.300e+001 -1.300e+001 -1.300e+001 -1.300e+001 -1.300e+001 -1.300e+001 -1.300e+001 -1.300e+001 -1.300e+001 -1.300e+001 -1.300e+001 -1.300e+001 -1.300e+001 -1.300e+001 -1.300e+001 -1.300e+001 -1.300e+001 -1.300e+001 -1.300e+001 -1.300e+001 -1.300e+001 -1.300e+001 -1.300e+001 -1.300e+001 -1.300e+001 -1.300e+001 -1.300e+001 -1.300e+001 -1.300e+001 -1.300e+001 -1.300e+001 -1.300e+001 -1.300e+001 -1.300e+001 -1.300e+001 -1.300e+001 -1.300e+001 -1.300e+001 -1.300e+001 -1.300e+001 -1.300e+001 -1.300e+001 -1.300e+001 -1.300e+001 -1.300e+001 -1.300e+001 -1.300e+001 -1.300e+001 -1.300e+001 -1.300e+001 -1.300e+001 -1.300e+001 -1.300e+001 -1.300e+001 -1.300e+001 -1.300e+001 -1.300e+001 -1.3