<?xml version="1.0"?>
<VTKFile type="UnstructuredGrid" version="0.1" byte_order="LittleEndian">
   <UnstructuredGrid>
      <Piece NumberOfPoints="22610" NumberOfCells="1606">
         <Points>
            <DataArray type="Float32" Name="Position" NumberOfComponents="3" format="ascii">
-0.149	-5.022	-0.015
-0.150	-5.013	-0.012
-0.149	-5.004	-0.015
-0.148	-4.998	-0.022
-0.146	-4.998	-0.031
-0.144	-5.004	-0.039
-0.143	-5.012	-0.042
-0.143	-5.021	-0.039
-0.145	-5.027	-0.032
-0.147	-5.027	-0.023
-1.016	-5.044	-0.229
-1.017	-5.035	-0.226
-1.017	-5.027	-0.229
-1.015	-5.021	-0.236
-1.012	-5.022	-0.245
-1.010	-5.027	-0.252
-1.009	-5.036	-0.255
-1.009	-5.045	-0.252
-1.011	-5.050	-0.244
-1.014	-5.050	-0.236
-1.797	-5.063	-0.503
-1.798	-5.054	-0.501
-1.797	-5.046	-0.504
-1.795	-5.041	-0.511
-1.792	-5.041	-0.520
-1.789	-5.047	-0.527
-1.788	-5.056	-0.529
-1.789	-5.065	-0.526
-1.792	-5.070	-0.518
-1.795	-5.069	-0.509
-0.290	-5.060	-0.042
-0.291	-5.052	-0.038
-0.291	-5.042	-0.040
-0.290	-5.036	-0.047
-0.290	-5.035	-0.056
-0.289	-5.039	-0.064
-0.288	-5.048	-0.068
-0.288	-5.057	-0.066
-0.288	-5.063	-0.059
-0.289	-5.064	-0.050
-1.139	-5.097	-0.125
-1.140	-5.089	-0.121
-1.140	-5.080	-0.122
-1.140	-5.073	-0.129
-1.139	-5.072	-0.138
-1.138	-5.076	-0.146
-1.138	-5.085	-0.150
-1.137	-5.094	-0.149
-1.138	-5.100	-0.142
-1.138	-5.101	-0.133
-1.995	-5.132	-0.174
-1.996	-5.123	-0.169
-1.997	-5.114	-0.171
-1.997	-5.108	-0.177
-1.996	-5.106	-0.186
-1.996	-5.110	-0.195
-1.995	-5.118	-0.199
-1.994	-5.127	-0.198
-1.994	-5.134	-0.191
-1.995	-5.136	-0.182
-2.048	-5.137	-0.176
-2.049	-5.129	-0.172
-2.050	-5.120	-0.173
-2.051	-5.113	-0.180
-2.050	-5.111	-0.189
-2.049	-5.115	-0.197
-2.049	-5.123	-0.201
-2.048	-5.132	-0.200
-2.047	-5.139	-0.194
-2.048	-5.141	-0.185
-1.409	-5.754	-0.230
-1.404	-5.753	-0.222
-1.405	-5.753	-0.213
-1.410	-5.755	-0.205
-1.419	-5.757	-0.203
-1.427	-5.760	-0.206
-1.432	-5.762	-0.214
-1.432	-5.761	-0.223
-1.426	-5.760	-0.230
-1.418	-5.757	-0.233
-1.159	-6.524	-0.229
-1.154	-6.522	-0.222
-1.155	-6.522	-0.212
-1.161	-6.524	-0.205
-1.169	-6.526	-0.203
-1.178	-6.528	-0.206
-1.182	-6.530	-0.214
-1.182	-6.530	-0.224
-1.176	-6.529	-0.231
-1.167	-6.526	-0.233
-0.967	-7.339	-0.163
-0.962	-7.337	-0.155
-0.963	-7.336	-0.146
-0.969	-7.338	-0.139
-0.977	-7.341	-0.136
-0.985	-7.343	-0.140
-0.990	-7.345	-0.148
-0.989	-7.346	-0.157
-0.984	-7.344	-0.164
-0.975	-7.341	-0.166
-0.807	-7.726	-0.157
-0.803	-7.724	-0.150
-0.803	-7.724	-0.140
-0.808	-7.726	-0.133
-0.816	-7.729	-0.130
-0.824	-7.733	-0.134
-0.829	-7.735	-0.141
-0.829	-7.735	-0.150
-0.824	-7.733	-0.158
-0.815	-7.729	-0.160
-1.524	-5.849	-0.249
-1.519	-5.847	-0.242
-1.519	-5.848	-0.232
-1.524	-5.850	-0.225
-1.532	-5.853	-0.222
-1.540	-5.857	-0.225
-1.545	-5.858	-0.233
-1.545	-5.858	-0.242
-1.540	-5.856	-0.249
-1.532	-5.852	-0.252
-1.195	-6.657	-0.277
-1.189	-6.655	-0.270
-1.189	-6.657	-0.261
-1.193	-6.660	-0.253
-1.200	-6.664	-0.250
-1.209	-6.668	-0.253
-1.214	-6.669	-0.260
-1.215	-6.668	-0.269
-1.211	-6.664	-0.276
-1.203	-6.660	-0.280
-0.829	-7.328	-0.499
-0.823	-7.327	-0.493
-0.821	-7.330	-0.484
-0.824	-7.334	-0.477
-0.831	-7.339	-0.473
-0.840	-7.342	-0.475
-0.846	-7.343	-0.482
-0.848	-7.340	-0.490
-0.845	-7.336	-0.498
-0.838	-7.331	-0.501
-0.737	-7.556	-0.600
-0.730	-7.556	-0.594
-0.727	-7.559	-0.585
-0.730	-7.564	-0.578
-0.738	-7.568	-0.574
-0.746	-7.571	-0.576
-0.753	-7.571	-0.582
-0.756	-7.568	-0.590
-0.753	-7.564	-0.598
-0.745	-7.559	-0.601
-1.636	-5.962	-0.254
-1.632	-5.954	-0.250
-1.633	-5.945	-0.249
-1.639	-5.938	-0.250
-1.647	-5.935	-0.254
-1.654	-5.938	-0.259
-1.658	-5.946	-0.263
-1.656	-5.955	-0.265
-1.651	-5.962	-0.263
-1.643	-5.965	-0.259
-2.026	-6.131	0.405
-2.023	-6.123	0.409
-2.024	-6.114	0.410
-2.029	-6.107	0.409
-2.037	-6.104	0.404
-2.044	-6.107	0.399
-2.048	-6.115	0.395
-2.047	-6.124	0.393
-2.041	-6.131	0.395
-2.033	-6.134	0.399
-2.481	-6.295	1.040
-2.477	-6.287	1.044
-2.478	-6.278	1.046
-2.484	-6.271	1.044
-2.491	-6.268	1.040
-2.499	-6.271	1.035
-2.502	-6.279	1.031
-2.501	-6.288	1.029
-2.496	-6.295	1.031
-2.488	-6.298	1.035
-2.507	-6.305	1.089
-2.503	-6.298	1.093
-2.505	-6.289	1.095
-2.510	-6.282	1.093
-2.518	-6.279	1.089
-2.526	-6.282	1.085
-2.530	-6.290	1.081
-2.528	-6.299	1.079
-2.523	-6.306	1.081
-2.515	-6.309	1.085
-1.750	-6.042	-0.289
-1.746	-6.039	-0.281
-1.745	-6.039	-0.272
-1.750	-6.043	-0.264
-1.757	-6.047	-0.261
-1.764	-6.052	-0.264
-1.769	-6.055	-0.272
-1.770	-6.055	-0.281
-1.765	-6.051	-0.288
-1.758	-6.047	-0.291
-1.313	-6.723	-0.320
-1.309	-6.719	-0.313
-1.309	-6.719	-0.303
-1.313	-6.722	-0.296
-1.320	-6.728	-0.293
-1.327	-6.734	-0.295
-1.331	-6.737	-0.303
-1.331	-6.738	-0.312
-1.327	-6.734	-0.320
-1.320	-6.728	-0.323
-0.682	-7.284	-0.278
-0.679	-7.279	-0.271
-0.679	-7.279	-0.262
-0.683	-7.284	-0.254
-0.687	-7.291	-0.251
-0.692	-7.299	-0.254
-0.695	-7.303	-0.262
-0.695	-7.303	-0.271
-0.692	-7.299	-0.278
-0.687	-7.291	-0.281
-0.361	-7.433	-0.291
-0.359	-7.428	-0.283
-0.359	-7.428	-0.274
-0.361	-7.434	-0.267
-0.364	-7.442	-0.264
-0.368	-7.450	-0.267
-0.371	-7.454	-0.275
-0.371	-7.454	-0.284
-0.369	-7.449	-0.291
-0.365	-7.441	-0.294
-1.868	-6.158	-0.283
-1.868	-6.149	-0.279
-1.868	-6.140	-0.281
-1.868	-6.134	-0.287
-1.868	-6.133	-0.296
-1.867	-6.137	-0.305
-1.867	-6.145	-0.309
-1.867	-6.154	-0.307
-1.867	-6.161	-0.300
-1.867	-6.162	-0.291
-2.719	-6.169	-0.316
-2.719	-6.161	-0.312
-2.720	-6.151	-0.313
-2.720	-6.145	-0.319
-2.720	-6.143	-0.328
-2.721	-6.147	-0.337
-2.721	-6.155	-0.341
-2.720	-6.164	-0.340
-2.720	-6.171	-0.333
-2.720	-6.173	-0.324
-3.497	-6.203	-0.242
-3.497	-6.195	-0.237
-3.497	-6.186	-0.237
-3.499	-6.179	-0.243
-3.500	-6.177	-0.252
-3.501	-6.180	-0.261
-3.501	-6.188	-0.266
-3.501	-6.198	-0.265
-3.499	-6.205	-0.259
-3.498	-6.207	-0.250
-3.689	-6.215	-0.207
-3.689	-6.207	-0.202
-3.689	-6.198	-0.202
-3.691	-6.191	-0.208
-3.693	-6.188	-0.217
-3.694	-6.192	-0.225
-3.694	-6.200	-0.230
-3.694	-6.209	-0.230
-3.692	-6.216	-0.224
-3.691	-6.218	-0.215
-1.974	-6.261	-0.299
-1.975	-6.253	-0.294
-1.976	-6.244	-0.295
-1.976	-6.237	-0.301
-1.977	-6.236	-0.311
-1.976	-6.239	-0.319
-1.976	-6.247	-0.324
-1.975	-6.256	-0.323
-1.974	-6.263	-0.316
-1.974	-6.265	-0.307
-2.791	-6.335	-0.299
-2.792	-6.327	-0.294
-2.793	-6.318	-0.295
-2.794	-6.311	-0.301
-2.794	-6.309	-0.310
-2.793	-6.313	-0.319
-2.792	-6.321	-0.323
-2.792	-6.330	-0.322
-2.791	-6.337	-0.316
-2.791	-6.339	-0.307
-3.416	-6.399	-0.308
-3.417	-6.391	-0.303
-3.418	-6.382	-0.304
-3.418	-6.375	-0.310
-3.419	-6.373	-0.320
-3.418	-6.377	-0.328
-3.417	-6.385	-0.333
-3.416	-6.394	-0.332
-3.416	-6.401	-0.325
-3.416	-6.403	-0.316
-2.068	-6.357	-0.329
-2.064	-6.354	-0.321
-2.064	-6.354	-0.312
-2.069	-6.356	-0.305
-2.077	-6.360	-0.302
-2.085	-6.364	-0.305
-2.090	-6.367	-0.313
-2.089	-6.367	-0.322
-2.084	-6.365	-0.329
-2.076	-6.361	-0.332
-1.688	-7.114	-0.295
-1.684	-7.111	-0.288
-1.684	-7.111	-0.278
-1.689	-7.113	-0.271
-1.697	-7.117	-0.268
-1.705	-7.121	-0.271
-1.710	-7.123	-0.279
-1.709	-7.124	-0.288
-1.704	-7.122	-0.296
-1.696	-7.118	-0.298
-1.309	-7.916	-0.225
-1.304	-7.913	-0.218
-1.305	-7.912	-0.209
-1.310	-7.914	-0.201
-1.318	-7.918	-0.199
-1.326	-7.922	-0.202
-1.331	-7.924	-0.209
-1.330	-7.925	-0.219
-1.325	-7.923	-0.226
-1.316	-7.919	-0.229
-2.168	-6.482	-0.323
-2.164	-6.475	-0.320
-2.165	-6.465	-0.319
-2.171	-6.458	-0.319
-2.180	-6.456	-0.322
-2.188	-6.460	-0.326
-2.192	-6.467	-0.329
-2.191	-6.477	-0.330
-2.185	-6.484	-0.329
-2.176	-6.486	-0.326
-2.438	-6.611	0.419
-2.434	-6.603	0.423
-2.435	-6.594	0.424
-2.441	-6.587	0.422
-2.449	-6.585	0.419
-2.457	-6.588	0.415
-2.461	-6.595	0.411
-2.460	-6.605	0.410
-2.454	-6.612	0.412
-2.446	-6.614	0.415
-2.719	-6.701	0.886
-2.715	-6.693	0.890
-2.716	-6.684	0.891
-2.722	-6.677	0.889
-2.729	-6.674	0.885
-2.737	-6.677	0.880
-2.740	-6.685	0.876
-2.740	-6.694	0.875
-2.734	-6.701	0.877
-2.726	-6.704	0.881
-2.272	-6.576	-0.342
-2.268	-6.572	-0.335
-2.268	-6.572	-0.326
-2.272	-6.576	-0.318
-2.279	-6.581	-0.315
-2.286	-6.587	-0.318
-2.290	-6.591	-0.325
-2.290	-6.591	-0.335
-2.286	-6.588	-0.342
-2.279	-6.582	-0.345
-1.693	-7.236	-0.330
-1.689	-7.232	-0.323
-1.689	-7.231	-0.313
-1.693	-7.235	-0.306
-1.700	-7.241	-0.303
-1.706	-7.247	-0.305
-1.710	-7.251	-0.313
-1.710	-7.251	-0.322
-1.706	-7.248	-0.330
-1.699	-7.242	-0.333
-1.251	-7.673	-0.290
-1.248	-7.669	-0.283
-1.248	-7.668	-0.274
-1.252	-7.672	-0.266
-1.258	-7.678	-0.263
-1.264	-7.684	-0.266
-1.268	-7.689	-0.273
-1.268	-7.689	-0.282
-1.264	-7.686	-0.290
-1.257	-7.679	-0.293
-2.369	-6.702	-0.337
-2.365	-6.694	-0.335
-2.367	-6.685	-0.333
-2.374	-6.679	-0.332
-2.383	-6.678	-0.333
-2.391	-6.682	-0.335
-2.395	-6.690	-0.337
-2.393	-6.699	-0.339
-2.386	-6.706	-0.340
-2.377	-6.707	-0.339
-2.452	-6.876	0.458
-2.449	-6.867	0.460
-2.451	-6.859	0.462
-2.458	-6.853	0.463
-2.467	-6.852	0.463
-2.475	-6.856	0.462
-2.479	-6.865	0.460
-2.476	-6.873	0.458
-2.469	-6.879	0.456
-2.460	-6.880	0.457
-2.456	-7.061	1.229
-2.456	-7.057	1.237
-2.456	-7.058	1.246
-2.456	-7.065	1.253
-2.456	-7.074	1.254
-2.456	-7.082	1.250
-2.456	-7.086	1.242
-2.456	-7.085	1.233
-2.456	-7.078	1.226
-2.456	-7.069	1.225
-0.420	-5.107	-0.074
-0.416	-5.099	-0.070
-0.417	-5.090	-0.069
-0.424	-5.083	-0.070
-0.432	-5.081	-0.072
-0.440	-5.085	-0.076
-0.444	-5.093	-0.079
-0.443	-5.102	-0.081
-0.436	-5.108	-0.080
-0.428	-5.111	-0.077
-0.707	-5.281	0.696
-0.703	-5.274	0.700
-0.704	-5.265	0.702
-0.710	-5.257	0.700
-0.718	-5.255	0.696
-0.725	-5.258	0.691
-0.729	-5.265	0.687
-0.728	-5.274	0.686
-0.722	-5.282	0.687
-0.714	-5.284	0.691
-1.251	-5.455	1.344
-1.248	-5.448	1.349
-1.249	-5.439	1.350
-1.254	-5.431	1.348
-1.261	-5.428	1.342
-1.267	-5.431	1.336
-1.270	-5.438	1.331
-1.269	-5.447	1.329
-1.264	-5.455	1.332
-1.257	-5.458	1.337
-1.288	-5.466	1.382
-1.285	-5.459	1.387
-1.286	-5.450	1.388
-1.291	-5.443	1.386
-1.298	-5.440	1.380
-1.304	-5.442	1.373
-1.307	-5.449	1.368
-1.306	-5.458	1.367
-1.301	-5.466	1.370
-1.294	-5.469	1.375
-2.473	-6.799	-0.354
-2.470	-6.795	-0.347
-2.471	-6.793	-0.337
-2.476	-6.796	-0.330
-2.483	-6.801	-0.327
-2.489	-6.807	-0.330
-2.493	-6.811	-0.337
[...]
         <CellData>
           <DataArray type="Float32" Name="combinedRootClassID" NumberOfComponents="1" format="ascii">
 -1.300e+001 -1.300e+001 -1.300e+001 -1.300e+001 -1.300e+001 -1.300e+001 -1.300e+001 -1.300e+001 -1.300e+001 -1.300e+001 -1.300e+001 -1.300e+001 -1.300e+001 -1.300e+001 -1.300e+001 -1.300e+001 -1.300e+001 -1.300e+001 -1.300e+001 -1.300e+001 -1.300e+001 -1.300e+001 -1.300e+001 -1.300e+001 -1.300e+001 -1.300e+001 -1.300e+001 -1.300e+001 -1.300e+001 -1.300e+001 -1.300e+001 -1.300e+001 -1.300e+001 -1.300e+001 -1.300e+001 -1.300e+001 -1.300e+001 -1.300e+001 -1.300e+001 -1.300e+001 -1.300e+001 -1.300e+001 -1.300e+001 -1.300e+001 -1.300e+001 -1.300e+001 -1.300e+001 -1.300e+001 -1.300e+001 -1.300e+001 -1.300e+001 -1.300e+001 -1.300e+001 -1.300e+001 -1.300e+001 -1.300e+001 -1.300e+001 -1.300e+001 -1.300e+001 -1.300e+001 -1.300e+001 -1.300e+001 -1.300e+001 -1.300e+001 -1.300e+001 -1.300e+001 -1.300e+001 -1.300e+001 -1.300e+001 -1.300e+001 -1.300e+001 -1.300e+001 -1.300e+001 -1.300e+001 -1.300e+001 -1.300e+001 -1.300e+001 -1.300e+001 -1.300e+001 -1.300e+001 -1.300e+001 -1.300e+001 -1.300e+001 -1.300e+001 -1.300e+001 -1.300e+001 -1.300e+001 -1.300e+001 -1.300e+001 -1.300e+001 -1.300e+001 -1.300e+001 -1.300e+001 -1.300e+001 -1.300e+001 -1.300e+001 -1.300e+001 -1.300e+001 -1.300e+001 -1.300e+001 -1.300e+001 -1.300e+001 -1.300e+001 -1.300e+001 -1.300e+001 -1.300e+001 -1.300e+001 -1.300e+001 -1.300e+001 -1.300e+001 -1.300e+001 -1.300e+001 -1.300e+001 -1.300e+001 -1.300e+001 -1.300e+001 -1.300e+001 -1.300e+001 -1.300e+001 -1.300e+001 -1.300e+001 -1.300e+001 -1.300e+001 -1.300e+001 -1.300e+001 -1.300e+001 -1.300e+001 -1.300e+001 -1.300e+001 -1.300e+001 -1.300e+001 -1.300e+001 -1.300e+001 -1.300e+001 -1.300e+001 -1.300e+001 -1.300e+001 -1.300e+001 -1.300e+001 -1.300e+001 -1.300e+001 -1.300e+001 -1.300e+001 -1.300e+001 -1.300e+001 -1.300e+001 -1.300e+001 -1.300e+001 -1.300e+001 -1.300e+001 -1.300e+001 -1.300e+001 -1.300e+001 -1.300e+001 -5.000e+000 -5.000e+000 -5.000e+000 -5.000e+000 -5.000e+000 -5.000e+000 -5.000e+000 -5.000e+000 -5.000e+000 -5.000e+000 -5.000e+000 -5.000e+000 -5.000e+000 -5.000e+000 -5.000e+000 -5.000e+000 -5.000e+000 -5.000e+000 -5.000e+000 -5.000e+000 -5.000e+000 -5.000e+000 -5.000e+000 -5.000e+000 -5.000e+000 -5.000e+000 -5.000e+000 -5.000e+000 -1.300e+001 -1.300e+001 -1.300e+001 -1.300e+001 -1.300e+001 -1.300e+001 -1.300e+001 -1.300e+001 -1.300e+001 -1.300e+001 -1.300e+001 -1.300e+001 -1.300e+001 -1.300e+001 -1.300e+001 -1.300e+001 -1.300e+001 -1.300e+001 -1.300e+001 -1.300e+001 -1.300e+001 -1.300e+001 -1.300e+001 -1.300e+001 -1.300e+001 -1.300e+001 -1.300e+001 -1.300e+001 -1.300e+001 -1.300e+001 -1.300e+001 -1.300e+001 -1.300e+001 -1.300e+001 -1.300e+001 -1.300e+001 -1.300e+001 -1.300e+001 -1.300e+001 -1.300e+001 -1.300e+001 -1.300e+001 -1.300e+001 -1.300e+001 -1.300e+001 -1.300e+001 -1.300e+001 -1.300e+001 -1.300e+001 -1.300e+001 -1.300e+001 -1.300e+001 -1.300e+001 -1.300e+001 -1.300e+001 -1.300e+001 -1.300e+001 -1.300e+001 -1.300e+001 -1.300e+001 -1.300e+001 -1.300e+001 -1.300e+001 -1.300e+001 -1.300e+001 -1.300e+001 -1.300e+001 -1.300e+001 -1.300e+001 -1.300e+001 -1.300e+001 -1.300e+001 -1.300e+001 -1.300e+001 -1.300e+001 -1.300e+001 -1.300e+001 -1.300e+001 -1.300e+001 -1.300e+001 -1.300e+001 -1.300e+001 -1.300e+001 -1.300e+001 -1.300e+001 -1.300e+001 -1.300e+001 -1.300e+001 -1.300e+001 -1.300e+001 -1.300e+001 -1.300e+001 -1.300e+001 -1.300e+001 -1.300e+001 -1.300e+001 -1.300e+001 -1.300e+001 -1.300e+001 -1.300e+001 -1.300e+001 -1.300e+001 -1.300e+001 -1.300e+001 -1.300e+001 -1.300e+001 -1.300e+001 -1.300e+001 -1.300e+001 -1.300e+001 -1.300e+001 -1.300e+001 -1.300e+001 -1.300e+001 -1.300e+001 -1.300e+001 -1.300e+001 -1.300e+001 -1.300e+001 -1.300e+001 -1.300e+001 -1.300e+001 -1.300e+001 -1.300e+001 -1.300e+001 -1.300e+001 -1.300e+001 -1.300e+001 -1.300e+001 -1.300e+001 -1.300e+001 -1.300e+001 -1.300e+001 -1.300e+001 -1.300e+001 -1.300e+001 -1.300e+001 -1.300e+001 -1.300e+001 -1.300e+001 -1.300e+001 -1.300e+001 -1.300e+001 -1.300e+001 -1.300e+001 -1.300e+001 -1.300e+001 -1.300e+001 -1.300e+001 -1.300e+001 -1.300e+001 -1.300e+001 -1.300e+001 -5.000e+000 -5.000e+000 -5.000e+000 -5.000e+000 -5.000e+000 -5.000e+000 -5.000e+000 -5.000e+000 -5.000e+000 -5.000e+000 -5.000e+000 -5.000e+000 -5.000e+000 -5.000e+000 -5.000e+000 -5.000e+000 -5.000e+000 -5.000e+000 -5.000e+000 -5.000e+000 -5.000e+000 -5.000e+000 -5.000e+000 -5.000e+000 -5.000e+000 -5.000e+000 -5.000e+000 -5.000e+000 -1.300e+001 -1.300e+001 -1.300e+001 -1.300e+001 -1.300e+001 -1.300e+001 -1.300e+001 -1.300e+001 -1.300e+001 -1.300e+001 -1.300e+001 -1.300e+001 -1.300e+001 -1.300e+001 -1.300e+001 -1.300e+001 -1.300e+001 -1.300e+001 -1.300e+001 -1.300e+001 -1.300e+001 -1.300e+001 -1.300e+001 -1.300e+001 -1.300e+001 -1.300e+001 -1.300e+001 -1.300e+001 -1.300e+001 -1.300e+001 -1.300e+001 -1.300e+001 -1.300e+001 -1.300e+001 -1.300e+001 -1.300e+001 -1.300e+001 -1.300e+001 -1.300e+001 -1.300e+001 -1.300e+001 -1.300e+001 -1.300e+001 -1.300e+001 -1.300e+001 -1.300e+001 -1.300e+001 -1.300e+001 -1.300e+001 -1.300e+001 -1.300e+001 -1.300e+001 -1.300e+001 -1.300e+001 -1.300e+001 -1.300e+001 -1.300e+001 -1.300e+001 -1.300e+001 -1.300e+001 -1.300e+001 -1.300e+001 -1.300e+001 -1.300e+001 -1.300e+001 -1.300e+001 -1.300e+001 -1.300e+001 -1.300e+001 -1.300e+001 -1.300e+001 -1.300e+001 -1.300e+001 -1.300e+001 -1.300e+001 -1.300e+001 -1.300e+001 -1.300e+001 -1.300e+001 -1.300e+001 -1.300e+001 -1.300e+001 -1.300e+001 -1.300e+001 -1.300e+001 -1.300e+001 -1.300e+001 -1.300e+001 -1.300e+001 -1.300e+001 -1.300e+001 -1.300e+001 -1.300e+001 -1.300e+001 -1.300e+001 -1.300e+001 -1.300e+001 -1.300e+001 -1.300e+001 -1.300e+001 -1.300e+001 -1.300e+001 -1.300e+001 -1.300e+001 -1.300e+001 -1.300e+001 -1.300e+001 -1.300e+001 -1.300e+001 -1.300e+001 -1.300e+001 -1.300e+001 -1.300e+001 -1.300e+001 -1.300e+001 -1.300e+001 -1.300e+001 -1.300e+001 -1.300e+001 -1.300e+001 -1.300e+001 -1.300e+001 -1.300e+001 -1.300e+001 -1.300e+001 -1.300e+001 -1.300e+001 -1.300e+001 -1.300e+001 -1.300e+001 -1.300e+001 -1.300e+001 -1.300e+001 -1.300e+001 -1.300e+001 -1.300e+001 -1.300e+001 -1.300e+001 -1.300e+001 -1.300e+001 -1.300e+001 -1.300e+001 -1.300e+001 -1.300e+001 -1.300e+001 -1.300e+001 -1.300e+001 -1.300e+001 -1.300e+001 -1.300e+001 -1.300e+001 -1.300e+001 -1.300e+001 -1.300e+001 -1.300e+001 -1.300e+001 -5.000e+000 -5.000e+000 -5.000e+000 -5.000e+000 -5.000e+000 -5.000e+000 -5.000e+000 -5.000e+000 -5.000e+000 -5.000e+000 -5.000e+000 -5.000e+000 -5.000e+000 -5.000e+000 -5.000e+000 -5.000e+000 -5.000e+000 -5.000e+000 -5.000e+000 -5.000e+000 -5.000e+000 -5.000e+000 -5.000e+000 -5.000e+000 -5.000e+000 -5.000e+000 -5.000e+000 -5.000e+000 -1.300e+001 -1.300e+001 -1.300e+001 -1.300e+001 -1.300e+001 -1.300e+001 -1.300e+001 -1.300e+001 -1.300e+001 -1.300e+001 -1.300e+001 -1.300e+001 -1.300e+001 -1.300e+001 -1.300e+001 -1.300e+001 -1.300e+001 -1.300e+001 -1.300e+001 -1.300e+001 -1.300e+001 -1.300e+001 -1.300e+001 -1.300e+001 -1.300e+001 -1.300e+001 -1.300e+001 -1.300e+001 -1.300e+001 -1.300e+001 -1.300e+001 -1.300e+001 -1.300e+001 -1.300e+001 -1.300e+001 -1.300e+001 -1.300e+001 -1.300e+001 -1.300e+001 -1.300e+001 -1.300e+001 -1.300e+001 -1.300e+001 -1.300e+001 -1.300e+001 -1.300e+001 -1.300e+001 -1.300e+001 -1.300e+001 -1.300e+001 -1.300e+001 -1.300e+001 -1.300e+001 -1.300e+001 -1.300e+001 -1.300e+001 -1.300e+001 -1.300e+001 -1.300e+001 -1.300e+001 -1.300e+001 -1.300e+001 -1.300e+001 -1.300e+001 -1.300e+001 -1.300e+001 -1.300e+001 -1.300e+001 -1.300e+001 -1.300e+001 -1.300e+001 -1.300e+001 -1.300e+001 -1.300e+001 -1.300e+001 -1.300e+001 -1.300e+001 -1.300e+001 -1.300e+001 -1.300e+001 -1.300e+001 -1.300e+001 -1.300e+001 -1.300e+001 -1.300e+001 -1.300e+001 -1.300e+001 -1.300e+001 -1.300e+001 -1.300e+001 -1.300e+001 -1.300e+001 -1.300e+001 -1.300e+001 -1.300e+001 -1.300e+001 -1.300e+001 -1.300e+001 -1.300e+001 -1.300e+001 -1.300e+001 -1.300e+001 -1.300e+001 -1.300e+001 -1.300e+001 -1.300e+001 -1.300e+001 -1.300e+001 -1.300e+001 -1.300e+001 -1.300e+001 -1.300e+001 -1.300e+001 -1.300e+001 -1.300e+001 -1.300e+001 -1.300e+001 -1.300e+001 -1.300e+001 -1.300e+001 -1.300e+001 -1.300e+001 -1.300e+001 -1.300e+001 -1.300e+001 -1.300e+001 -1.300e+001 -1.300e+001 -1.300e+001 -1.300e+001 -1.300e+001 -1.300e+001 -1.300e+001 -1.300e+001 -1.300e+001 -1.300e+001 -1.300e+001 -1.300e+001 -1.300e+001 -1.300e+001 -1.300e+001 -1.300e+001 -1.300e+001 -1.300e+001 -1.300e+001 -1.300e+001 -1.300e+001 -1.300e+001 -1.300e+001 -1.300e+001 -1.300e+001 -1.300e+001 -1.300e+001 -1.300e+001 -1.300e+001 -1.300e+001 -1.300e+001 -1.300e+001 -1.300e+001 -1.300e+001 -1.300e+001 -5.000e+000 -5.000e+000 -5.000e+000 -5.000e+000 -5.000e+000 -5.000e+000 -5.000e+000 -5.000e+000 -5.000e+000 -5.000e+000 -5.000e+000 -5.000e+000 -5.000e+000 -5.000e+000 -5.000e+000 -5.000e+000 -5.000e+000 -5.000e+000 -5.000e+000 -5.000e+000 -5.000e+000 -5.000e+000 -5.000e+000 -5.000e+000 -5.000e+000 -5.000e+000 -5.000e+000 -5.000e+000 -1.900e+001 -1.900e+001 -1.900e+001 -1.900e+001 -1.900e+001 -1.900e+001 -1.900e+001 -1.900e+001 -1.900e+001 -1.900e+001 -1.900e+001 -1.900e+001 -1.900e+001 -1.900e+001 -1.900e+001 -1.900e+001 -1.900e+001 -1.900e+001 -1.900e+001 -1.900e+001 -1.100e+001 -1.100e+001 -1.100e+001 -1.100e+001 -1.100e+001 -1.100e+001 -1.100e+001 -1.100e+001 -1.100e+001 -1.100e+001 -1.100e+001 -1.100e+001 -1.100e+001 -1.100e+001 -1.100e+001 -1.100e+001 -1.100e+001 -1.100e+001 -1.900e+001 -1.900e+001 -1.900e+001 -1.900e+001 -1.900e+001 -1.900e+001 -1.900e+001 -1.900e+001 -1.900e+001 -1.900e+001 -1.900e+001 -1.900e+001 -1.900e+001 -1.900e+001 -1.900e+001 -1.900e+001 -1.900e+001 -1.900e+001 -1.900e+001 -1.900e+001 -1.100e+001 -1.100e+001 -1.100e+001 -1.100e+001 -1.100e+001 -1.100e+001 -1.100e+001 -1.100e+001 -1.100e+001 -1.100e+001 -1.100e+001 -1.100e+001 -1.100e+001 -1.100e+001 -1.100e+001 -1.100e+001 -1.100e+001 -1.100e+001 -1.900e+001 -1.900e+001 -1.900e+001 -1.900e+001 -1.900e+001 -1.900e+001 -1.900e+001 -1.900e+001 -1.900e+001 -1.900e+001 -1.900e+001 -1.900e+001 -1.900e+001 -1.900e+001 -1.900e+001 -1.900e+001 -1.900e+001 -1.900e+001 -1.900e+001 -1.900e+001 -1.100e+001 -1.100e+001 -1.100e+001 -1.100e+001 -1.100e+001 -1.100e+001 -1.100e+001 -1.100e+001 -1.100e+001 -1.100e+001 -1.100e+001 -1.100e+001 -1.100e+001 -1.100e+001 -1.100e+001 -1.100e+001 -1.100e+001 -1.100e+001 -1.900e+001 -1.900e+001 -1.900e+001 -1.900e+001 -1.900e+001 -1.900e+001 -1.900e+001 -1.900e+001 -1.900e+001 -1.900e+001 -1.900e+001 -1.900e+001 -1.900e+001 -1.900e+001 -1.900e+001 -1.900e+001 -1.900e+001 -1.900e+001 -1.900e+001 -1.900e+001 -1.100e+001 -1.100e+001 -1.100e+001 -1.100e+001 -1.100e+001 -1.100e+001 -1.100e+001 -1.100e+001 -1.100e+001 -1.100e+001 -1.100e+001 -1.100e+001 -1.100e+001 -1.100e+001 -1.100e+001 -1.100e+001 -1.100e+001 -1.100e+001 -2.000e+001 -2.000e+001 -2.000e+001 -2.000e+001 -2.000e+001 -2.000e+001 -2.000e+001 -2.000e+001 -2.000e+001 -2.000e+001 -2.000e+001 -2.000e+001 -2.000e+001 -2.000e+001 -2.000e+001 -2.000e+001 -2.000e+001 -2.000e+000 -2.000e+000 -2.000e+000 -2.000e+000 -2.000e+000 -2.000e+000 -2.000e+000 -2.000e+000 -2.000e+000 -2.000e+000 -2.000e+000 -2.000e+000 -7.000e+000 -7.000e+000 -7.000e+000 -7.000e+000 -7.000e+000 -1.500e+001 -1.500e+001 -7.000e+000 -7.000e+000 -7.000e+000 -7.000e+000 -7.000e+000 -7.000e+000 -7.000e+000 -1.500e+001 -1.500e+001 -7.000e+000 -7.000e+000 -7.000e+000 -7.000e+000 -7.000e+000 -7.000e+000 -7.000e+000 -7.000e+000 -7.000e+000 -7.000e+000 -7.000e+000 -7.000e+000 -7.000e+000 -7.000e+000 -7.000e+000 -7.000e+000 -7.000e+000 -7.000e+000 -7.000e+000 -7.000e+000 -7.000e+000 -7.000e+000 -7.000e+000 -7.000e+000 -7.000e+000 -7.000e+000 -7.000e+000 -7.000e+000 -7.000e+000 -7.000e+000 -7.000e+000 -7.000e+000 -7.000e+000 -7.000e+000 -1.500e+001 -1.500e+001 -7.000e+000 -7.000e+000 -7.000e+000 -7.000e+000 -7.000e+000 -7.000e+000 -7.000e+000 -7.000e+000 -7.000e+000 -7.000e+000 -7.000e+000 -7.000e+000 -7.000e+000 -7.000e+000 -7.000e+000 -7.000e+000 -7.000e+000 -7.000e+000 -7.000e+000 -7.000e+000 -7.000e+000 -7.000e+000 -7.000e+000 -7.000e+000 -7.000e+000 -7.000e+000 -7.000e+000 -7.000e+000 -1.500e+001 -7.000e+000 -7.000e+000 -7.000e+000 -7.000e+000 -7.000e+000 -7.000e+000 -7.000e+000 -7.000e+000 -7.000e+000 -7.000e+000 -7.000e+000 -7.000e+000 -7.000e+000 -7.000e+000 -7.000e+000 -7.000e+000 -7.000e+000 -7.000e+000 -7.000e+000 -7.000e+000 -7.000e+000 -7.000e+000 -7.000e+000 -7.000e+000 -7.000e+000 -1.500e+001 -7.000e+000 -7.000e+000 -7.000e+000 -7.000e+000 -7.000e+000 -7.000e+000 -7.000e+000 -7.000e+000 -7.000e+000 -7.000e+000 -7.000e+000 -7.000e+000 -7.000e+000 -7.000e+000 -7.000e+000 -7.000e+000 -7.000e+000 -1.500e+001 -1.500e+001 -7.000e+000 -7.000e+000 -7.000e+000 -7.000e+000 -7.000e+000 -7.000e+000 -7.000e+000 -7.000e+000 -7.000e+000 -7.000e+000 -7.000e+000 -7.000e+000 -7.000e+000 -7.000e+000 -7.000e+000 -7.000e+000 -7.000e+000 -1.500e+001 -7.000e+000 -7.000e+000 -7.000e+000 -7.000e+000 -7.000e+000 -7.000e+000 -7.000e+000 -7.000e+000 -7.000e+000 -7.000e+000 -7.000e+000 -7.000e+000 -7.000e+000 -7.000e+000 -7.000e+000 -7.000e+000 -1.500e+001 -1.500e+001 -7.000e+000 -7.000e+000 -7.000e+000 -7.000e+000 -7.000e+000 -7.000e+000 -7.000e+000 -1.500e+001 -1.500e+001 -7.000e+000 -7.000e+000 -7.000e+000 -7.000e+000 -7.000e+000 -7.000e+000 -1.500e+001 -7.000e+000 -7.000e+000 -7.000e+000 -7.000e+000 -7.000e+000 -7.000e+000 -1.500e+001 -1.500e+001 -7.000e+000 -7.000e+000 -7.000e+000 -7.000e+000 -7.000e+000 -7.000e+000 -1.500e+001 -1.500e+001 -7.000e+000 -7.000e+000 -7.000e+000 -7.000e+000 -7.000e+000 -7.000e+000 -7.000e+000 -7.000e+000 -7.000e+000 -7.000e+000 -7.000e+000 -7.000e+000 -7.000e+000 -7.000e+000 -7.000e+000 -7.000e+000 -7.000e+000 -7.000e+000 -7.000e+000 -7.000e+000 -7.000e+000 -7.000e+000 -7.000e+000 -7.000e+000 -7.000e+000 -7.000e+000 -7.000e+000 -7.000e+000 -7.000e+000 -7.000e+000 -7.000e+000 -7.000e+000 -7.000e+000 -7.000e+000 -7.000e+000 -7.000e+000 -7.000e+000 -7.000e+000 -7.000e+000 -1.500e+001 -7.000e+000 -7.000e+000 -7.000e+000 -7.000e+000 -7.000e+000 -7.000e+000 -7.000e+000 -7.000e+000 -7.000e+000 -7.000e+000 -7.000e+000 -7.000e+000 -1.500e+001 -7.000e+000 -7.000e+000 -7.000e+000 -7.000e+000 -7.000e+000 -7.000e+000 -7.000e+000 -7.000e+000 -7.000e+000 -7.000e+000 -7.000e+000 -1.500e+001 -7.000e+000 -7.000e+000 -7.000e+000 -7.000e+000 -7.000e+000 -7.000e+000 -7.000e+000 -7.000e+000 -7.000e+000 -7.000e+000 -7.000e+000 -7.000e+000 -7.000e+000 -7.000e+000 -7.000e+000 -7.000e+000 -7.000e+000 -7.000e+000 -7.000e+000 -7.000e+000 -7.000e+000 -7.000e+000 -7.000e+000 -7.000e+000 -7.000e+000 -7.000e+000 -7.000e+000 -7.000e+000 -7.000e+000 -7.000e+000 -7.000e+000 -7.000e+000 -7.000e+000 -7.000e+000 -7.000e+000 -7.000e+000 -7.000e+000 -7.000e+000 -7.000e+000 -7.000e+000 -7.000e+000 -7.000e+000 -7.000e+000 -7.000e+000 -7.000e+000 -7.000e+000 -7.000e+000 -7.000e+000 -7.000e+000 -7.000e+000 -7.000e+000 -7.000e+000 -7.000e+000 -7.000e+000 -7.000e+000 -1.500e+001 -7.000e+000 -7.000e+000 -7.000e+000 -7.000e+000 -7.000e+000 -7.000e+000 -1.500e+001 -7.000e+000 -7.000e+000 -7.000e+000 -7.000e+000 -7.000e+000 -7.000e+000 -7.000e+000 -7.000e+000 -7.000e+000 -7.000e+000 -7.000e+000 -7.000e+000 -7.000e+000 -7.000e+000 -7.000e+000 -7.000e+000 -7.000e+000 -7.000e+000 -7.000e+000 -7.000e+000 -7.000e+000 -7.000e+000 -7.000e+000 -7.000e+000 -7.000e+000 -7.000e+000 -7.000e+000 -7.000e+000 -7.000e+000 -7.000e+000 -7.000e+000 -7.000e+000 -7.000e+000 -7.000e+000 -7.000e+000 -7.000e+000 -7.000e+000 -7.000e+000 -7.000e+000 -7.000e+000 -7.000e+000 -7.000e+000 -7.000e+000 -7.000e+000 -7.000e+000 -7.000e+000 -7.000e+000 -7.000e+000 -7.000e+000 -7.000e+000 -7.000e+000 -7.000e+000 -7.000e+000 -7.000e+000 -7.000e+000 -7.000e+000 -1.500e+001 -1.500e+001 -1.500e+001 -7.000e+000 -7.000e+000 -7.000e+000 -7.000e+000 -7.000e+000 -7.000e+000 -7.000e+000 -7.000e+000 -7.000e+000 -7.000e+000 -7.000e+000 -7.000e+000 -7.000e+000 -7.000e+000 -7.000e+000 -7.000e+000 -7.000e+000 -7.000e+000 -7.000e+000 -7.000e+000 -7.000e+000 -7.000e+000 -7.000e+000 -7.000e+000 -7.000e+000 -7.000e+000 -7.000e+000 -7.000e+000 -7.000e+000 -7.000e+000 -7.000e+000 -7.000e+000 -7.000e+000 -7.000e+000 -7.000e+000 -7.000e+000 -7.000e+000 -7.000e+000 -7.000e+000 -7.000e+000 -7.000e+000 -7.000e+000 -7.000e+000 -7.000e+000 -7.000e+000 -7.000e+000 -7.000e+000 -7.000e+000 -7.000e+000 -7.000e+000 -7.000e+000 -7.000e+000 -7.000e+000 -1.500e+001 -7.000e+000 -7.000e+000 -7.000e+000 -7.000e+000 -7.000e+000 -7.000e+000 -7.000e+000 -7.000e+000 -7.000e+000 -7.000e+000 -7.000e+000 -7.000e+000 -7.000e+000 -7.000e+000 -7.000e+000 -7.000e+000 -7.000e+000 -7.000e+000 -7.000e+000 -7.000e+000 -7.000e+000 -7.000e+000 -7.000e+000 -7.000e+000 -7.000e+000 -7.000e+000 -7.000e+000 -7.000e+000 -7.000e+000 -7.000e+000 -7.000e+000 -7.000e+000 -7.000e+000 -7.000e+000 -7.000e+000 -7.000e+000 -7.000e+000 -7.000e+000 -7.000e+000 -7.000e+000 -7.000e+000 -7.000e+000 -7.000e+000 -7.000e+000 -7.000e+000 -7.000e+000 -7.000e+000 -7.000e+000 -1.500e+001 -7.000e+000 -7.000e+000 -7.000e+000 -7.000e+000 -7.000e+000 -7.000e+000 -7.000e+000 -7.000e+000 -7.000e+000 -7.000e+000 -7.000e+000 -7.000e+000 -7.000e+000 -7.000e+000 -7.000e+000 -7.000e+000 -7.000e+000 -7.000e+000 -7.000e+000 -7.000e+000 -7.000e+000 -7.000e+000 -7.000e+000 -7.000e+000 -7.000e+000 -7.000e+000 -7.000e+000 -7.000e+000 -7.000e+000 -7.000e+000 -7.000e+000 -7.000e+000 -7.000e+000 -7.000e+000 -7.000e+000 -7.000e+000 -7.000e+000 -7.000e+000 -7.000e+000 -7.000e+000 -7.000e+000 -7.000e+000 -7.000e+000 -7.000e+000 -7.000e+000 -7.000e+000 -7.000e+000 -7.000e+000 -7.000e+000 -7.000e+000 -7.000e+000 -7.000e+000 -7.000e+000 -7.000e+000 -7.000e+000 -7.000e+000 -7.000e+000 -7.000e+000 -7.000e+000 -7.000e+000 -7.000e+000 -7.000e+000 -7.000e+000 -7.000e+000 -7.000e+000 -7.000e+000 -7.000e+000 -7.000e+000 -7.000e+000 -7.000e+000 -7.000e+000 -7.000e+000 -7.000e+000 -7.000e+000 -7.000e+000 -7.000e+000 -7.000e+000 -7.000e+000 -7.000e+000 -7.000e+000 -7.000e+000 -7.000e+000 -7.000e+000 -7.000e+000 -7.000e+000 -7.000e+000 -7.000e+000 -7.000e+000 -7.000e+000 -7.000e+000 -7.000e+000 -7.000e+000 -7.000e+000 -7.000e+000 -7.000e+000 -7.000e+000 -7.000e+000 -7.000e+000 -7.000e+000 -7.000e+000 -7.000e+000 -7.000e+000 -7.000e+000 -7.000e+000 -7.000e+000 -7.000e+000 -7.000e+000 -7.000e+000 -7.000e+000 -7.000e+000 -7.000e+000 -7.000e+000 -7.000e+000 -7.000e+000 -7.000e+000 -7.000e+000 -7.000e+000 -7.000e+000 -7.000e+000 -7.000e+000 -7.000e+000 -7.000e+000 -1.700e+001 -1.700e+001 -1.700e+001 -1.700e+001 -9.000e+000 -9.000e+000 -9.000e+000 -9.000e+000 -9.000e+000 -9.000e+000 -9.000e+000 -9.000e+000 -9.000e+000 -1.700e+001 -1.700e+001 -9.000e+000 -9.000e+000 -9.000e+000 -9.000e+000 -9.000e+000 -9.000e+000 -9.000e+000 -9.000e+000 -9.000e+000 -9.000e+000 -9.000e+000 -9.000e+000 -9.000e+000 -4.000e+000 -4.000e+000 -4.000e+000 -4.000e+000 -4.000e+000 -4.000e+000 -4.000e+000 -4.000e+000 -4.000e+000 -4.000e+000 -4.000e+000 -4.000e+000 -4.000e+000 -4.000e+000 -4.000e+000 -4.000e+000 -4.000e+000 -4.000e+000 -4.000e+000 -4.000e+000 -4.000e+000 -4.000e+000 -4.000e+000 -4.000e+000 -4.000e+000 -4.000e+000 -4.000e+000 -4.000e+000 -4.000e+000 -4.000e+000 -4.000e+000 -4.000e+000 -4.000e+000 -4.000e+000 -4.000e+000 -4.000e+000 -4.000e+000 -4.000e+000 -4.000e+000 -4.000e+000 -4.000e+000 -4.000e+000 -4.000e+000 -4.000e+000 -4.000e+000 -4.000e+000 -4.000e+000 -4.000e+000 -4.000e+000 -4.000e+000 -4.000e+000 -4.000e+000 -4.000e+000 -4.000e+000 -4.000e+000
           </DataArray>
           <DataArray type="Float32" Name="nitrate/Cmin" NumberOfComponents="1" format="ascii">