<?xml version="1.0"?>
<VTKFile type="UnstructuredGrid" version="0.1" byte_order="LittleEndian">
   <UnstructuredGrid>
      <Piece NumberOfPoints="60610" NumberOfCells="4455">
         <Points>
            <DataArray type="Float32" Name="Position" NumberOfComponents="3" format="ascii">
-0.149	-5.022	-0.015
-0.150	-5.013	-0.012
-0.149	-5.004	-0.015
-0.148	-4.998	-0.022
-0.146	-4.998	-0.031
-0.144	-5.004	-0.039
-0.143	-5.012	-0.042
-0.143	-5.021	-0.039
-0.145	-5.027	-0.032
-0.147	-5.027	-0.023
-1.016	-5.044	-0.229
-1.017	-5.035	-0.226
-1.017	-5.027	-0.229
-1.015	-5.021	-0.236
-1.012	-5.022	-0.245
-1.010	-5.027	-0.252
-1.009	-5.036	-0.255
-1.009	-5.045	-0.252
-1.011	-5.050	-0.244
-1.014	-5.050	-0.236
-1.798	-5.062	-0.503
-1.799	-5.053	-0.501
-1.798	-5.045	-0.505
-1.795	-5.040	-0.513
-1.791	-5.042	-0.521
-1.788	-5.048	-0.527
-1.787	-5.057	-0.528
-1.788	-5.066	-0.524
-1.791	-5.070	-0.517
-1.795	-5.069	-0.509
-2.546	-5.136	-0.924
-2.548	-5.127	-0.923
-2.547	-5.119	-0.927
-2.544	-5.115	-0.935
-2.539	-5.116	-0.943
-2.535	-5.122	-0.948
-2.533	-5.131	-0.949
-2.533	-5.140	-0.944
-2.537	-5.144	-0.937
-2.541	-5.142	-0.929
-2.694	-5.182	-1.005
-2.697	-5.173	-1.004
-2.698	-5.165	-1.008
-2.695	-5.160	-1.015
-2.691	-5.161	-1.023
-2.686	-5.166	-1.029
-2.683	-5.175	-1.030
-2.682	-5.183	-1.026
-2.685	-5.188	-1.018
-2.689	-5.188	-1.010
-0.290	-5.060	-0.042
-0.291	-5.052	-0.038
-0.291	-5.042	-0.040
-0.290	-5.036	-0.047
-0.290	-5.035	-0.056
-0.289	-5.039	-0.064
-0.288	-5.048	-0.068
-0.288	-5.057	-0.066
-0.288	-5.063	-0.059
-0.289	-5.064	-0.050
-1.139	-5.097	-0.125
-1.140	-5.089	-0.121
-1.140	-5.080	-0.122
-1.140	-5.073	-0.129
-1.139	-5.072	-0.138
-1.138	-5.076	-0.146
-1.138	-5.085	-0.150
-1.137	-5.094	-0.149
-1.138	-5.100	-0.142
-1.138	-5.101	-0.133
-1.995	-5.131	-0.174
-1.996	-5.123	-0.169
-1.997	-5.114	-0.171
-1.997	-5.108	-0.177
-1.996	-5.106	-0.187
-1.996	-5.110	-0.195
-1.995	-5.118	-0.199
-1.994	-5.127	-0.198
-1.994	-5.134	-0.191
-1.994	-5.136	-0.182
-2.854	-5.232	-0.240
-2.856	-5.224	-0.236
-2.857	-5.215	-0.237
-2.857	-5.208	-0.244
-2.856	-5.207	-0.253
-2.854	-5.211	-0.261
-2.853	-5.219	-0.265
-2.852	-5.228	-0.264
-2.852	-5.235	-0.257
-2.853	-5.236	-0.248
-3.127	-5.272	-0.285
-3.129	-5.263	-0.281
-3.130	-5.254	-0.283
-3.130	-5.248	-0.289
-3.128	-5.246	-0.298
-3.126	-5.251	-0.306
-3.125	-5.259	-0.310
-3.124	-5.268	-0.309
-3.124	-5.274	-0.302
-3.125	-5.276	-0.293
-1.409	-5.754	-0.230
-1.404	-5.753	-0.222
-1.405	-5.753	-0.213
-1.410	-5.755	-0.205
-1.419	-5.757	-0.203
-1.427	-5.760	-0.206
-1.432	-5.762	-0.214
-1.432	-5.761	-0.223
-1.426	-5.760	-0.230
-1.418	-5.757	-0.233
-1.159	-6.524	-0.229
-1.154	-6.522	-0.222
-1.155	-6.522	-0.212
-1.161	-6.524	-0.205
-1.169	-6.526	-0.203
-1.178	-6.528	-0.206
-1.182	-6.530	-0.214
-1.182	-6.530	-0.224
-1.176	-6.529	-0.231
-1.167	-6.526	-0.233
-0.967	-7.339	-0.163
-0.962	-7.337	-0.155
-0.963	-7.337	-0.146
-0.969	-7.338	-0.139
-0.977	-7.341	-0.136
-0.985	-7.343	-0.140
-0.990	-7.345	-0.148
-0.989	-7.345	-0.157
-0.984	-7.344	-0.164
-0.975	-7.341	-0.166
-0.653	-8.117	-0.156
-0.648	-8.114	-0.148
-0.648	-8.114	-0.139
-0.654	-8.116	-0.131
-0.662	-8.120	-0.129
-0.670	-8.123	-0.132
-0.675	-8.125	-0.140
-0.674	-8.125	-0.149
-0.669	-8.123	-0.156
-0.661	-8.120	-0.159
-0.329	-8.913	-0.137
-0.324	-8.911	-0.129
-0.324	-8.911	-0.120
-0.330	-8.914	-0.112
-0.338	-8.917	-0.110
-0.346	-8.920	-0.113
-0.351	-8.921	-0.120
-0.351	-8.921	-0.130
-0.346	-8.919	-0.137
-0.338	-8.916	-0.140
-0.247	-9.210	-0.151
-0.239	-9.206	-0.151
-0.230	-9.207	-0.151
-0.223	-9.214	-0.151
-0.222	-9.223	-0.151
-0.226	-9.231	-0.151
-0.234	-9.235	-0.151
-0.243	-9.234	-0.151
-0.250	-9.227	-0.151
-0.251	-9.218	-0.151
-7.669	-17.488	-0.781
-7.670	-17.479	-0.778
-7.670	-17.470	-0.781
-7.668	-17.464	-0.788
-7.666	-17.464	-0.797
-7.664	-17.469	-0.804
-7.663	-17.478	-0.807
-7.663	-17.487	-0.805
-7.665	-17.493	-0.797
-7.667	-17.493	-0.788
-8.537	-17.526	-0.999
-8.538	-17.517	-0.996
-8.538	-17.508	-0.998
-8.537	-17.502	-1.005
-8.535	-17.502	-1.014
-8.533	-17.507	-1.022
-8.532	-17.516	-1.025
-8.533	-17.525	-1.023
-8.534	-17.530	-1.016
-8.536	-17.531	-1.007
-9.283	-17.543	-1.119
-9.284	-17.535	-1.116
-9.285	-17.526	-1.117
-9.285	-17.519	-1.124
-9.284	-17.518	-1.133
-9.282	-17.522	-1.141
-9.281	-17.531	-1.145
-9.281	-17.540	-1.143
-9.281	-17.546	-1.137
-9.282	-17.547	-1.127
-9.594	-17.562	-1.157
-9.586	-17.558	-1.157
-9.576	-17.559	-1.157
-9.570	-17.566	-1.157
-9.568	-17.575	-1.157
-9.573	-17.583	-1.157
-9.581	-17.587	-1.157
-9.590	-17.586	-1.157
-9.597	-17.579	-1.157
-9.598	-17.570	-1.157
-7.708	-17.633	-0.788
-7.709	-17.624	-0.784
-7.709	-17.615	-0.786
-7.708	-17.609	-0.793
-7.706	-17.609	-0.803
-7.705	-17.613	-0.810
-7.704	-17.622	-0.814
-7.704	-17.631	-0.811
-7.705	-17.637	-0.804
-7.706	-17.638	-0.795
-8.551	-17.663	-0.935
-8.551	-17.654	-0.931
-8.552	-17.645	-0.933
-8.551	-17.639	-0.940
-8.550	-17.638	-0.949
-8.549	-17.643	-0.957
-8.548	-17.651	-0.961
-8.548	-17.660	-0.959
-8.549	-17.666	-0.952
-8.550	-17.667	-0.943
-9.101	-17.672	-0.967
-9.101	-17.663	-0.963
-9.101	-17.654	-0.965
-9.101	-17.648	-0.971
-9.100	-17.647	-0.981
-9.100	-17.651	-0.989
-9.099	-17.659	-0.993
-9.099	-17.668	-0.991
-9.100	-17.675	-0.984
-9.100	-17.676	-0.975
-7.755	-17.756	-0.808
-7.746	-17.753	-0.809
-7.737	-17.756	-0.809
-7.732	-17.763	-0.807
-7.731	-17.772	-0.805
-7.737	-17.779	-0.802
-7.746	-17.782	-0.801
-7.754	-17.779	-0.802
-7.760	-17.772	-0.803
-7.760	-17.763	-0.806
-7.795	-17.981	-1.649
-7.786	-17.979	-1.650
-7.778	-17.982	-1.649
-7.772	-17.989	-1.647
-7.773	-17.998	-1.644
-7.778	-18.005	-1.642
-7.787	-18.008	-1.642
-7.796	-18.005	-1.643
-7.801	-17.997	-1.645
-7.801	-17.989	-1.647
-7.775	-18.100	-2.041
-7.766	-18.098	-2.041
-7.758	-18.101	-2.040
-7.753	-18.109	-2.037
-7.753	-18.118	-2.034
-7.759	-18.124	-2.033
-7.768	-18.127	-2.032
-7.777	-18.124	-2.034
-7.782	-18.116	-2.036
-7.781	-18.107	-2.039
-7.771	-17.923	-0.810
-7.768	-17.915	-0.807
-7.770	-17.907	-0.804
-7.777	-17.900	-0.803
-7.786	-17.899	-0.805
-7.793	-17.903	-0.808
-7.797	-17.911	-0.812
-7.795	-17.920	-0.814
-7.788	-17.926	-0.815
-7.779	-17.927	-0.813
-7.951	-18.214	-0.008
-7.947	-18.206	-0.004
-7.950	-18.198	-0.001
-7.957	-18.192	-0.000
-7.965	-18.190	-0.002
-7.973	-18.194	-0.006
-7.976	-18.201	-0.011
-7.974	-18.210	-0.014
-7.967	-18.216	-0.014
-7.958	-18.217	-0.012
-8.180	-18.524	0.580
-8.176	-18.517	0.585
-8.179	-18.509	0.588
-8.186	-18.502	0.589
-8.194	-18.501	0.587
-8.202	-18.504	0.582
-8.205	-18.511	0.577
-8.202	-18.519	0.574
-8.196	-18.526	0.573
-8.187	-18.527	0.575
-7.818	-18.069	-0.802
-7.819	-18.061	-0.798
-7.819	-18.052	-0.799
-7.819	-18.045	-0.806
-7.818	-18.044	-0.815
-7.818	-18.048	-0.823
-7.817	-18.057	-0.827
-7.817	-18.066	-0.826
-7.817	-18.072	-0.819
-7.818	-18.074	-0.810
-8.668	-18.093	-0.839
-8.668	-18.085	-0.835
-8.668	-18.076	-0.836
-8.669	-18.069	-0.842
-8.669	-18.067	-0.851
-8.669	-18.071	-0.860
-8.668	-18.079	-0.864
-8.668	-18.088	-0.863
-8.668	-18.095	-0.857
-8.668	-18.097	-0.847
-9.366	-18.135	-0.790
-9.366	-18.127	-0.786
-9.367	-18.118	-0.786
-9.368	-18.111	-0.793
-9.369	-18.109	-0.802
-9.369	-18.112	-0.810
-9.369	-18.120	-0.815
-9.368	-18.130	-0.814
-9.367	-18.136	-0.808
-9.367	-18.138	-0.799
-7.843	-18.215	-0.816
-7.839	-18.207	-0.813
-7.841	-18.198	-0.811
-7.848	-18.192	-0.811
-7.857	-18.190	-0.813
-7.864	-18.194	-0.815
-7.868	-18.202	-0.818
-7.867	-18.211	-0.820
-7.860	-18.217	-0.820
-7.851	-18.219	-0.819
-8.022	-18.419	-0.038
-8.018	-18.411	-0.035
-8.020	-18.402	-0.033
-8.027	-18.396	-0.032
-8.036	-18.394	-0.034
-8.044	-18.399	-0.036
-8.047	-18.407	-0.040
-8.045	-18.415	-0.042
-8.038	-18.421	-0.043
-8.029	-18.423	-0.041
-8.070	-18.511	0.231
-8.070	-18.503	0.235
-8.070	-18.494	0.234
-8.070	-18.487	0.227
-8.070	-18.486	0.218
-8.070	-18.490	0.210
-8.070	-18.498	0.206
-8.070	-18.507	0.207
-8.070	-18.514	0.214
-8.070	-18.515	0.223
-7.879	-18.361	-0.819
-7.875	-18.353	-0.815
-7.877	-18.344	-0.813
-7.883	-18.337	-0.813
-7.892	-18.336	-0.816
-7.900	-18.339	-0.819
-7.904	-18.347	-0.823
-7.902	-18.356	-0.825
-7.896	-18.363	-0.825
-7.887	-18.364	-0.822
-8.138	-18.599	-0.015
-8.133	-18.592	-0.012
-8.135	-18.583	-0.010
-8.141	-18.576	-0.012
-8.149	-18.573	-0.015
-8.157	-18.577	-0.018
-8.161	-18.584	-0.022
-8.160	-18.593	-0.023
-8.154	-18.601	-0.022
-8.145	-18.603	-0.019
-8.434	-18.641	0.563
-8.430	-18.634	0.566
-8.430	-18.625	0.566
-8.435	-18.617	0.564
-8.443	-18.615	0.560
-8.451	-18.618	0.556
-8.456	-18.625	0.553
-8.455	-18.635	0.553
-8.450	-18.642	0.555
-8.442	-18.645	0.559
-7.928	-18.505	-0.811
-7.929	-18.496	-0.808
-7.929	-18.487	-0.810
-7.927	-18.481	-0.818
-7.925	-18.481	-0.827
-7.923	-18.487	-0.834
-7.922	-18.495	-0.837
-7.922	-18.504	-0.834
-7.923	-18.510	-0.827
-7.926	-18.510	-0.818
-8.763	-18.545	-1.025
-8.765	-18.536	-1.022
-8.765	-18.528	-1.025
-8.763	-18.522	-1.032
-8.760	-18.522	-1.041
-8.758	-18.527	-1.048
-8.756	-18.536	-1.051
-8.757	-18.545	-1.048
-8.758	-18.550	-1.041
-8.761	-18.550	-1.032
-9.384	-18.615	-1.226
-9.386	-18.606	-1.223
-9.386	-18.597	-1.226
-9.384	-18.591	-1.233
-9.382	-18.591	-1.242
-9.379	-18.597	-1.249
-9.377	-18.605	-1.252
-9.377	-18.614	-1.249
-9.379	-18.620	-1.242
-9.381	-18.620	-1.233
-7.969	-18.630	-0.830
-7.960	-18.627	-0.830
-7.951	-18.629	-0.829
-7.946	-18.637	-0.827
-7.946	-18.646	-0.825
-7.952	-18.653	-0.824
-7.961	-18.656	-0.824
-7.969	-18.653	-0.825
-7.975	-18.646	-0.827
-7.974	-18.637	-0.829
-7.889	-18.805	-1.690
-7.881	-18.802	-1.689
-7.872	-18.804	-1.688
-7.866	-18.812	-1.686
-7.866	-18.821	-1.685
-7.871	-18.828	-1.685
-7.879	-18.832	-1.686
-7.888	-18.829	-1.687
-7.894	-18.822	-1.688
-7.894	-18.813	-1.689
-7.817	-18.831	-2.246
-7.809	-18.831	-2.242
-7.800	-18.831	-2.244
-7.793	-18.831	-2.250
-7.792	-18.831	-2.259
-7.796	-18.831	-2.268
-7.804	-18.831	-2.272
-7.813	-18.831	-2.270
-7.820	-18.831	-2.264
-7.821	-18.831	-2.255
-7.989	-18.780	-0.846
-7.986	-18.776	-0.838
-7.987	-18.775	-0.829
-7.990	-18.780	-0.821
-7.995	-18.787	-0.818
-8.000	-18.794	-0.821
-8.003	-18.799	-0.829
-8.003	-18.799	-0.838
-8.000	-18.795	-0.845
-7.994	-18.788	-0.848
[...]
         <CellData>
           <DataArray type="Float32" Name="combinedRootClassID" NumberOfComponents="1" format="ascii">
 -1.300e+001 -1.300e+001 -1.300e+001 -1.300e+001 -1.300e+001 -1.300e+001 -1.300e+001 -1.300e+001 -1.300e+001 -1.300e+001 -1.300e+001 -1.300e+001 -1.300e+001 -1.300e+001 -1.300e+001 -1.300e+001 -1.300e+001 -1.300e+001 -1.300e+001 -1.300e+001 -1.300e+001 -1.300e+001 -1.300e+001 -1.300e+001 -1.300e+001 -1.300e+001 -1.300e+001 -1.300e+001 -1.300e+001 -1.300e+001 -1.300e+001 -1.300e+001 -1.300e+001 -1.300e+001 -1.300e+001 -1.300e+001 -1.300e+001 -1.300e+001 -1.300e+001 -1.300e+001 -1.300e+001 -1.300e+001 -1.300e+001 -1.300e+001 -1.300e+001 -1.300e+001 -1.300e+001 -1.300e+001 -1.300e+001 -1.300e+001 -1.300e+001 -1.300e+001 -1.300e+001 -1.300e+001 -1.300e+001 -1.300e+001 -1.300e+001 -1.300e+001 -1.300e+001 -1.300e+001 -1.300e+001 -1.300e+001 -1.300e+001 -1.300e+001 -1.300e+001 -1.300e+001 -1.300e+001 -1.300e+001 -1.300e+001 -1.300e+001 -1.300e+001 -1.300e+001 -1.300e+001 -1.300e+001 -1.300e+001 -1.300e+001 -1.300e+001 -1.300e+001 -1.300e+001 -1.300e+001 -1.300e+001 -1.300e+001 -1.300e+001 -1.300e+001 -1.300e+001 -1.300e+001 -1.300e+001 -1.300e+001 -1.300e+001 -1.300e+001 -1.300e+001 -1.300e+001 -1.300e+001 -1.300e+001 -1.300e+001 -1.300e+001 -1.300e+001 -1.300e+001 -1.300e+001 -1.300e+001 -1.300e+001 -1.300e+001 -1.300e+001 -1.300e+001 -1.300e+001 -1.300e+001 -1.300e+001 -1.300e+001 -1.300e+001 -1.300e+001 -1.300e+001 -1.300e+001 -1.300e+001 -1.300e+001 -1.300e+001 -1.300e+001 -1.300e+001 -1.300e+001 -1.300e+001 -1.300e+001 -1.300e+001 -1.300e+001 -1.300e+001 -1.300e+001 -1.300e+001 -1.300e+001 -1.300e+001 -1.300e+001 -1.300e+001 -1.300e+001 -1.300e+001 -1.300e+001 -1.300e+001 -1.300e+001 -1.300e+001 -1.300e+001 -1.300e+001 -1.300e+001 -1.300e+001 -1.300e+001 -1.300e+001 -1.300e+001 -1.300e+001 -1.300e+001 -1.300e+001 -1.300e+001 -1.300e+001 -1.300e+001 -1.300e+001 -1.300e+001 -1.300e+001 -1.300e+001 -1.300e+001 -1.300e+001 -1.300e+001 -1.300e+001 -1.300e+001 -1.300e+001 -1.300e+001 -1.300e+001 -1.300e+001 -1.300e+001 -1.300e+001 -1.300e+001 -1.300e+001 -1.300e+001 -1.300e+001 -1.300e+001 -1.300e+001 -1.300e+001 -1.300e+001 -1.300e+001 -1.300e+001 -1.300e+001 -1.300e+001 -1.300e+001 -1.300e+001 -1.300e+001 -1.300e+001 -1.300e+001 -1.300e+001 -1.300e+001 -1.300e+001 -1.300e+001 -1.300e+001 -1.300e+001 -1.300e+001 -1.300e+001 -1.300e+001 -1.300e+001 -1.300e+001 -1.300e+001 -1.300e+001 -1.300e+001 -1.300e+001 -1.300e+001 -1.300e+001 -1.300e+001 -1.300e+001 -1.300e+001 -1.300e+001 -1.300e+001 -1.300e+001 -1.300e+001 -1.300e+001 -1.300e+001 -1.300e+001 -1.300e+001 -1.300e+001 -1.300e+001 -1.300e+001 -1.300e+001 -1.300e+001 -1.300e+001 -1.300e+001 -1.300e+001 -1.300e+001 -1.300e+001 -1.300e+001 -1.300e+001 -1.300e+001 -1.300e+001 -1.300e+001 -1.300e+001 -1.300e+001 -1.300e+001 -1.300e+001 -1.300e+001 -1.300e+001 -1.300e+001 -1.300e+001 -1.300e+001 -1.300e+001 -1.300e+001 -1.300e+001 -1.300e+001 -1.300e+001 -1.300e+001 -1.300e+001 -1.300e+001 -1.300e+001 -1.300e+001 -1.300e+001 -1.300e+001 -1.300e+001 -1.300e+001 -1.300e+001 -1.300e+001 -1.300e+001 -1.300e+001 -1.300e+001 -1.300e+001 -1.300e+001 -1.300e+001 -1.300e+001 -1.300e+001 -1.300e+001 -1.300e+001 -1.300e+001 -1.300e+001 -1.300e+001 -1.300e+001 -1.300e+001 -1.300e+001 -1.300e+001 -1.300e+001 -1.300e+001 -1.300e+001 -1.300e+001 -1.300e+001 -1.300e+001 -1.300e+001 -1.300e+001 -1.300e+001 -1.300e+001 -1.300e+001 -1.300e+001 -1.300e+001 -1.300e+001 -1.300e+001 -1.300e+001 -1.300e+001 -1.300e+001 -1.300e+001 -1.300e+001 -1.300e+001 -1.300e+001 -1.300e+001 -1.300e+001 -1.300e+001 -1.300e+001 -1.300e+001 -1.300e+001 -1.300e+001 -1.300e+001 -1.300e+001 -1.300e+001 -1.300e+001 -1.300e+001 -1.300e+001 -1.300e+001 -1.300e+001 -1.300e+001 -1.300e+001 -1.300e+001 -1.300e+001 -1.300e+001 -1.300e+001 -1.300e+001 -1.300e+001 -1.300e+001 -1.300e+001 -1.300e+001 -1.300e+001 -1.300e+001 -1.300e+001 -1.300e+001 -1.300e+001 -1.300e+001 -1.300e+001 -1.300e+001 -1.300e+001 -1.300e+001 -1.300e+001 -1.300e+001 -1.300e+001 -1.300e+001 -1.300e+001 -1.300e+001 -1.300e+001 -1.300e+001 -1.300e+001 -1.300e+001 -1.300e+001 -1.300e+001 -1.300e+001 -1.300e+001 -1.300e+001 -1.300e+001 -1.300e+001 -1.300e+001 -1.300e+001 -1.300e+001 -1.300e+001 -1.300e+001 -1.300e+001 -1.300e+001 -1.300e+001 -1.300e+001 -1.300e+001 -1.300e+001 -1.300e+001 -1.300e+001 -1.300e+001 -1.300e+001 -1.300e+001 -1.300e+001 -1.300e+001 -1.300e+001 -1.300e+001 -1.300e+001 -1.300e+001 -1.300e+001 -1.300e+001 -1.300e+001 -1.300e+001 -1.300e+001 -1.300e+001 -1.300e+001 -1.300e+001 -1.300e+001 -1.300e+001 -1.300e+001 -1.300e+001 -1.300e+001 -1.300e+001 -1.300e+001 -1.300e+001 -1.300e+001 -1.300e+001 -1.300e+001 -1.300e+001 -1.300e+001 -1.300e+001 -1.300e+001 -1.300e+001 -1.300e+001 -1.300e+001 -1.300e+001 -1.300e+001 -1.300e+001 -1.300e+001 -1.300e+001 -1.300e+001 -1.300e+001 -1.300e+001 -1.300e+001 -1.300e+001 -1.300e+001 -1.300e+001 -1.300e+001 -1.300e+001 -1.300e+001 -1.300e+001 -1.300e+001 -1.300e+001 -1.300e+001 -1.300e+001 -1.300e+001 -1.300e+001 -1.300e+001 -1.300e+001 -1.300e+001 -1.300e+001 -1.300e+001 -1.300e+001 -1.300e+001 -1.300e+001 -1.300e+001 -1.300e+001 -1.300e+001 -1.300e+001 -1.300e+001 -1.300e+001 -1.300e+001 -1.300e+001 -1.300e+001 -1.300e+001 -1.300e+001 -1.300e+001 -1.300e+001 -1.300e+001 -1.300e+001 -1.300e+001 -1.300e+001 -1.300e+001 -1.300e+001 -1.300e+001 -1.300e+001 -1.300e+001 -1.300e+001 -1.300e+001 -1.300e+001 -1.300e+001 -1.300e+001 -1.300e+001 -1.300e+001 -1.300e+001 -1.300e+001 -1.300e+001 -1.300e+001 -1.300e+001 -1.300e+001 -1.300e+001 -1.300e+001 -1.300e+001 -5.000e+000 -5.000e+000 -5.000e+000 -5.000e+000 -5.000e+000 -5.000e+000 -5.000e+000 -5.000e+000 -5.000e+000 -5.000e+000 -5.000e+000 -5.000e+000 -5.000e+000 -5.000e+000 -5.000e+000 -5.000e+000 -5.000e+000 -5.000e+000 -5.000e+000 -5.000e+000 -5.000e+000 -5.000e+000 -5.000e+000 -5.000e+000 -5.000e+000 -5.000e+000 -5.000e+000 -5.000e+000 -5.000e+000 -5.000e+000 -5.000e+000 -5.000e+000 -5.000e+000 -5.000e+000 -5.000e+000 -5.000e+000 -5.000e+000 -5.000e+000 -5.000e+000 -5.000e+000 -5.000e+000 -5.000e+000 -5.000e+000 -1.300e+001 -1.300e+001 -1.300e+001 -1.300e+001 -1.300e+001 -1.300e+001 -1.300e+001 -1.300e+001 -1.300e+001 -1.300e+001 -1.300e+001 -1.300e+001 -1.300e+001 -1.300e+001 -1.300e+001 -1.300e+001 -1.300e+001 -1.300e+001 -1.300e+001 -1.300e+001 -1.300e+001 -1.300e+001 -1.300e+001 -1.300e+001 -1.300e+001 -1.300e+001 -1.300e+001 -1.300e+001 -1.300e+001 -1.300e+001 -1.300e+001 -1.300e+001 -1.300e+001 -1.300e+001 -1.300e+001 -1.300e+001 -1.300e+001 -1.300e+001 -1.300e+001 -1.300e+001 -1.300e+001 -1.300e+001 -1.300e+001 -1.300e+001 -1.300e+001 -1.300e+001 -1.300e+001 -1.300e+001 -1.300e+001 -1.300e+001 -1.300e+001 -1.300e+001 -1.300e+001 -1.300e+001 -1.300e+001 -1.300e+001 -1.300e+001 -1.300e+001 -1.300e+001 -1.300e+001 -1.300e+001 -1.300e+001 -1.300e+001 -1.300e+001 -1.300e+001 -1.300e+001 -1.300e+001 -1.300e+001 -1.300e+001 -1.300e+001 -1.300e+001 -1.300e+001 -1.300e+001 -1.300e+001 -1.300e+001 -1.300e+001 -1.300e+001 -1.300e+001 -1.300e+001 -1.300e+001 -1.300e+001 -1.300e+001 -1.300e+001 -1.300e+001 -1.300e+001 -1.300e+001 -1.300e+001 -1.300e+001 -1.300e+001 -1.300e+001 -1.300e+001 -1.300e+001 -1.300e+001 -1.300e+001 -1.300e+001 -1.300e+001 -1.300e+001 -1.300e+001 -1.300e+001 -1.300e+001 -1.300e+001 -1.300e+001 -1.300e+001 -1.300e+001 -1.300e+001 -1.300e+001 -1.300e+001 -1.300e+001 -1.300e+001 -1.300e+001 -1.300e+001 -1.300e+001 -1.300e+001 -1.300e+001 -1.300e+001 -1.300e+001 -1.300e+001 -1.300e+001 -1.300e+001 -1.300e+001 -1.300e+001 -1.300e+001 -1.300e+001 -1.300e+001 -1.300e+001 -1.300e+001 -1.300e+001 -1.300e+001 -1.300e+001 -1.300e+001 -1.300e+001 -1.300e+001 -1.300e+001 -1.300e+001 -1.300e+001 -1.300e+001 -1.300e+001 -1.300e+001 -1.300e+001 -1.300e+001 -1.300e+001 -1.300e+001 -1.300e+001 -1.300e+001 -1.300e+001 -1.300e+001 -1.300e+001 -1.300e+001 -1.300e+001 -1.300e+001 -1.300e+001 -1.300e+001 -1.300e+001 -1.300e+001 -1.300e+001 -1.300e+001 -1.300e+001 -1.300e+001 -1.300e+001 -1.300e+001 -1.300e+001 -1.300e+001 -1.300e+001 -1.300e+001 -1.300e+001 -1.300e+001 -1.300e+001 -1.300e+001 -1.300e+001 -1.300e+001 -1.300e+001 -1.300e+001 -1.300e+001 -1.300e+001 -1.300e+001 -1.300e+001 -1.300e+001 -1.300e+001 -1.300e+001 -1.300e+001 -1.300e+001 -1.300e+001 -1.300e+001 -1.300e+001 -1.300e+001 -1.300e+001 -1.300e+001 -1.300e+001 -1.300e+001 -1.300e+001 -1.300e+001 -1.300e+001 -1.300e+001 -1.300e+001 -1.300e+001 -1.300e+001 -1.300e+001 -1.300e+001 -1.300e+001 -1.300e+001 -1.300e+001 -1.300e+001 -1.300e+001 -1.300e+001 -1.300e+001 -1.300e+001 -1.300e+001 -1.300e+001 -1.300e+001 -1.300e+001 -1.300e+001 -1.300e+001 -1.300e+001 -1.300e+001 -1.300e+001 -1.300e+001 -1.300e+001 -1.300e+001 -1.300e+001 -1.300e+001 -1.300e+001 -1.300e+001 -1.300e+001 -1.300e+001 -1.300e+001 -1.300e+001 -1.300e+001 -1.300e+001 -1.300e+001 -1.300e+001 -1.300e+001 -1.300e+001 -1.300e+001 -1.300e+001 -1.300e+001 -1.300e+001 -1.300e+001 -1.300e+001 -1.300e+001 -1.300e+001 -1.300e+001 -1.300e+001 -1.300e+001 -1.300e+001 -1.300e+001 -1.300e+001 -1.300e+001 -1.300e+001 -1.300e+001 -1.300e+001 -1.300e+001 -1.300e+001 -1.300e+001 -1.300e+001 -1.300e+001 -1.300e+001 -1.300e+001 -1.300e+001 -1.300e+001 -1.300e+001 -1.300e+001 -1.300e+001 -1.300e+001 -1.300e+001 -1.300e+001 -1.300e+001 -1.300e+001 -1.300e+001 -1.300e+001 -1.300e+001 -1.300e+001 -1.300e+001 -1.300e+001 -1.300e+001 -1.300e+001 -1.300e+001 -1.300e+001 -1.300e+001 -1.300e+001 -1.300e+001 -1.300e+001 -1.300e+001 -1.300e+001 -1.300e+001 -1.300e+001 -1.300e+001 -1.300e+001 -1.300e+001 -1.300e+001 -1.300e+001 -1.300e+001 -1.300e+001 -1.300e+001 -1.300e+001 -1.300e+001 -1.300e+001 -1.300e+001 -1.300e+001 -1.300e+001 -1.300e+001 -1.300e+001 -1.300e+001 -1.300e+001 -1.300e+001 -1.300e+001 -1.300e+001 -1.300e+001 -1.300e+001 -1.300e+001 -1.300e+001 -1.300e+001 -1.300e+001 -1.300e+001 -1.300e+001 -1.300e+001 -1.300e+001 -1.300e+001 -1.300e+001 -1.300e+001 -1.300e+001 -1.300e+001 -1.300e+001 -1.300e+001 -1.300e+001 -1.300e+001 -1.300e+001 -1.300e+001 -1.300e+001 -1.300e+001 -1.300e+001 -1.300e+001 -1.300e+001 -1.300e+001 -1.300e+001 -1.300e+001 -1.300e+001 -1.300e+001 -1.300e+001 -1.300e+001 -1.300e+001 -1.300e+001 -1.300e+001 -1.300e+001 -1.300e+001 -1.300e+001 -1.300e+001 -1.300e+001 -1.300e+001 -1.300e+001 -1.300e+001 -1.300e+001 -1.300e+001 -1.300e+001 -1.300e+001 -1.300e+001 -1.300e+001 -1.300e+001 -1.300e+001 -1.300e+001 -1.300e+001 -1.300e+001 -1.300e+001 -1.300e+001 -1.300e+001 -1.300e+001 -1.300e+001 -1.300e+001 -1.300e+001 -1.300e+001 -1.300e+001 -1.300e+001 -1.300e+001 -1.300e+001 -1.300e+001 -1.300e+001 -1.300e+001 -1.300e+001 -1.300e+001 -1.300e+001 -1.300e+001 -1.300e+001 -1.300e+001 -1.300e+001 -1.300e+001 -1.300e+001 -1.300e+001 -1.300e+001 -1.300e+001 -1.300e+001 -1.300e+001 -1.300e+001 -1.300e+001 -1.300e+001 -1.300e+001 -1.300e+001 -1.300e+001 -1.300e+001 -1.300e+001 -1.300e+001 -1.300e+001 -1.300e+001 -1.300e+001 -1.300e+001 -1.300e+001 -1.300e+001 -1.300e+001 -1.300e+001 -1.300e+001 -1.300e+001 -1.300e+001 -1.300e+001 -1.300e+001 -1.300e+001 -1.300e+001 -1.300e+001 -1.300e+001 -1.300e+001 -1.300e+001 -1.300e+001 -1.300e+001 -1.300e+001 -1.300e+001 -1.300e+001 -1.300e+001 -1.300e+001 -1.300e+001 -1.300e+001 -1.300e+001 -1.300e+001 -1.300e+001 -1.300e+001 -1.300e+001 -1.300e+001 -1.300e+001 -1.300e+001 -1.300e+001 -1.300e+001 -1.300e+001 -1.300e+001 -1.300e+001 -1.300e+001 -1.300e+001 -1.300e+001 -1.300e+001 -1.300e+001 -1.300e+001 -1.300e+001 -1.300e+001 -1.300e+001 -1.300e+001 -1.300e+001 -1.300e+001 -1.300e+001 -1.300e+001 -1.300e+001 -5.000e+000 -5.000e+000 -5.000e+000 -5.000e+000 -5.000e+000 -5.000e+000 -5.000e+000 -5.000e+000 -5.000e+000 -5.000e+000 -5.000e+000 -5.000e+000 -5.000e+000 -5.000e+000 -5.000e+000 -5.000e+000 -5.000e+000 -5.000e+000 -5.000e+000 -5.000e+000 -5.000e+000 -5.000e+000 -5.000e+000 -5.000e+000 -5.000e+000 -5.000e+000 -5.000e+000 -5.000e+000 -5.000e+000 -5.000e+000 -5.000e+000 -5.000e+000 -5.000e+000 -5.000e+000 -5.000e+000 -5.000e+000 -5.000e+000 -5.000e+000 -5.000e+000 -5.000e+000 -5.000e+000 -5.000e+000 -5.000e+000 -1.300e+001 -1.300e+001 -1.300e+001 -1.300e+001 -1.300e+001 -1.300e+001 -1.300e+001 -1.300e+001 -1.300e+001 -1.300e+001 -1.300e+001 -1.300e+001 -1.300e+001 -1.300e+001 -1.300e+001 -1.300e+001 -1.300e+001 -1.300e+001 -1.300e+001 -1.300e+001 -1.300e+001 -1.300e+001 -1.300e+001 -1.300e+001 -1.300e+001 -1.300e+001 -1.300e+001 -1.300e+001 -1.300e+001 -1.300e+001 -1.300e+001 -1.300e+001 -1.300e+001 -1.300e+001 -1.300e+001 -1.300e+001 -1.300e+001 -1.300e+001 -1.300e+001 -1.300e+001 -1.300e+001 -1.300e+001 -1.300e+001 -1.300e+001 -1.300e+001 -1.300e+001 -1.300e+001 -1.300e+001 -1.300e+001 -1.300e+001 -1.300e+001 -1.300e+001 -1.300e+001 -1.300e+001 -1.300e+001 -1.300e+001 -1.300e+001 -1.300e+001 -1.300e+001 -1.300e+001 -1.300e+001 -1.300e+001 -1.300e+001 -1.300e+001 -1.300e+001 -1.300e+001 -1.300e+001 -1.300e+001 -1.300e+001 -1.300e+001 -1.300e+001 -1.300e+001 -1.300e+001 -1.300e+001 -1.300e+001 -1.300e+001 -1.300e+001 -1.300e+001 -1.300e+001 -1.300e+001 -1.300e+001 -1.300e+001 -1.300e+001 -1.300e+001 -1.300e+001 -1.300e+001 -1.300e+001 -1.300e+001 -1.300e+001 -1.300e+001 -1.300e+001 -1.300e+001 -1.300e+001 -1.300e+001 -1.300e+001 -1.300e+001 -1.300e+001 -1.300e+001 -1.300e+001 -1.300e+001 -1.300e+001 -1.300e+001 -1.300e+001 -1.300e+001 -1.300e+001 -1.300e+001 -1.300e+001 -1.300e+001 -1.300e+001 -1.300e+001 -1.300e+001 -1.300e+001 -1.300e+001 -1.300e+001 -1.300e+001 -1.300e+001 -1.300e+001 -1.300e+001 -1.300e+001 -1.300e+001 -1.300e+001 -1.300e+001 -1.300e+001 -1.300e+001 -1.300e+001 -1.300e+001 -1.300e+001 -1.300e+001 -1.300e+001 -1.300e+001 -1.300e+001 -1.300e+001 -1.300e+001 -1.300e+001 -1.300e+001 -1.300e+001 -1.300e+001 -1.300e+001 -1.300e+001 -1.300e+001 -1.300e+001 -1.300e+001 -1.300e+001 -1.300e+001 -1.300e+001 -1.300e+001 -1.300e+001 -1.300e+001 -1.300e+001 -1.300e+001 -1.300e+001 -1.300e+001 -1.300e+001 -1.300e+001 -1.300e+001 -1.300e+001 -1.300e+001 -1.300e+001 -1.300e+001 -1.300e+001 -1.300e+001 -1.300e+001 -1.300e+001 -1.300e+001 -1.300e+001 -1.300e+001 -1.300e+001 -1.300e+001 -1.300e+001 -1.300e+001 -1.300e+001 -1.300e+001 -1.300e+001 -1.300e+001 -1.300e+001 -1.300e+001 -1.300e+001 -1.300e+001 -1.300e+001 -1.300e+001 -1.300e+001 -1.300e+001 -1.300e+001 -1.300e+001 -1.300e+001 -1.300e+001 -1.300e+001 -1.300e+001 -1.300e+001 -1.300e+001 -1.300e+001 -1.300e+001 -1.300e+001 -1.300e+001 -1.300e+001 -1.300e+001 -1.300e+001 -1.300e+001 -1.300e+001 -1.300e+001 -1.300e+001 -1.300e+001 -1.300e+001 -1.300e+001 -1.300e+001 -1.300e+001 -1.300e+001 -1.300e+001 -1.300e+001 -1.300e+001 -1.300e+001 -1.300e+001 -1.300e+001 -1.300e+001 -1.300e+001 -1.300e+001 -1.300e+001 -1.300e+001 -1.300e+001 -1.300e+001 -1.300e+001 -1.300e+001 -1.300e+001 -1.300e+001 -1.300e+001 -1.300e+001 -1.300e+001 -1.300e+001 -1.300e+001 -1.300e+001 -1.300e+001 -1.300e+001 -1.300e+001 -1.300e+001 -1.300e+001 -1.300e+001 -1.300e+001 -1.300e+001 -1.300e+001 -1.300e+001 -1.300e+001 -1.300e+001 -1.300e+001 -1.300e+001 -1.300e+001 -1.300e+001 -1.300e+001 -1.300e+001 -1.300e+001 -1.300e+001 -1.300e+001 -1.300e+001 -1.300e+001 -1.300e+001 -1.300e+001 -1.300e+001 -1.300e+001 -1.300e+001 -1.300e+001 -1.300e+001 -1.300e+001 -1.300e+001 -1.300e+001 -1.300e+001 -1.300e+001 -1.300e+001 -1.300e+001 -1.300e+001 -1.300e+001 -1.300e+001 -1.300e+001 -1.300e+001 -1.300e+001 -1.300e+001 -1.300e+001 -1.300e+001 -1.300e+001 -1.300e+001 -1.300e+001 -1.300e+001 -1.300e+001 -1.300e+001 -1.300e+001 -1.300e+001 -1.300e+001 -1.300e+001 -1.300e+001 -1.300e+001 -1.300e+001 -1.300e+001 -1.300e+001 -1.300e+001 -1.300e+001 -1.300e+001 -1.300e+001 -1.300e+001 -1.300e+001 -1.300e+001 -1.300e+001 -1.300e+001 -1.300e+001 -1.300e+001 -1.300e+001 -1.300e+001 -1.300e+001 -1.300e+001 -1.300e+001 -1.300e+001 -1.300e+001 -1.300e+001 -1.300e+001 -1.300e+001 -1.300e+001 -1.300e+001 -1.300e+001 -1.300e+001 -1.300e+001 -1.300e+001 -1.300e+001 -1.300e+001 -1.300e+001 -1.300e+001 -1.300e+001 -1.300e+001 -1.300e+001 -1.300e+001 -1.300e+001 -1.300e+001 -1.300e+001 -1.300e+001 -1.300e+001 -1.300e+001 -1.300e+001 -1.300e+001 -1.300e+001 -1.300e+001 -1.300e+001 -1.300e+001 -1.300e+001 -1.300e+001 -1.300e+001 -1.300e+001 -1.300e+001 -1.300e+001 -1.300e+001 -1.300e+001 -1.300e+001 -1.300e+001 -1.300e+001 -1.300e+001 -1.300e+001 -1.300e+001 -1.300e+001 -1.300e+001 -1.300e+001 -1.300e+001 -1.300e+001 -1.300e+001 -1.300e+001 -1.300e+001 -1.300e+001 -1.300e+001 -1.300e+001 -1.300e+001 -1.300e+001 -1.300e+001 -1.300e+001 -1.300e+001 -1.300e+001 -1.300e+001 -1.300e+001 -1.300e+001 -1.300e+001 -1.300e+001 -1.300e+001 -1.300e+001 -1.300e+001 -1.300e+001 -1.300e+001 -1.300e+001 -1.300e+001 -1.300e+001 -1.300e+001 -1.300e+001 -1.300e+001 -1.300e+001 -1.300e+001 -1.300e+001 -1.300e+001 -1.300e+001 -1.300e+001 -1.300e+001 -1.300e+001 -1.300e+001 -1.300e+001 -1.300e+001 -1.300e+001 -1.300e+001 -1.300e+001 -1.300e+001 -1.300e+001 -1.300e+001 -1.300e+001 -1.300e+001 -1.300e+001 -1.300e+001 -1.300e+001 -1.300e+001 -1.300e+001 -1.300e+001 -1.300e+001 -1.300e+001 -1.300e+001 -1.300e+001 -1.300e+001 -1.300e+001 -1.300e+001 -1.300e+001 -1.300e+001 -1.300e+001 -1.300e+001 -1.300e+001 -1.300e+001 -1.300e+001 -1.300e+001 -1.300e+001 -1.300e+001 -1.300e+001 -1.300e+001 -1.300e+001 -1.300e+001 -1.300e+001 -1.300e+001 -1.300e+001 -1.300e+001 -1.300e+001 -1.300e+001 -1.300e+001 -1.300e+001 -1.300e+001 -1.300e+001 -1.300e+001 -1.300e+001 -1.300e+001 -1.300e+001 -1.300e+001 -1.300e+001 -1.300e+001 -1.300e+001 -1.300e+001 -1.300e+001 -1.300e+001 -1.300e+001 -5.000e+000 -5.000e+000 -5.000e+000 -5.000e+000 -5.000e+000 -5.000e+000 -5.000e+000 -5.000e+000 -5.000e+000 -5.000e+000 -5.000e+000 -5.000e+000 -5.000e+000 -5.000e+000 -5.000e+000 -5.000e+000 -5.000e+000 -5.000e+000 -5.000e+000 -5.000e+000 -5.000e+000 -5.000e+000 -5.000e+000 -5.000e+000 -5.000e+000 -5.000e+000 -5.000e+000 -5.000e+000 -5.000e+000 -5.000e+000 -5.000e+000 -5.000e+000 -5.000e+000 -5.000e+000 -5.000e+000 -5.000e+000 -5.000e+000 -5.000e+000 -5.000e+000 -5.000e+000 -5.000e+000 -5.000e+000 -5.000e+000 -1.300e+001 -1.300e+001 -1.300e+001 -1.300e+001 -1.300e+001 -1.300e+001 -1.300e+001 -1.300e+001 -1.300e+001 -1.300e+001 -1.300e+001 -1.300e+001 -1.300e+001 -1.300e+001 -1.300e+001 -1.300e+001 -1.300e+001 -1.300e+001 -1.300e+001 -1.300e+001 -1.300e+001 -1.300e+001 -1.300e+001 -1.300e+001 -1.300e+001 -1.300e+001 -1.300e+001 -1.300e+001 -1.300e+001 -1.300e+001 -1.300e+001 -1.300e+001 -1.300e+001 -1.300e+001 -1.300e+001 -1.300e+001 -1.300e+001 -1.300e+001 -1.300e+001 -1.300e+001 -1.300e+001 -1.300e+001 -1.300e+001 -1.300e+001 -1.300e+001 -1.300e+001 -1.300e+001 -1.300e+001 -1.300e+001 -1.300e+001 -1.300e+001 -1.300e+001 -1.300e+001 -1.300e+001 -1.300e+001 -1.300e+001 -1.300e+001 -1.300e+001 -1.300e+001 -1.300e+001 -1.300e+001 -1.300e+001 -1.300e+001 -1.300e+001 -1.300e+001 -1.300e+001 -1.300e+001 -1.300e+001 -1.300e+001 -1.300e+001 -1.300e+001 -1.300e+001 -1.300e+001 -1.300e+001 -1.300e+001 -1.300e+001 -1.300e+001 -1.300e+001 -1.300e+001 -1.300e+001 -1.300e+001 -1.300e+001 -1.300e+001 -1.300e+001 -1.300e+001 -1.300e+001 -1.300e+001 -1.300e+001 -1.300e+001 -1.300e+001 -1.300e+001 -1.300e+001 -1.300e+001 -1.300e+001 -1.300e+001 -1.300e+001 -1.300e+001 -1.300e+001 -1.300e+001 -1.300e+001 -1.300e+001 -1.300e+001 -1.300e+001 -1.300e+001 -1.300e+001 -1.300e+001 -1.300e+001 -1.300e+001 -1.300e+001 -1.300e+001 -1.300e+001 -1.300e+001 -1.300e+001 -1.300e+001 -1.300e+001 -1.300e+001 -1.300e+001 -1.300e+001 -1.300e+001 -1.300e+001 -1.300e+001 -1.300e+001 -1.300e+001 -1.300e+001 -1.300e+001 -1.300e+001 -1.300e+001 -1.300e+001 -1.300e+001 -1.300e+001 -1.300e+001 -1.300e+001 -1.300e+001 -1.300e+001 -1.300e+001 -1.300e+001 -1.300e+001 -1.300e+001 -1.300e+001 -1.300e+001 -1.300e+001 -1.300e+001 -1.300e+001 -1.300e+001 -1.300e+001 -1.300e+001 -1.300e+001 -1.300e+001 -1.300e+001 -1.300e+001 -1.300e+001 -1.300e+001 -1.300e+001 -1.300e+001 -1.300e+001 -1.300e+001 -1.300e+001 -1.300e+001 -1.300e+001 -1.300e+001 -1.300e+001 -1.300e+001 -1.300e+001 -1.3