<?xml version="1.0"?>
<VTKFile type="UnstructuredGrid" version="0.1" byte_order="LittleEndian">
   <UnstructuredGrid>
      <Piece NumberOfPoints="14070" NumberOfCells="1002">
         <Points>
            <DataArray type="Float32" Name="Position" NumberOfComponents="3" format="ascii">
-0.149	-5.022	-0.015
-0.150	-5.013	-0.012
-0.149	-5.004	-0.015
-0.148	-4.998	-0.022
-0.146	-4.998	-0.031
-0.144	-5.004	-0.039
-0.143	-5.012	-0.042
-0.143	-5.021	-0.039
-0.145	-5.027	-0.032
-0.147	-5.027	-0.023
-1.016	-5.044	-0.229
-1.017	-5.035	-0.226
-1.017	-5.027	-0.229
-1.015	-5.021	-0.236
-1.012	-5.022	-0.245
-1.010	-5.027	-0.252
-1.009	-5.036	-0.255
-1.009	-5.045	-0.252
-1.011	-5.050	-0.245
-1.014	-5.050	-0.236
-1.317	-5.032	-0.341
-1.309	-5.028	-0.341
-1.299	-5.030	-0.341
-1.293	-5.037	-0.340
-1.292	-5.046	-0.340
-1.296	-5.054	-0.339
-1.305	-5.058	-0.339
-1.314	-5.056	-0.339
-1.320	-5.049	-0.339
-1.321	-5.040	-0.340
-0.290	-5.060	-0.042
-0.291	-5.052	-0.038
-0.291	-5.042	-0.040
-0.290	-5.036	-0.047
-0.290	-5.035	-0.056
-0.289	-5.039	-0.064
-0.288	-5.048	-0.068
-0.288	-5.057	-0.066
-0.288	-5.063	-0.059
-0.289	-5.064	-0.050
-1.139	-5.097	-0.125
-1.139	-5.089	-0.121
-1.140	-5.080	-0.122
-1.140	-5.073	-0.129
-1.139	-5.072	-0.138
-1.138	-5.076	-0.146
-1.138	-5.085	-0.150
-1.137	-5.094	-0.149
-1.138	-5.100	-0.142
-1.138	-5.102	-0.133
-1.514	-5.116	-0.137
-1.514	-5.108	-0.133
-1.515	-5.099	-0.135
-1.515	-5.092	-0.141
-1.515	-5.091	-0.150
-1.514	-5.095	-0.158
-1.514	-5.103	-0.163
-1.513	-5.112	-0.161
-1.513	-5.119	-0.155
-1.513	-5.120	-0.146
-1.409	-5.754	-0.230
-1.404	-5.753	-0.222
-1.405	-5.753	-0.213
-1.410	-5.755	-0.205
-1.419	-5.757	-0.203
-1.427	-5.760	-0.206
-1.432	-5.762	-0.214
-1.432	-5.761	-0.223
-1.426	-5.760	-0.230
-1.418	-5.757	-0.233
-1.159	-6.524	-0.229
-1.154	-6.522	-0.222
-1.155	-6.522	-0.212
-1.161	-6.524	-0.205
-1.169	-6.526	-0.203
-1.178	-6.528	-0.206
-1.182	-6.530	-0.214
-1.182	-6.530	-0.224
-1.176	-6.529	-0.231
-1.167	-6.526	-0.233
-1.042	-7.072	-0.194
-1.038	-7.070	-0.186
-1.039	-7.070	-0.177
-1.045	-7.071	-0.170
-1.054	-7.072	-0.168
-1.062	-7.074	-0.171
-1.066	-7.076	-0.179
-1.065	-7.076	-0.188
-1.059	-7.075	-0.195
-1.051	-7.074	-0.197
-1.524	-5.849	-0.249
-1.519	-5.847	-0.242
-1.519	-5.848	-0.232
-1.524	-5.850	-0.225
-1.532	-5.853	-0.222
-1.540	-5.857	-0.225
-1.545	-5.858	-0.233
-1.545	-5.858	-0.242
-1.540	-5.856	-0.249
-1.532	-5.852	-0.252
-1.195	-6.657	-0.277
-1.189	-6.655	-0.270
-1.189	-6.656	-0.260
-1.193	-6.660	-0.253
-1.201	-6.664	-0.250
-1.209	-6.667	-0.253
-1.214	-6.669	-0.260
-1.215	-6.668	-0.269
-1.211	-6.665	-0.277
-1.203	-6.660	-0.280
-1.005	-6.992	-0.377
-0.999	-6.991	-0.370
-0.998	-6.993	-0.361
-1.001	-6.997	-0.353
-1.008	-7.002	-0.350
-1.016	-7.006	-0.352
-1.022	-7.007	-0.359
-1.024	-7.005	-0.368
-1.021	-7.001	-0.376
-1.013	-6.996	-0.379
-1.636	-5.962	-0.254
-1.632	-5.954	-0.250
-1.633	-5.945	-0.249
-1.639	-5.938	-0.250
-1.647	-5.935	-0.254
-1.654	-5.938	-0.259
-1.658	-5.946	-0.263
-1.656	-5.955	-0.265
-1.651	-5.962	-0.263
-1.643	-5.965	-0.259
-2.027	-6.131	0.405
-2.023	-6.124	0.410
-2.024	-6.114	0.411
-2.029	-6.107	0.409
-2.037	-6.104	0.404
-2.044	-6.107	0.398
-2.047	-6.115	0.394
-2.046	-6.124	0.393
-2.041	-6.131	0.395
-2.034	-6.134	0.400
-2.221	-6.167	0.628
-2.221	-6.159	0.632
-2.221	-6.149	0.630
-2.221	-6.143	0.624
-2.221	-6.141	0.615
-2.221	-6.146	0.606
-2.221	-6.154	0.602
-2.221	-6.163	0.604
-2.221	-6.170	0.610
-2.221	-6.171	0.619
-1.750	-6.042	-0.289
-1.746	-6.039	-0.281
-1.745	-6.039	-0.272
-1.750	-6.043	-0.264
-1.757	-6.047	-0.261
-1.764	-6.052	-0.264
-1.769	-6.055	-0.272
-1.770	-6.055	-0.281
-1.765	-6.051	-0.288
-1.758	-6.047	-0.291
-1.313	-6.723	-0.320
-1.309	-6.719	-0.312
-1.309	-6.719	-0.303
-1.313	-6.723	-0.296
-1.320	-6.728	-0.293
-1.327	-6.734	-0.295
-1.331	-6.737	-0.303
-1.331	-6.737	-0.312
-1.327	-6.734	-0.320
-1.320	-6.728	-0.323
-0.971	-7.084	-0.310
-0.967	-7.080	-0.303
-0.967	-7.080	-0.293
-0.971	-7.083	-0.286
-0.977	-7.089	-0.283
-0.984	-7.095	-0.286
-0.988	-7.099	-0.293
-0.988	-7.099	-0.302
-0.984	-7.096	-0.310
-0.977	-7.090	-0.313
-1.868	-6.158	-0.283
-1.868	-6.149	-0.279
-1.868	-6.140	-0.281
-1.868	-6.134	-0.287
-1.868	-6.133	-0.296
-1.867	-6.137	-0.305
-1.867	-6.145	-0.309
-1.867	-6.154	-0.307
-1.867	-6.161	-0.300
-1.867	-6.162	-0.291
-2.720	-6.169	-0.316
-2.720	-6.160	-0.311
-2.720	-6.151	-0.313
-2.720	-6.145	-0.319
-2.720	-6.143	-0.328
-2.720	-6.147	-0.337
-2.720	-6.155	-0.341
-2.720	-6.164	-0.340
-2.720	-6.171	-0.333
-2.720	-6.173	-0.324
-3.044	-6.181	-0.292
-3.044	-6.173	-0.288
-3.045	-6.164	-0.289
-3.045	-6.157	-0.295
-3.046	-6.155	-0.304
-3.047	-6.159	-0.312
-3.047	-6.167	-0.317
-3.046	-6.176	-0.316
-3.046	-6.183	-0.310
-3.045	-6.185	-0.301
-1.974	-6.261	-0.299
-1.975	-6.253	-0.294
-1.976	-6.244	-0.295
-1.976	-6.237	-0.301
-1.977	-6.236	-0.311
-1.976	-6.239	-0.319
-1.976	-6.247	-0.324
-1.975	-6.256	-0.323
-1.974	-6.263	-0.316
-1.974	-6.265	-0.307
-2.791	-6.335	-0.299
-2.792	-6.328	-0.294
-2.793	-6.318	-0.295
-2.794	-6.311	-0.301
-2.794	-6.309	-0.310
-2.794	-6.313	-0.319
-2.793	-6.321	-0.323
-2.792	-6.330	-0.322
-2.791	-6.337	-0.316
-2.791	-6.339	-0.307
-2.895	-6.349	-0.295
-2.895	-6.341	-0.290
-2.897	-6.332	-0.290
-2.898	-6.325	-0.296
-2.898	-6.322	-0.305
-2.898	-6.326	-0.314
-2.897	-6.334	-0.319
-2.896	-6.343	-0.318
-2.895	-6.350	-0.312
-2.894	-6.352	-0.303
-2.068	-6.357	-0.329
-2.064	-6.354	-0.321
-2.064	-6.354	-0.312
-2.069	-6.356	-0.305
-2.077	-6.360	-0.302
-2.085	-6.364	-0.305
-2.090	-6.367	-0.313
-2.089	-6.367	-0.322
-2.084	-6.365	-0.329
-2.076	-6.361	-0.332
-1.688	-7.115	-0.295
-1.683	-7.112	-0.287
-1.684	-7.112	-0.278
-1.689	-7.113	-0.271
-1.698	-7.116	-0.268
-1.706	-7.120	-0.272
-1.710	-7.123	-0.279
-1.709	-7.123	-0.289
-1.704	-7.122	-0.296
-1.695	-7.118	-0.298
-1.608	-7.356	-0.258
-1.604	-7.353	-0.250
-1.605	-7.352	-0.241
-1.611	-7.353	-0.234
-1.620	-7.356	-0.232
-1.628	-7.359	-0.235
-1.632	-7.361	-0.243
-1.631	-7.362	-0.252
-1.625	-7.362	-0.259
-1.616	-7.359	-0.262
-2.168	-6.482	-0.323
-2.164	-6.475	-0.320
-2.165	-6.465	-0.319
-2.171	-6.458	-0.319
-2.180	-6.456	-0.322
-2.188	-6.460	-0.326
-2.192	-6.467	-0.329
-2.191	-6.477	-0.330
-2.185	-6.484	-0.329
-2.176	-6.486	-0.326
-2.438	-6.611	0.419
-2.434	-6.603	0.422
-2.435	-6.594	0.423
-2.441	-6.587	0.422
-2.449	-6.585	0.419
-2.457	-6.588	0.415
-2.461	-6.596	0.412
-2.460	-6.605	0.411
-2.454	-6.612	0.413
-2.446	-6.614	0.416
-2.458	-6.616	0.466
-2.453	-6.608	0.469
-2.454	-6.599	0.469
-2.460	-6.592	0.468
-2.468	-6.590	0.464
-2.476	-6.593	0.461
-2.480	-6.601	0.458
-2.479	-6.610	0.458
-2.474	-6.617	0.459
-2.465	-6.619	0.462
-2.272	-6.576	-0.342
-2.268	-6.572	-0.335
-2.268	-6.572	-0.326
-2.272	-6.576	-0.318
-2.279	-6.581	-0.315
-2.286	-6.587	-0.318
-2.290	-6.591	-0.325
-2.290	-6.591	-0.335
-2.286	-6.588	-0.342
-2.279	-6.582	-0.345
-1.693	-7.235	-0.330
-1.689	-7.232	-0.323
-1.689	-7.232	-0.313
-1.693	-7.236	-0.306
-1.699	-7.241	-0.303
-1.706	-7.247	-0.305
-1.710	-7.251	-0.313
-1.710	-7.251	-0.322
-1.706	-7.247	-0.330
-1.700	-7.241	-0.333
-1.655	-7.277	-0.333
-1.651	-7.274	-0.325
-1.651	-7.274	-0.316
-1.654	-7.278	-0.309
-1.661	-7.284	-0.306
-1.667	-7.290	-0.308
-1.672	-7.293	-0.316
-1.672	-7.293	-0.325
-1.668	-7.289	-0.333
-1.662	-7.283	-0.336
-2.369	-6.702	-0.337
-2.365	-6.694	-0.335
-2.367	-6.685	-0.333
-2.374	-6.679	-0.332
-2.383	-6.678	-0.333
-2.391	-6.682	-0.335
-2.395	-6.690	-0.337
-2.393	-6.699	-0.339
-2.386	-6.706	-0.340
-2.377	-6.707	-0.339
-2.452	-6.876	0.458
-2.449	-6.868	0.461
-2.451	-6.859	0.463
-2.458	-6.853	0.464
-2.467	-6.852	0.463
-2.475	-6.856	0.461
-2.478	-6.864	0.459
-2.476	-6.873	0.457
-2.469	-6.879	0.456
-2.460	-6.880	0.456
-2.472	-6.935	0.634
-2.469	-6.927	0.637
-2.471	-6.918	0.640
-2.478	-6.912	0.641
-2.487	-6.912	0.640
-2.495	-6.916	0.638
-2.499	-6.924	0.635
-2.496	-6.933	0.632
-2.489	-6.938	0.631
-2.480	-6.939	0.632
-0.420	-5.107	-0.074
-0.416	-5.099	-0.070
-0.417	-5.090	-0.069
-0.424	-5.083	-0.070
-0.432	-5.081	-0.072
-0.440	-5.085	-0.076
-0.444	-5.093	-0.079
-0.443	-5.102	-0.081
-0.436	-5.108	-0.080
-0.428	-5.111	-0.077
-0.707	-5.281	0.696
-0.703	-5.273	0.700
-0.704	-5.264	0.701
-0.710	-5.257	0.700
-0.718	-5.255	0.696
-0.725	-5.258	0.692
-0.729	-5.265	0.688
-0.728	-5.275	0.686
-0.722	-5.282	0.688
-0.714	-5.284	0.691
-0.920	-5.358	1.001
-0.916	-5.350	1.005
-0.917	-5.341	1.007
-0.923	-5.334	1.005
-0.930	-5.331	1.000
-0.937	-5.334	0.995
-0.941	-5.341	0.990
-0.939	-5.350	0.989
-0.934	-5.358	0.991
-0.926	-5.360	0.995
-2.473	-6.799	-0.354
-2.470	-6.795	-0.347
-2.471	-6.793	-0.337
-2.476	-6.796	-0.330
-2.483	-6.801	-0.327
-2.489	-6.807	-0.330
-2.493	-6.811	-0.337
-2.492	-6.813	-0.346
-2.487	-6.810	-0.354
-2.480	-6.805	-0.357
-1.969	-7.412	-0.217
-1.966	-7.407	-0.210
-1.967	-7.405	-0.201
-1.973	-7.407	-0.194
-1.980	-7.412	-0.191
-1.986	-7.419	-0.194
-1.990	-7.423	-0.201
-1.988	-7.425	-0.210
-1.983	-7.423	-0.217
-1.976	-7.418	-0.220
-1.899	-7.499	-0.179
-1.896	-7.493	-0.172
-1.898	-7.491	-0.164
-1.903	-7.492	-0.157
-1.911	-7.497	-0.154
-1.917	-7.504	-0.156
-1.920	-7.509	-0.163
-1.918	-7.511	-0.172
-1.912	-7.510	-0.179
-1.905	-7.505	-0.182
-2.564	-6.931	-0.346
-2.560	-6.922	-0.344
-2.562	-6.913	-0.342
-2.568	-6.907	-0.342
-2.577	-6.906	-0.343
-2.585	-6.910	-0.345
-2.589	-6.918	-0.347
-2.588	-6.927	-0.348
-2.581	-6.933	-0.348
-2.572	-6.935	-0.347
-2.660	-7.062	0.402
-2.656	-7.054	0.403
-2.658	-7.045	0.405
-2.664	-7.038	0.405
-2.673	-7.037	0.404
-2.681	-7.041	0.402
-2.685	-7.049	0.400
-2.684	-7.058	0.399
-2.677	-7.065	0.399
-2.668	-7.066	0.400
-2.703	-7.104	0.663
-2.699	-7.096	0.665
-2.700	-7.087	0.666
-2.707	-7.081	0.666
-2.716	-7.079	0.665
-2.724	-7.083	0.663
-2.728	-7.091	0.661
-2.727	-7.100	0.660
-2.720	-7.107	0.660
-2.711	-7.108	0.661
-2.662	-7.032	-0.360
-2.657	-7.029	-0.353
-2.656	-7.029	-0.344
-2.659	-7.034	-0.336
-2.665	-7.040	-0.333
-2.672	-7.045	-0.336
-2.677	-7.048	-0.343
-2.678	-7.048	-0.352
-2.675	-7.043	-0.360
-2.668	-7.037	-0.363
-2.098	-7.678	-0.457
-2.094	-7.670	-0.457
-2.096	-7.661	-0.457
-2.102	-7.654	-0.457
-2.111	-7.653	-0.457
-2.120	-7.657	-0.457
-2.124	-7.665	-0.457
[...]
         <CellData>
           <DataArray type="Float32" Name="combinedRootClassID" NumberOfComponents="1" format="ascii">
 -1.300e+001 -1.300e+001 -1.300e+001 -1.300e+001 -1.300e+001 -1.300e+001 -1.300e+001 -1.300e+001 -1.300e+001 -1.300e+001 -1.300e+001 -1.300e+001 -1.300e+001 -1.300e+001 -1.300e+001 -1.300e+001 -1.300e+001 -1.300e+001 -1.300e+001 -1.300e+001 -1.300e+001 -1.300e+001 -1.300e+001 -1.300e+001 -1.300e+001 -1.300e+001 -1.300e+001 -1.300e+001 -1.300e+001 -1.300e+001 -1.300e+001 -1.300e+001 -1.300e+001 -1.300e+001 -1.300e+001 -1.300e+001 -1.300e+001 -1.300e+001 -1.300e+001 -1.300e+001 -1.300e+001 -1.300e+001 -1.300e+001 -1.300e+001 -1.300e+001 -1.300e+001 -1.300e+001 -1.300e+001 -1.300e+001 -1.300e+001 -1.300e+001 -1.300e+001 -1.300e+001 -1.300e+001 -1.300e+001 -1.300e+001 -1.300e+001 -1.300e+001 -1.300e+001 -1.300e+001 -1.300e+001 -1.300e+001 -1.300e+001 -1.300e+001 -1.300e+001 -1.300e+001 -1.300e+001 -1.300e+001 -1.300e+001 -1.300e+001 -1.300e+001 -1.300e+001 -1.300e+001 -1.300e+001 -1.300e+001 -1.300e+001 -1.300e+001 -1.300e+001 -1.300e+001 -1.300e+001 -1.300e+001 -1.300e+001 -1.300e+001 -1.300e+001 -1.300e+001 -1.300e+001 -5.000e+000 -5.000e+000 -5.000e+000 -5.000e+000 -5.000e+000 -5.000e+000 -5.000e+000 -5.000e+000 -5.000e+000 -5.000e+000 -5.000e+000 -5.000e+000 -5.000e+000 -5.000e+000 -5.000e+000 -5.000e+000 -5.000e+000 -5.000e+000 -5.000e+000 -5.000e+000 -5.000e+000 -5.000e+000 -5.000e+000 -1.300e+001 -1.300e+001 -1.300e+001 -1.300e+001 -1.300e+001 -1.300e+001 -1.300e+001 -1.300e+001 -1.300e+001 -1.300e+001 -1.300e+001 -1.300e+001 -1.300e+001 -1.300e+001 -1.300e+001 -1.300e+001 -1.300e+001 -1.300e+001 -1.300e+001 -1.300e+001 -1.300e+001 -1.300e+001 -1.300e+001 -1.300e+001 -1.300e+001 -1.300e+001 -1.300e+001 -1.300e+001 -1.300e+001 -1.300e+001 -1.300e+001 -1.300e+001 -1.300e+001 -1.300e+001 -1.300e+001 -1.300e+001 -1.300e+001 -1.300e+001 -1.300e+001 -1.300e+001 -1.300e+001 -1.300e+001 -1.300e+001 -1.300e+001 -1.300e+001 -1.300e+001 -1.300e+001 -1.300e+001 -1.300e+001 -1.300e+001 -1.300e+001 -1.300e+001 -1.300e+001 -1.300e+001 -1.300e+001 -1.300e+001 -1.300e+001 -1.300e+001 -1.300e+001 -1.300e+001 -1.300e+001 -1.300e+001 -1.300e+001 -1.300e+001 -1.300e+001 -1.300e+001 -1.300e+001 -1.300e+001 -1.300e+001 -1.300e+001 -1.300e+001 -1.300e+001 -1.300e+001 -1.300e+001 -1.300e+001 -1.300e+001 -1.300e+001 -1.300e+001 -1.300e+001 -1.300e+001 -1.300e+001 -1.300e+001 -1.300e+001 -1.300e+001 -1.300e+001 -5.000e+000 -5.000e+000 -5.000e+000 -5.000e+000 -5.000e+000 -5.000e+000 -5.000e+000 -5.000e+000 -5.000e+000 -5.000e+000 -5.000e+000 -5.000e+000 -5.000e+000 -5.000e+000 -5.000e+000 -5.000e+000 -5.000e+000 -5.000e+000 -5.000e+000 -5.000e+000 -5.000e+000 -5.000e+000 -5.000e+000 -1.300e+001 -1.300e+001 -1.300e+001 -1.300e+001 -1.300e+001 -1.300e+001 -1.300e+001 -1.300e+001 -1.300e+001 -1.300e+001 -1.300e+001 -1.300e+001 -1.300e+001 -1.300e+001 -1.300e+001 -1.300e+001 -1.300e+001 -1.300e+001 -1.300e+001 -1.300e+001 -1.300e+001 -1.300e+001 -1.300e+001 -1.300e+001 -1.300e+001 -1.300e+001 -1.300e+001 -1.300e+001 -1.300e+001 -1.300e+001 -1.300e+001 -1.300e+001 -1.300e+001 -1.300e+001 -1.300e+001 -1.300e+001 -1.300e+001 -1.300e+001 -1.300e+001 -1.300e+001 -1.300e+001 -1.300e+001 -1.300e+001 -1.300e+001 -1.300e+001 -1.300e+001 -1.300e+001 -1.300e+001 -1.300e+001 -1.300e+001 -1.300e+001 -1.300e+001 -1.300e+001 -1.300e+001 -1.300e+001 -1.300e+001 -1.300e+001 -1.300e+001 -1.300e+001 -1.300e+001 -1.300e+001 -1.300e+001 -1.300e+001 -1.300e+001 -1.300e+001 -1.300e+001 -1.300e+001 -1.300e+001 -1.300e+001 -1.300e+001 -1.300e+001 -1.300e+001 -1.300e+001 -1.300e+001 -1.300e+001 -1.300e+001 -1.300e+001 -1.300e+001 -1.300e+001 -1.300e+001 -1.300e+001 -1.300e+001 -1.300e+001 -1.300e+001 -1.300e+001 -1.300e+001 -5.000e+000 -5.000e+000 -5.000e+000 -5.000e+000 -5.000e+000 -5.000e+000 -5.000e+000 -5.000e+000 -5.000e+000 -5.000e+000 -5.000e+000 -5.000e+000 -5.000e+000 -5.000e+000 -5.000e+000 -5.000e+000 -5.000e+000 -5.000e+000 -5.000e+000 -5.000e+000 -5.000e+000 -5.000e+000 -5.000e+000 -1.300e+001 -1.300e+001 -1.300e+001 -1.300e+001 -1.300e+001 -1.300e+001 -1.300e+001 -1.300e+001 -1.300e+001 -1.300e+001 -1.300e+001 -1.300e+001 -1.300e+001 -1.300e+001 -1.300e+001 -1.300e+001 -1.300e+001 -1.300e+001 -1.300e+001 -1.300e+001 -1.300e+001 -1.300e+001 -1.300e+001 -1.300e+001 -1.300e+001 -1.300e+001 -1.300e+001 -1.300e+001 -1.300e+001 -1.300e+001 -1.300e+001 -1.300e+001 -1.300e+001 -1.300e+001 -1.300e+001 -1.300e+001 -1.300e+001 -1.300e+001 -1.300e+001 -1.300e+001 -1.300e+001 -1.300e+001 -1.300e+001 -1.300e+001 -1.300e+001 -1.300e+001 -1.300e+001 -1.300e+001 -1.300e+001 -1.300e+001 -1.300e+001 -1.300e+001 -1.300e+001 -1.300e+001 -1.300e+001 -1.300e+001 -1.300e+001 -1.300e+001 -1.300e+001 -1.300e+001 -1.300e+001 -1.300e+001 -1.300e+001 -1.300e+001 -1.300e+001 -1.300e+001 -1.300e+001 -1.300e+001 -1.300e+001 -1.300e+001 -1.300e+001 -1.300e+001 -1.300e+001 -1.300e+001 -1.300e+001 -1.300e+001 -1.300e+001 -1.300e+001 -1.300e+001 -1.300e+001 -1.300e+001 -1.300e+001 -1.300e+001 -1.300e+001 -1.300e+001 -1.300e+001 -1.300e+001 -1.300e+001 -5.000e+000 -5.000e+000 -5.000e+000 -5.000e+000 -5.000e+000 -5.000e+000 -5.000e+000 -5.000e+000 -5.000e+000 -5.000e+000 -5.000e+000 -5.000e+000 -5.000e+000 -5.000e+000 -5.000e+000 -5.000e+000 -5.000e+000 -5.000e+000 -5.000e+000 -5.000e+000 -5.000e+000 -5.000e+000 -5.000e+000 -1.100e+001 -1.100e+001 -1.100e+001 -1.100e+001 -1.100e+001 -1.100e+001 -1.100e+001 -1.100e+001 -1.100e+001 -1.100e+001 -1.100e+001 -1.100e+001 -1.100e+001 -1.100e+001 -1.100e+001 -1.100e+001 -1.100e+001 -1.100e+001 -1.100e+001 -1.100e+001 -1.100e+001 -1.100e+001 -1.100e+001 -1.100e+001 -1.100e+001 -1.100e+001 -1.100e+001 -1.100e+001 -1.100e+001 -1.100e+001 -1.100e+001 -1.100e+001 -1.100e+001 -1.100e+001 -1.100e+001 -1.100e+001 -1.100e+001 -1.100e+001 -1.100e+001 -1.100e+001 -1.100e+001 -1.100e+001 -1.100e+001 -1.100e+001 -1.100e+001 -1.100e+001 -1.100e+001 -1.100e+001 -1.100e+001 -1.100e+001 -1.100e+001 -1.100e+001 -2.000e+000 -2.000e+000 -2.000e+000 -2.000e+000 -2.000e+000 -2.000e+000 -2.000e+000 -2.000e+000 -2.000e+000 -2.000e+000 -2.000e+000 -2.000e+000 -7.000e+000 -7.000e+000 -7.000e+000 -7.000e+000 -7.000e+000 -7.000e+000 -7.000e+000 -7.000e+000 -7.000e+000 -7.000e+000 -7.000e+000 -1.500e+001 -7.000e+000 -7.000e+000 -7.000e+000 -7.000e+000 -7.000e+000 -7.000e+000 -7.000e+000 -7.000e+000 -7.000e+000 -7.000e+000 -7.000e+000 -7.000e+000 -7.000e+000 -7.000e+000 -7.000e+000 -7.000e+000 -7.000e+000 -7.000e+000 -7.000e+000 -7.000e+000 -7.000e+000 -7.000e+000 -7.000e+000 -7.000e+000 -7.000e+000 -7.000e+000 -7.000e+000 -7.000e+000 -7.000e+000 -7.000e+000 -7.000e+000 -7.000e+000 -7.000e+000 -7.000e+000 -7.000e+000 -7.000e+000 -7.000e+000 -7.000e+000 -7.000e+000 -7.000e+000 -7.000e+000 -7.000e+000 -7.000e+000 -7.000e+000 -7.000e+000 -7.000e+000 -7.000e+000 -7.000e+000 -7.000e+000 -7.000e+000 -7.000e+000 -7.000e+000 -7.000e+000 -7.000e+000 -7.000e+000 -7.000e+000 -7.000e+000 -7.000e+000 -7.000e+000 -7.000e+000 -7.000e+000 -7.000e+000 -7.000e+000 -7.000e+000 -7.000e+000 -7.000e+000 -7.000e+000 -7.000e+000 -7.000e+000 -7.000e+000 -7.000e+000 -7.000e+000 -7.000e+000 -7.000e+000 -7.000e+000 -7.000e+000 -7.000e+000 -7.000e+000 -7.000e+000 -7.000e+000 -7.000e+000 -7.000e+000 -7.000e+000 -7.000e+000 -7.000e+000 -7.000e+000 -7.000e+000 -7.000e+000 -7.000e+000 -7.000e+000 -7.000e+000 -7.000e+000 -7.000e+000 -7.000e+000 -7.000e+000 -7.000e+000 -7.000e+000 -7.000e+000 -7.000e+000 -7.000e+000 -7.000e+000 -7.000e+000 -7.000e+000 -7.000e+000 -7.000e+000 -7.000e+000 -7.000e+000 -7.000e+000 -7.000e+000 -7.000e+000 -7.000e+000 -7.000e+000 -7.000e+000 -7.000e+000 -7.000e+000 -7.000e+000 -7.000e+000 -7.000e+000 -7.000e+000 -7.000e+000 -7.000e+000 -7.000e+000 -7.000e+000 -7.000e+000 -7.000e+000 -7.000e+000 -7.000e+000 -7.000e+000 -7.000e+000 -7.000e+000 -7.000e+000 -7.000e+000 -7.000e+000 -7.000e+000 -7.000e+000 -7.000e+000 -7.000e+000 -7.000e+000 -7.000e+000 -7.000e+000 -7.000e+000 -7.000e+000 -7.000e+000 -7.000e+000 -7.000e+000 -7.000e+000 -7.000e+000 -7.000e+000 -7.000e+000 -7.000e+000 -7.000e+000 -7.000e+000 -7.000e+000 -7.000e+000 -7.000e+000 -7.000e+000 -7.000e+000 -7.000e+000 -7.000e+000 -7.000e+000 -7.000e+000 -7.000e+000 -7.000e+000 -7.000e+000 -7.000e+000 -7.000e+000 -7.000e+000 -7.000e+000 -7.000e+000 -7.000e+000 -7.000e+000 -7.000e+000 -7.000e+000 -7.000e+000 -7.000e+000 -7.000e+000 -7.000e+000 -7.000e+000 -7.000e+000 -7.000e+000 -7.000e+000 -7.000e+000 -7.000e+000 -7.000e+000 -7.000e+000 -7.000e+000 -7.000e+000 -7.000e+000 -7.000e+000 -7.000e+000 -7.000e+000 -7.000e+000 -7.000e+000 -7.000e+000 -7.000e+000 -7.000e+000 -7.000e+000 -7.000e+000 -7.000e+000 -7.000e+000 -7.000e+000 -7.000e+000 -7.000e+000 -7.000e+000 -7.000e+000 -7.000e+000 -7.000e+000 -7.000e+000 -7.000e+000 -7.000e+000 -7.000e+000 -7.000e+000 -7.000e+000 -7.000e+000 -7.000e+000 -7.000e+000 -7.000e+000 -7.000e+000 -7.000e+000 -7.000e+000 -7.000e+000 -7.000e+000 -7.000e+000 -7.000e+000 -7.000e+000 -7.000e+000 -7.000e+000 -7.000e+000 -7.000e+000 -7.000e+000 -7.000e+000 -7.000e+000 -7.000e+000 -7.000e+000 -7.000e+000 -7.000e+000 -7.000e+000 -7.000e+000 -7.000e+000 -7.000e+000 -7.000e+000 -7.000e+000 -7.000e+000 -7.000e+000 -7.000e+000 -7.000e+000 -7.000e+000 -7.000e+000 -1.500e+001 -7.000e+000 -7.000e+000 -7.000e+000 -7.000e+000 -7.000e+000 -7.000e+000 -7.000e+000 -7.000e+000 -7.000e+000 -7.000e+000 -7.000e+000 -7.000e+000 -7.000e+000 -7.000e+000 -7.000e+000 -7.000e+000 -7.000e+000 -7.000e+000 -7.000e+000 -7.000e+000 -7.000e+000 -7.000e+000 -7.000e+000 -7.000e+000 -7.000e+000 -7.000e+000 -7.000e+000 -7.000e+000 -7.000e+000 -7.000e+000 -7.000e+000 -7.000e+000 -7.000e+000 -7.000e+000 -7.000e+000 -7.000e+000 -7.000e+000 -7.000e+000 -7.000e+000 -7.000e+000 -7.000e+000 -7.000e+000 -7.000e+000 -7.000e+000 -7.000e+000 -7.000e+000 -7.000e+000 -7.000e+000 -7.000e+000 -7.000e+000 -7.000e+000 -7.000e+000 -7.000e+000 -7.000e+000 -7.000e+000 -7.000e+000 -7.000e+000 -7.000e+000 -7.000e+000 -7.000e+000 -7.000e+000 -7.000e+000 -7.000e+000 -7.000e+000 -7.000e+000 -7.000e+000 -7.000e+000 -7.000e+000 -7.000e+000 -7.000e+000 -7.000e+000 -7.000e+000 -7.000e+000 -7.000e+000 -7.000e+000 -7.000e+000 -7.000e+000 -7.000e+000 -7.000e+000 -7.000e+000 -7.000e+000 -7.000e+000 -7.000e+000 -7.000e+000 -7.000e+000 -7.000e+000 -7.000e+000 -7.000e+000 -7.000e+000 -7.000e+000 -7.000e+000 -7.000e+000 -7.000e+000 -7.000e+000 -7.000e+000 -7.000e+000 -7.000e+000 -7.000e+000 -7.000e+000 -7.000e+000 -7.000e+000 -7.000e+000 -7.000e+000 -7.000e+000 -7.000e+000 -7.000e+000 -7.000e+000 -7.000e+000 -7.000e+000 -7.000e+000 -7.000e+000 -7.000e+000 -7.000e+000 -7.000e+000 -7.000e+000 -7.000e+000 -7.000e+000 -7.000e+000 -7.000e+000 -7.000e+000 -7.000e+000 -7.000e+000 -7.000e+000 -7.000e+000 -7.000e+000 -7.000e+000 -7.000e+000 -7.000e+000 -7.000e+000 -7.000e+000 -7.000e+000 -7.000e+000 -7.000e+000 -7.000e+000 -7.000e+000 -7.000e+000 -7.000e+000 -7.000e+000 -7.000e+000 -7.000e+000 -7.000e+000 -7.000e+000 -7.000e+000 -7.000e+000 -7.000e+000 -7.000e+000 -7.000e+000 -7.000e+000 -7.000e+000 -7.000e+000 -7.000e+000 -7.000e+000 -7.000e+000 -7.000e+000 -7.000e+000 -7.000e+000 -7.000e+000 -7.000e+000 -7.000e+000 -7.000e+000 -7.000e+000 -7.000e+000 -7.000e+000 -7.000e+000 -7.000e+000 -7.000e+000 -7.000e+000 -7.000e+000 -7.000e+000 -7.000e+000 -1.700e+001 -1.700e+001 -9.000e+000 -9.000e+000 -9.000e+000 -9.000e+000 -9.000e+000 -9.000e+000 -9.000e+000 -9.000e+000 -9.000e+000 -9.000e+000 -9.000e+000 -9.000e+000 -9.000e+000 -9.000e+000 -9.000e+000 -9.000e+000 -9.000e+000 -9.000e+000 -4.000e+000 -4.000e+000 -4.000e+000 -4.000e+000 -4.000e+000 -4.000e+000 -4.000e+000 -4.000e+000 -4.000e+000 -4.000e+000 -4.000e+000 -4.000e+000 -4.000e+000 -4.000e+000 -4.000e+000 -4.000e+000 -4.000e+000 -4.000e+000 -4.000e+000 -4.000e+000 -4.000e+000 -4.000e+000 -4.000e+000 -4.000e+000 -4.000e+000 -4.000e+000 -4.000e+000 -4.000e+000 -4.000e+000 -4.000e+000 -4.000e+000 -4.000e+000 -4.000e+000 -4.000e+000 -4.000e+000 -4.000e+000 -4.000e+000 -4.000e+000 -4.000e+000 -4.000e+000 -4.000e+000 -4.000e+000 -4.000e+000 -4.000e+000 -4.000e+000 -4.000e+000 -4.000e+000 -4.000e+000 -4.000e+000 -4.000e+000
           </DataArray>
           <DataArray type="Float32" Name="nitrate/Cmin" NumberOfComponents="1" format="ascii">