<?xml version="1.0"?>
<VTKFile type="UnstructuredGrid" version="0.1" byte_order="LittleEndian">
   <UnstructuredGrid>
      <Piece NumberOfPoints="8890" NumberOfCells="620">
         <Points>
            <DataArray type="Float32" Name="Position" NumberOfComponents="3" format="ascii">
-0.149	-5.022	-0.015
-0.150	-5.013	-0.012
-0.149	-5.004	-0.015
-0.148	-4.999	-0.022
-0.146	-4.998	-0.031
-0.144	-5.003	-0.039
-0.143	-5.012	-0.042
-0.143	-5.021	-0.039
-0.145	-5.027	-0.032
-0.147	-5.027	-0.023
-0.819	-5.038	-0.165
-0.820	-5.030	-0.162
-0.819	-5.021	-0.165
-0.818	-5.015	-0.172
-0.816	-5.015	-0.181
-0.814	-5.020	-0.189
-0.813	-5.029	-0.192
-0.813	-5.038	-0.189
-0.815	-5.043	-0.182
-0.817	-5.044	-0.173
-0.290	-5.060	-0.042
-0.291	-5.051	-0.038
-0.291	-5.042	-0.040
-0.290	-5.036	-0.047
-0.289	-5.035	-0.056
-0.288	-5.040	-0.064
-0.287	-5.048	-0.068
-0.287	-5.057	-0.066
-0.288	-5.063	-0.059
-0.289	-5.064	-0.050
-0.979	-5.085	-0.127
-0.980	-5.077	-0.123
-0.980	-5.068	-0.125
-0.979	-5.062	-0.132
-0.978	-5.061	-0.141
-0.977	-5.065	-0.149
-0.976	-5.074	-0.153
-0.976	-5.083	-0.151
-0.977	-5.089	-0.144
-0.978	-5.090	-0.135
-1.409	-5.754	-0.230
-1.404	-5.753	-0.222
-1.405	-5.753	-0.213
-1.410	-5.755	-0.205
-1.419	-5.757	-0.203
-1.427	-5.760	-0.206
-1.432	-5.762	-0.214
-1.432	-5.762	-0.223
-1.426	-5.760	-0.230
-1.418	-5.757	-0.233
-1.200	-6.389	-0.231
-1.196	-6.388	-0.223
-1.196	-6.388	-0.214
-1.201	-6.389	-0.206
-1.210	-6.392	-0.204
-1.218	-6.395	-0.207
-1.223	-6.397	-0.215
-1.223	-6.396	-0.224
-1.217	-6.395	-0.231
-1.209	-6.392	-0.234
-1.523	-5.850	-0.249
-1.519	-5.847	-0.241
-1.519	-5.847	-0.232
-1.524	-5.849	-0.225
-1.532	-5.853	-0.222
-1.540	-5.856	-0.225
-1.545	-5.858	-0.233
-1.545	-5.859	-0.242
-1.540	-5.856	-0.250
-1.531	-5.853	-0.252
-1.296	-6.426	-0.214
-1.296	-6.418	-0.210
-1.296	-6.409	-0.212
-1.296	-6.402	-0.218
-1.296	-6.401	-0.227
-1.296	-6.405	-0.236
-1.296	-6.413	-0.240
-1.296	-6.422	-0.238
-1.296	-6.429	-0.232
-1.296	-6.430	-0.223
-1.635	-5.961	-0.255
-1.631	-5.954	-0.251
-1.633	-5.945	-0.250
-1.638	-5.938	-0.251
-1.647	-5.935	-0.254
-1.654	-5.939	-0.259
-1.658	-5.946	-0.262
-1.657	-5.955	-0.264
-1.651	-5.962	-0.263
-1.643	-5.965	-0.259
-1.847	-6.067	0.189
-1.843	-6.059	0.193
-1.844	-6.050	0.194
-1.850	-6.043	0.193
-1.859	-6.041	0.190
-1.866	-6.044	0.185
-1.870	-6.051	0.182
-1.869	-6.060	0.180
-1.863	-6.067	0.181
-1.854	-6.070	0.185
-1.750	-6.042	-0.288
-1.745	-6.040	-0.281
-1.745	-6.040	-0.272
-1.750	-6.043	-0.264
-1.757	-6.047	-0.261
-1.765	-6.052	-0.264
-1.770	-6.054	-0.272
-1.770	-6.054	-0.281
-1.765	-6.051	-0.288
-1.758	-6.047	-0.291
-1.451	-6.562	-0.308
-1.446	-6.559	-0.300
-1.446	-6.559	-0.291
-1.451	-6.562	-0.284
-1.458	-6.567	-0.281
-1.466	-6.571	-0.284
-1.471	-6.573	-0.291
-1.471	-6.573	-0.300
-1.466	-6.570	-0.308
-1.459	-6.566	-0.311
-1.868	-6.158	-0.283
-1.868	-6.149	-0.279
-1.868	-6.140	-0.281
-1.868	-6.134	-0.287
-1.868	-6.133	-0.296
-1.867	-6.137	-0.305
-1.867	-6.145	-0.309
-1.867	-6.154	-0.307
-1.867	-6.161	-0.300
-1.867	-6.162	-0.291
-2.394	-6.164	-0.311
-2.394	-6.155	-0.307
-2.394	-6.146	-0.309
-2.394	-6.140	-0.316
-2.394	-6.139	-0.325
-2.393	-6.143	-0.333
-2.393	-6.151	-0.337
-2.393	-6.160	-0.335
-2.393	-6.167	-0.329
-2.394	-6.168	-0.320
-1.975	-6.261	-0.298
-1.976	-6.253	-0.294
-1.977	-6.243	-0.296
-1.976	-6.237	-0.302
-1.976	-6.236	-0.311
-1.975	-6.240	-0.320
-1.974	-6.248	-0.324
-1.974	-6.257	-0.322
-1.974	-6.264	-0.316
-1.975	-6.265	-0.306
-2.366	-6.283	-0.339
-2.362	-6.275	-0.339
-2.364	-6.265	-0.339
-2.370	-6.259	-0.339
-2.379	-6.257	-0.339
-2.388	-6.262	-0.339
-2.392	-6.270	-0.339
-2.390	-6.279	-0.339
-2.384	-6.286	-0.339
-2.375	-6.287	-0.339
-2.069	-6.356	-0.329
-2.064	-6.354	-0.322
-2.064	-6.354	-0.312
-2.069	-6.356	-0.305
-2.077	-6.360	-0.302
-2.085	-6.365	-0.305
-2.089	-6.367	-0.313
-2.089	-6.368	-0.322
-2.084	-6.365	-0.329
-2.076	-6.361	-0.332
-1.842	-6.764	-0.321
-1.838	-6.762	-0.313
-1.838	-6.761	-0.304
-1.843	-6.764	-0.297
-1.851	-6.768	-0.294
-1.858	-6.773	-0.297
-1.863	-6.775	-0.304
-1.863	-6.775	-0.314
-1.858	-6.773	-0.321
-1.850	-6.769	-0.324
-2.168	-6.482	-0.324
-2.164	-6.474	-0.321
-2.165	-6.465	-0.319
-2.172	-6.458	-0.319
-2.181	-6.456	-0.321
-2.188	-6.460	-0.324
-2.192	-6.468	-0.328
-2.191	-6.477	-0.329
-2.184	-6.484	-0.329
-2.175	-6.486	-0.327
-2.262	-6.562	0.002
-2.258	-6.555	0.005
-2.260	-6.546	0.007
-2.266	-6.539	0.007
-2.275	-6.537	0.005
-2.283	-6.541	0.001
-2.287	-6.549	-0.002
-2.285	-6.558	-0.003
-2.279	-6.564	-0.003
-2.270	-6.566	-0.001
-2.271	-6.577	-0.342
-2.267	-6.574	-0.335
-2.267	-6.573	-0.325
-2.272	-6.576	-0.318
-2.279	-6.581	-0.315
-2.287	-6.586	-0.318
-2.291	-6.590	-0.325
-2.291	-6.590	-0.335
-2.286	-6.587	-0.342
-2.279	-6.582	-0.345
-2.065	-6.876	-0.320
-2.065	-6.871	-0.312
-2.065	-6.873	-0.303
-2.065	-6.879	-0.296
-2.065	-6.888	-0.295
-2.065	-6.897	-0.299
-2.065	-6.901	-0.307
-2.065	-6.900	-0.317
-2.065	-6.893	-0.323
-2.065	-6.884	-0.325
-2.369	-6.703	-0.336
-2.365	-6.695	-0.334
-2.367	-6.686	-0.332
-2.374	-6.679	-0.332
-2.383	-6.678	-0.334
-2.391	-6.682	-0.336
-2.395	-6.690	-0.338
-2.393	-6.699	-0.340
-2.386	-6.705	-0.340
-2.377	-6.707	-0.338
-2.435	-6.778	0.036
-2.431	-6.770	0.038
-2.433	-6.761	0.040
-2.440	-6.754	0.040
-2.449	-6.753	0.039
-2.457	-6.757	0.036
-2.461	-6.765	0.034
-2.459	-6.774	0.032
-2.452	-6.780	0.032
-2.443	-6.782	0.034
-0.420	-5.107	-0.074
-0.416	-5.099	-0.071
-0.417	-5.090	-0.069
-0.424	-5.083	-0.070
-0.432	-5.081	-0.072
-0.440	-5.085	-0.076
-0.444	-5.093	-0.079
-0.443	-5.102	-0.080
-0.436	-5.109	-0.080
-0.428	-5.111	-0.077
-0.631	-5.250	0.554
-0.628	-5.242	0.557
-0.629	-5.233	0.558
-0.635	-5.226	0.558
-0.644	-5.224	0.555
-0.652	-5.228	0.552
-0.656	-5.236	0.549
-0.654	-5.245	0.547
-0.648	-5.252	0.548
-0.639	-5.254	0.550
-2.473	-6.799	-0.354
-2.469	-6.795	-0.347
-2.470	-6.794	-0.337
-2.475	-6.797	-0.330
-2.482	-6.802	-0.327
-2.489	-6.807	-0.330
-2.493	-6.811	-0.337
-2.492	-6.812	-0.347
-2.487	-6.809	-0.354
-2.480	-6.804	-0.357
-2.272	-7.070	-0.321
-2.268	-7.066	-0.314
-2.269	-7.065	-0.304
-2.274	-7.068	-0.297
-2.281	-7.073	-0.294
-2.288	-7.078	-0.297
-2.292	-7.082	-0.304
-2.291	-7.083	-0.314
-2.286	-7.080	-0.321
-2.279	-7.075	-0.324
-2.564	-6.930	-0.346
-2.560	-6.922	-0.344
-2.562	-6.913	-0.342
-2.569	-6.907	-0.341
-2.578	-6.906	-0.342
-2.586	-6.910	-0.344
-2.589	-6.918	-0.347
-2.588	-6.927	-0.348
-2.581	-6.933	-0.349
-2.572	-6.935	-0.348
-2.610	-7.014	0.005
-2.607	-7.006	0.008
-2.608	-6.997	0.010
-2.615	-6.991	0.010
-2.624	-6.990	0.009
-2.632	-6.994	0.007
-2.636	-7.002	0.005
-2.634	-7.011	0.003
-2.627	-7.017	0.002
-2.618	-7.018	0.003
-2.660	-7.033	-0.360
-2.656	-7.030	-0.353
-2.655	-7.030	-0.343
-2.659	-7.034	-0.336
-2.666	-7.039	-0.333
-2.674	-7.044	-0.336
-2.678	-7.047	-0.343
-2.679	-7.047	-0.352
-2.675	-7.043	-0.360
-2.668	-7.038	-0.363
-2.493	-7.265	-0.377
-2.489	-7.262	-0.369
-2.488	-7.262	-0.360
-2.492	-7.266	-0.352
-2.499	-7.271	-0.349
-2.507	-7.276	-0.352
-2.511	-7.279	-0.360
-2.512	-7.279	-0.369
-2.508	-7.275	-0.376
-2.501	-7.270	-0.379
-2.759	-7.167	-0.340
-2.760	-7.159	-0.336
-2.760	-7.150	-0.337
-2.760	-7.143	-0.344
-2.760	-7.142	-0.353
-2.760	-7.146	-0.361
-2.759	-7.154	-0.365
-2.758	-7.163	-0.364
-2.758	-7.170	-0.358
-2.758	-7.171	-0.348
-2.978	-7.180	-0.347
-2.978	-7.171	-0.343
-2.979	-7.162	-0.344
-2.979	-7.156	-0.350
-2.979	-7.154	-0.359
-2.978	-7.158	-0.368
-2.978	-7.166	-0.372
-2.977	-7.175	-0.371
-2.977	-7.182	-0.364
-2.977	-7.184	-0.355
-2.841	-7.286	-0.353
-2.837	-7.278	-0.351
-2.838	-7.268	-0.351
-2.845	-7.262	-0.351
-2.854	-7.260	-0.352
-2.862	-7.264	-0.354
-2.866	-7.272	-0.355
-2.865	-7.281	-0.356
-2.858	-7.288	-0.356
-2.849	-7.290	-0.354
-2.872	-7.308	-0.143
-2.868	-7.299	-0.142
-2.869	-7.290	-0.141
-2.875	-7.284	-0.141
-2.884	-7.282	-0.142
-2.893	-7.286	-0.144
-2.897	-7.294	-0.145
-2.896	-7.303	-0.146
-2.889	-7.310	-0.146
-2.880	-7.312	-0.145
-2.954	-7.381	-0.354
-2.945	-7.378	-0.356
-2.936	-7.381	-0.357
-2.930	-7.388	-0.356
-2.930	-7.397	-0.353
-2.935	-7.404	-0.351
-2.943	-7.407	-0.349
-2.952	-7.405	-0.348
-2.958	-7.398	-0.349
-2.959	-7.389	-0.352
-2.984	-7.446	-0.588
-2.975	-7.443	-0.590
-2.967	-7.445	-0.590
-2.961	-7.452	-0.589
-2.960	-7.461	-0.586
-2.965	-7.468	-0.584
-2.974	-7.472	-0.582
-2.982	-7.469	-0.581
-2.988	-7.462	-0.583
-2.989	-7.453	-0.585
-3.037	-7.521	-0.341
-3.037	-7.513	-0.336
-3.037	-7.504	-0.338
-3.037	-7.497	-0.344
-3.037	-7.496	-0.354
-3.037	-7.500	-0.362
-3.037	-7.508	-0.366
-3.037	-7.517	-0.364
-3.037	-7.524	-0.358
-3.037	-7.525	-0.349
-3.285	-7.523	-0.345
-3.285	-7.515	-0.340
-3.285	-7.506	-0.342
-3.285	-7.499	-0.349
-3.285	-7.498	-0.358
-3.285	-7.502	-0.366
-3.285	-7.511	-0.370
-3.285	-7.520	-0.369
-3.285	-7.526	-0.362
-3.285	-7.528	-0.353
-3.140	-7.618	-0.350
-3.132	-7.614	-0.352
-3.123	-7.615	-0.353
-3.117	-7.622	-0.353
-3.115	-7.631	-0.352
-3.119	-7.639	-0.350
-3.127	-7.643	-0.348
-3.136	-7.642	-0.346
-3.143	-7.635	-0.346
-3.144	-7.626	-0.348
-3.171	-7.659	-0.505
-3.163	-7.659	-0.501
-3.153	-7.659	-0.502
-3.147	-7.659	-0.509
-3.145	-7.659	-0.518
-3.150	-7.659	-0.526
-3.158	-7.659	-0.530
-3.167	-7.659	-0.529
-3.174	-7.659	-0.522
-3.175	-7.659	-0.513
-3.223	-7.757	-0.338
-3.223	-7.749	-0.334
-3.223	-7.740	-0.335
-3.223	-7.733	-0.342
-3.223	-7.731	-0.351
-3.223	-7.736	-0.359
-3.222	-7.744	-0.363
-3.222	-7.753	-0.362
-3.222	-7.760	-0.355
-3.222	-7.761	-0.346
-3.355	-7.760	-0.340
-3.355	-7.752	-0.336
-3.355	-7.743	-0.338
-3.356	-7.736	-0.344
-3.355	-7.734	-0.353
-3.355	-7.739	-0.362
-3.355	-7.747	-0.366
-3.355	-7.756	-0.364
-3.355	-7.763	-0.358
-3.355	-7.764	-0.349
-3.302	-7.876	-0.349
-3.298	-7.867	-0.347
-3.300	-7.859	-0.345
-3.307	-7.852	-0.344
-3.317	-7.851	-0.345
-3.325	-7.856	-0.346
-3.328	-7.864	-0.348
-3.326	-7.873	-0.350
-3.319	-7.879	-0.351
-3.310	-7.880	-0.351
-3.324	-7.887	-0.214
-3.324	-7.883	-0.206
-3.324	-7.884	-0.197
-3.324	-7.891	-0.190
-3.324	-7.900	-0.189
-3.324	-7.908	-0.193
-3.324	-7.913	-0.201
-3.324	-7.911	-0.210
-3.324	-7.905	-0.217
-3.324	-7.896	-0.218
-0.571	-5.151	-0.100
-0.563	-5.148	-0.100
-0.554	-5.150	-0.099
-0.548	-5.158	-0.097
[...]
         <CellData>
           <DataArray type="Float32" Name="combinedRootClassID" NumberOfComponents="1" format="ascii">
 -1.300e+001 -1.300e+001 -1.300e+001 -1.300e+001 -1.300e+001 -1.300e+001 -1.300e+001 -1.300e+001 -1.300e+001 -1.300e+001 -1.300e+001 -1.300e+001 -1.300e+001 -1.300e+001 -1.300e+001 -1.300e+001 -1.300e+001 -1.300e+001 -1.300e+001 -1.300e+001 -1.300e+001 -1.300e+001 -1.300e+001 -1.300e+001 -1.300e+001 -1.300e+001 -1.300e+001 -1.300e+001 -1.300e+001 -1.300e+001 -1.300e+001 -1.300e+001 -1.300e+001 -1.300e+001 -1.300e+001 -1.300e+001 -5.000e+000 -5.000e+000 -5.000e+000 -5.000e+000 -5.000e+000 -5.000e+000 -5.000e+000 -5.000e+000 -5.000e+000 -5.000e+000 -5.000e+000 -5.000e+000 -5.000e+000 -5.000e+000 -5.000e+000 -5.000e+000 -5.000e+000 -5.000e+000 -1.300e+001 -1.300e+001 -1.300e+001 -1.300e+001 -1.300e+001 -1.300e+001 -1.300e+001 -1.300e+001 -1.300e+001 -1.300e+001 -1.300e+001 -1.300e+001 -1.300e+001 -1.300e+001 -1.300e+001 -1.300e+001 -1.300e+001 -1.300e+001 -1.300e+001 -1.300e+001 -1.300e+001 -1.300e+001 -1.300e+001 -1.300e+001 -1.300e+001 -1.300e+001 -1.300e+001 -1.300e+001 -1.300e+001 -1.300e+001 -1.300e+001 -1.300e+001 -1.300e+001 -1.300e+001 -1.300e+001 -1.300e+001 -5.000e+000 -5.000e+000 -5.000e+000 -5.000e+000 -5.000e+000 -5.000e+000 -5.000e+000 -5.000e+000 -5.000e+000 -5.000e+000 -5.000e+000 -5.000e+000 -5.000e+000 -5.000e+000 -5.000e+000 -5.000e+000 -5.000e+000 -5.000e+000 -1.300e+001 -1.300e+001 -1.300e+001 -1.300e+001 -1.300e+001 -1.300e+001 -1.300e+001 -1.300e+001 -1.300e+001 -1.300e+001 -1.300e+001 -1.300e+001 -1.300e+001 -1.300e+001 -1.300e+001 -1.300e+001 -1.300e+001 -1.300e+001 -1.300e+001 -1.300e+001 -1.300e+001 -1.300e+001 -1.300e+001 -1.300e+001 -1.300e+001 -1.300e+001 -1.300e+001 -1.300e+001 -1.300e+001 -1.300e+001 -1.300e+001 -1.300e+001 -1.300e+001 -1.300e+001 -1.300e+001 -1.300e+001 -1.300e+001 -5.000e+000 -5.000e+000 -5.000e+000 -5.000e+000 -5.000e+000 -5.000e+000 -5.000e+000 -5.000e+000 -5.000e+000 -5.000e+000 -5.000e+000 -5.000e+000 -5.000e+000 -5.000e+000 -5.000e+000 -5.000e+000 -5.000e+000 -5.000e+000 -1.300e+001 -1.300e+001 -1.300e+001 -1.300e+001 -1.300e+001 -1.300e+001 -1.300e+001 -1.300e+001 -1.300e+001 -1.300e+001 -1.300e+001 -1.300e+001 -1.300e+001 -1.300e+001 -1.300e+001 -1.300e+001 -1.300e+001 -1.300e+001 -1.300e+001 -1.300e+001 -1.300e+001 -1.300e+001 -1.300e+001 -1.300e+001 -1.300e+001 -1.300e+001 -1.300e+001 -1.300e+001 -1.300e+001 -1.300e+001 -1.300e+001 -1.300e+001 -1.300e+001 -1.300e+001 -1.300e+001 -1.300e+001 -1.300e+001 -5.000e+000 -5.000e+000 -5.000e+000 -5.000e+000 -5.000e+000 -5.000e+000 -5.000e+000 -5.000e+000 -5.000e+000 -5.000e+000 -5.000e+000 -5.000e+000 -5.000e+000 -5.000e+000 -5.000e+000 -5.000e+000 -5.000e+000 -5.000e+000 -1.100e+001 -1.100e+001 -1.100e+001 -1.100e+001 -1.100e+001 -1.100e+001 -1.100e+001 -1.100e+001 -1.100e+001 -1.100e+001 -1.100e+001 -1.100e+001 -1.100e+001 -1.100e+001 -1.100e+001 -1.100e+001 -1.100e+001 -1.100e+001 -1.100e+001 -1.100e+001 -1.100e+001 -1.100e+001 -1.100e+001 -1.100e+001 -1.100e+001 -1.100e+001 -1.100e+001 -1.100e+001 -1.100e+001 -1.100e+001 -1.100e+001 -1.100e+001 -2.000e+000 -2.000e+000 -2.000e+000 -2.000e+000 -2.000e+000 -2.000e+000 -2.000e+000 -2.000e+000 -2.000e+000 -2.000e+000 -2.000e+000 -2.000e+000 -7.000e+000 -7.000e+000 -7.000e+000 -7.000e+000 -7.000e+000 -7.000e+000 -7.000e+000 -7.000e+000 -7.000e+000 -7.000e+000 -7.000e+000 -7.000e+000 -7.000e+000 -7.000e+000 -7.000e+000 -7.000e+000 -7.000e+000 -7.000e+000 -7.000e+000 -7.000e+000 -7.000e+000 -7.000e+000 -7.000e+000 -7.000e+000 -7.000e+000 -7.000e+000 -7.000e+000 -7.000e+000 -7.000e+000 -7.000e+000 -7.000e+000 -7.000e+000 -7.000e+000 -7.000e+000 -7.000e+000 -7.000e+000 -7.000e+000 -7.000e+000 -7.000e+000 -7.000e+000 -7.000e+000 -7.000e+000 -7.000e+000 -7.000e+000 -7.000e+000 -7.000e+000 -7.000e+000 -7.000e+000 -7.000e+000 -7.000e+000 -7.000e+000 -7.000e+000 -7.000e+000 -7.000e+000 -7.000e+000 -7.000e+000 -7.000e+000 -7.000e+000 -7.000e+000 -7.000e+000 -7.000e+000 -7.000e+000 -7.000e+000 -7.000e+000 -7.000e+000 -7.000e+000 -7.000e+000 -7.000e+000 -7.000e+000 -7.000e+000 -7.000e+000 -7.000e+000 -7.000e+000 -7.000e+000 -7.000e+000 -7.000e+000 -7.000e+000 -7.000e+000 -7.000e+000 -7.000e+000 -7.000e+000 -7.000e+000 -7.000e+000 -7.000e+000 -7.000e+000 -7.000e+000 -7.000e+000 -7.000e+000 -7.000e+000 -7.000e+000 -7.000e+000 -7.000e+000 -7.000e+000 -7.000e+000 -7.000e+000 -7.000e+000 -7.000e+000 -7.000e+000 -7.000e+000 -7.000e+000 -7.000e+000 -7.000e+000 -7.000e+000 -7.000e+000 -7.000e+000 -7.000e+000 -7.000e+000 -7.000e+000 -7.000e+000 -7.000e+000 -7.000e+000 -7.000e+000 -7.000e+000 -7.000e+000 -7.000e+000 -7.000e+000 -7.000e+000 -7.000e+000 -7.000e+000 -7.000e+000 -7.000e+000 -7.000e+000 -7.000e+000 -7.000e+000 -7.000e+000 -7.000e+000 -7.000e+000 -7.000e+000 -7.000e+000 -7.000e+000 -7.000e+000 -7.000e+000 -7.000e+000 -7.000e+000 -7.000e+000 -7.000e+000 -7.000e+000 -7.000e+000 -7.000e+000 -7.000e+000 -7.000e+000 -7.000e+000 -7.000e+000 -7.000e+000 -7.000e+000 -7.000e+000 -7.000e+000 -7.000e+000 -7.000e+000 -7.000e+000 -7.000e+000 -7.000e+000 -7.000e+000 -7.000e+000 -7.000e+000 -7.000e+000 -7.000e+000 -7.000e+000 -7.000e+000 -7.000e+000 -7.000e+000 -7.000e+000 -7.000e+000 -7.000e+000 -7.000e+000 -7.000e+000 -7.000e+000 -7.000e+000 -7.000e+000 -7.000e+000 -7.000e+000 -7.000e+000 -7.000e+000 -7.000e+000 -7.000e+000 -7.000e+000 -7.000e+000 -7.000e+000 -7.000e+000 -7.000e+000 -7.000e+000 -7.000e+000 -7.000e+000 -7.000e+000 -7.000e+000 -7.000e+000 -7.000e+000 -7.000e+000 -7.000e+000 -7.000e+000 -7.000e+000 -7.000e+000 -7.000e+000 -7.000e+000 -7.000e+000 -7.000e+000 -7.000e+000 -7.000e+000 -7.000e+000 -7.000e+000 -7.000e+000 -7.000e+000 -7.000e+000 -7.000e+000 -7.000e+000 -7.000e+000 -7.000e+000 -7.000e+000 -7.000e+000 -7.000e+000 -7.000e+000 -7.000e+000 -7.000e+000 -7.000e+000 -7.000e+000 -7.000e+000 -7.000e+000 -7.000e+000 -7.000e+000 -7.000e+000 -7.000e+000 -7.000e+000 -7.000e+000 -7.000e+000 -7.000e+000 -7.000e+000 -7.000e+000 -7.000e+000 -7.000e+000 -7.000e+000 -7.000e+000 -7.000e+000 -7.000e+000 -7.000e+000 -7.000e+000 -7.000e+000 -7.000e+000 -7.000e+000 -7.000e+000 -7.000e+000 -7.000e+000 -7.000e+000 -7.000e+000 -7.000e+000 -7.000e+000 -7.000e+000 -7.000e+000 -7.000e+000 -7.000e+000 -7.000e+000 -7.000e+000 -7.000e+000 -7.000e+000 -7.000e+000 -7.000e+000 -7.000e+000 -7.000e+000 -7.000e+000 -7.000e+000 -7.000e+000 -7.000e+000 -7.000e+000 -7.000e+000 -7.000e+000 -7.000e+000 -7.000e+000 -7.000e+000 -7.000e+000 -7.000e+000 -7.000e+000 -7.000e+000 -7.000e+000 -7.000e+000 -7.000e+000 -7.000e+000 -7.000e+000 -7.000e+000 -7.000e+000 -7.000e+000 -7.000e+000 -7.000e+000 -7.000e+000 -7.000e+000 -7.000e+000 -7.000e+000 -7.000e+000 -7.000e+000 -7.000e+000 -7.000e+000 -7.000e+000 -7.000e+000 -7.000e+000 -7.000e+000 -7.000e+000 -7.000e+000 -7.000e+000 -7.000e+000 -7.000e+000 -7.000e+000 -7.000e+000 -7.000e+000 -7.000e+000 -9.000e+000 -9.000e+000 -9.000e+000 -9.000e+000 -9.000e+000 -9.000e+000 -9.000e+000 -9.000e+000 -9.000e+000 -9.000e+000 -9.000e+000 -4.000e+000 -4.000e+000 -4.000e+000 -4.000e+000 -4.000e+000 -4.000e+000 -4.000e+000 -4.000e+000 -4.000e+000 -4.000e+000 -4.000e+000 -4.000e+000 -4.000e+000 -4.000e+000 -4.000e+000 -4.000e+000 -4.000e+000 -4.000e+000 -4.000e+000 -4.000e+000 -4.000e+000 -4.000e+000 -4.000e+000 -4.000e+000 -4.000e+000 -4.000e+000 -4.000e+000 -4.000e+000 -4.000e+000 -4.000e+000 -4.000e+000 -4.000e+000 -4.000e+000 -4.000e+000 -4.000e+000 -4.000e+000 -4.000e+000 -4.000e+000 -4.000e+000 -4.000e+000 -4.000e+000 -4.000e+000 -4.000e+000 -4.000e+000 -4.000e+000
           </DataArray>
           <DataArray type="Float32" Name="nitrate/Cmin" NumberOfComponents="1" format="ascii">
 1.000e-003 1.000e-003 1.000e-003 1.000e-003 1.000e-003 1.000e-003 1.000e-003 1.000e-003 1.000e-003 1.000e-003 1.000e-003 1.000e-003 1.000e-003 1.000e-003 1.000e-003 1.000e-003 1.000e-003 1.000e-003 1.000e-003 1.000e-003 1.000e-003 1.000e-003 1.000e-003 1.000e-003 1.000e-003 1.000e-003 1.000e-003 1.000e-003 1.000e-003 1.000e-003 1.000e-003 1.000e-003 1.000e-003 1.000e-003 1.000e-003 1.000e-003 1.000e-003 1.000e-003 1.000e-003 1.000e-003 1.000e-003 1.000e-003 1.000e-003 1.000e-003 1.000e-003 1.000e-003 1.000e-003 1.000e-003 1.000e-003 1.000e-003 1.000e-003 1.000e-003 1.000e-003 1.000e-003 1.000e-003 1.000e-003 1.000e-003 1.000e-003 1.000e-003 1.000e-003 1.000e-003 1.000e-003 1.000e-003 1.000e-003 1.000e-003 1.000e-003 1.000e-003 1.000e-003 1.000e-003 1.000e-003 1.000e-003 1.000e-003 1.000e-003 1.000e-003 1.000e-003 1.000e-003 1.000e-003 1.000e-003 1.000e-003 1.000e-003 1.000e-003 1.000e-003 1.000e-003 1.000e-003 1.000e-003 1.000e-003 1.000e-003 1.000e-003 1.000e-003 1.000e-003 1.000e-003 1.000e-003 1.000e-003 1.000e-003 1.000e-003 1.000e-003 1.000e-003 1.000e-003 1.000e-003 1.000e-003 1.000e-003 1.000e-003 1.000e-003 1.000e-003 1.000e-003 1.000e-003 1.000e-003 1.000e-003 1.000e-003 1.000e-003 1.000e-003 1.000e-003 1.000e-003 1.000e-003 1.000e-003 1.000e-003 1.000e-003 1.000e-003 1.000e-003 1.000e-003 1.000e-003 1.000e-003 1.000e-003 1.000e-003 1.000e-003 1.000e-003 1.000e-003 1.000e-003 1.000e-003 1.000e-003 1.000e-003 1.000e-003 1.000e-003 1.000e-003 1.000e-003 1.000e-003 1.000e-003 1.000e-003 1.000e-003 1.000e-003 1.000e-003 1.000e-003 1.000e-003 1.000e-003 1.000e-003 1.000e-003 1.000e-003 1.000e-003 1.000e-003 1.000e-003 1.000e-003 1.000e-003 1.000e-003 1.000e-003 1.000e-003 1.000e-003 1.000e-003 1.000e-003 1.000e-003 1.000e-003 1.000e-003 1.000e-003 1.000e-003 1.000e-003 1.000e-003 1.000e-003 1.000e-003 1.000e-003 1.000e-003 1.000e-003 1.000e-003 1.000e-003 1.000e-003 1.000e-003 1.000e-003 1.000e-003 1.000e-003 1.000e-003 1.000e-003 1.000e-003 1.000e-003 1.000e-003 1.000e-003 1.000e-003 1.000e-003 1.000e-003 1.000e-003 1.000e-003 1.000e-003 1.000e-003 1.000e-003 1.000e-003 1.000e-003 1.000e-003 1.000e-003 1.000e-003 1.000e-003 1.000e-003 1.000e-003 1.000e-003 1.000e-003 1.000e-003 1.000e-003 1.000e-003 1.000e-003 1.000e-003 1.000e-003 1.000e-003 1.000e-003 1.000e-003 1.000e-003 1.000e-003 1.000e-003 1.000e-003 1.000e-003 1.000e-003 1.000e-003 1.000e-003 1.000e-003 1.000e-003 1.000e-003 1.000e-003 1.000e-003 1.000e-003 1.000e-003 1.000e-003 1.000e-003 1.000e-003 1.000e-003 1.000e-003 1.000e-003 1.000e-003 1.000e-003 1.000e-003 1.000e-003 1.000e-003 1.000e-003 1.000e-003 1.000e-003 1.000e-003 1.000e-003 1.000e-003 1.000e-003 1.000e-003 1.000e-003 1.000e-003 1.000e-003 1.000e-003 1.000e-003 1.000e-003 1.000e-003 1.000e-003 1.000e-003 1.000e-003 1.000e-003 1.000e-003 1.000e-003 1.000e-003 1.000e-003 1.000e-003 1.000e-003 1.000e-003 1.000e-003 1.000e-003 1.000e-003 1.000e-003 1.000e-003 1.000e-003 1.000e-003 1.000e-003 1.000e-003 1.000e-003 1.000e-003 1.000e-003 1.000e-003 1.000e-003 1.000e-003 1.000e-003 1.000e-003 1.000e-003 1.000e-003 1.000e-003 1.000e-003 1.000e-003 1.000e-003 1.000e-003 1.000e-003 1.000e-003 1.000e-003 1.000e-003 1.000e-003 1.000e-003 1.000e-003 1.000e-003 1.000e-003 1.000e-003 1.000e-003 1.000e-003 1.000e-003 1.000e-003 1.000e-003 1.000e-003 1.000e-003 1.000e-003 1.000e-003 1.000e-003 1.000e-003 1.000e-003 1.000e-003 1.000e-003 1.000e-003 1.000e-003 1.000e-003 1.000e-003 1.000e-003 1.000e-003 1.000e-003 1.000e-003 1.000e-003 1.000e-003 1.000e-003 1.000e-003 1.000e-003 1.000e-003 1.000e-003 1.000e-003 1.000e-003 1.000e-003 1.000e-003 1.000e-003 1.000e-003 1.000e-003 1.000e-003 1.000e-003 1.000e-003 1.000e-003 1.000e-003 1.000e-003 1.000e-003 1.000e-003 1.000e-003 1.000e-003 1.000e-003 1.000e-003 1.000e-003 1.000e-003 1.000e-003 1.000e-003 1.000e-003 1.000e-003 1.000e-003 1.000e-003 1.000e-003 1.000e-003 1.000e-003 1.000e-003 1.000e-003 1.000e-003 1.000e-003 1.000e-003 1.000e-003 1.000e-003 1.000e-003 1.000e-003 1.000e-003 1.000e-003 1.000e-003 1.000e-003 1.000e-003 1.000e-003 1.000e-003 1.000e-003 1.000e-003 1.000e-003 1.000e-003 1.000e-003 1.000e-003 1.000e-003 1.000e-003 1.000e-003 1.000e-003 1.000e-003 1.000e-003 1.000e-003 1.000e-003 1.000e-003 1.000e-003 1.000e-003 1.000e-003 1.000e-003 1.000e-003 1.000e-003 1.000e-003 1.000e-003 1.000e-003 1.000e-003 1.000e-003 1.000e-003 1.000e-003 1.000e-003 1.000e-003 1.000e-003 1.000e-003 1.000e-003 1.000e-003 1.000e-003 1.000e-003 1.000e-003 1.000e-003 1.000e-003 1.000e-003 1.000e-003 1.000e-003 1.000e-003 1.000e-003 1.000e-003 1.000e-003 1.000e-003 1.000e-003 1.000e-003 1.000e-003 1.000e-003 1.000e-003 1.000e-003 1.000e-003 1.000e-003 1.000e-003 1.000e-003 1.000e-003 1.000e-003 1.000e-003 1.000e-003 1.000e-003 1.000e-003 1.000e-003 1.000e-003 1.000e-003 1.000e-003 1.000e-003 1.000e-003 1.000e-003 1.000e-003 1.000e-003 1.000e-003 1.000e-003 1.000e-003 1.000e-003 1.000e-003 1.000e-003 1.000e-003 1.000e-003 1.000e-003 1.000e-003 1.000e-003 1.000e-003 1.000e-003 1.000e-003 1.000e-003 1.000e-003 1.000e-003 1.000e-003 1.000e-003 1.000e-003 1.000e-003 1.000e-003 1.000e-003 1.000e-003 1.000e-003 1.000e-003 1.000e-003 1.000e-003 1.000e-003 1.000e-003 1.000e-003 1.000e-003 1.000e-003 1.000e-003 1.000e-003 1.000e-003 1.000e-003 1.000e-003 1.000e-003 1.000e-003 1.000e-003 1.000e-003 1.000e-003 1.000e-003 1.000e-003 1.000e-003 1.000e-003 1.000e-003 1.000e-003 1.000e-003 1.000e-003 1.000e-003 1.000e-003 1.000e-003 1.000e-003 1.000e-003 1.000e-003 1.000e-003 1.000e-003 1.000e-003 1.000e-003 1.000e-003 1.000e-003 1.000e-003 1.000e-003 1.000e-003 1.000e-003 1.000e-003 1.000e-003 1.000e-003 1.000e-003 1.000e-003 1.000e-003 1.000e-003 1.000e-003 1.000e-003 1.000e-003 1.000e-003 1.000e-003 1.000e-003 1.000e-003 1.000e-003 1.000e-003 1.000e-003 1.000e-003 1.000e-003 1.000e-003 1.000e-003 1.000e-003 1.000e-003 1.000e-003 1.000e-003 1.000e-003 1.000e-003 1.000e-003 1.000e-003 1.000e-003 1.000e-003 1.000e-003 1.000e-003 1.000e-003 1.000e-003 1.000e-003 1.000e-003 1.000e-003 1.000e-003 1.000e-003 1.000e-003 1.000e-003 1.000e-003 1.000e-003 1.000e-003 1.000e-003 1.000e-003 1.000e-003 1.000e-003 1.000e-003 1.000e-003 1.000e-003 1.000e-003 1.000e-003 1.000e-003 1.000e-003 1.000e-003 1.000e-003 1.000e-003 1.000e-003 1.000e-003 1.000e-003 1.000e-003 1.000e-003 1.000e-003 1.000e-003 1.000e-003 1.000e-003 1.000e-003 1.000e-003 1.000e-003 1.000e-003 1.000e-003 1.000e-003 1.000e-003 1.000e-003 1.000e-003 1.000e-003 1.000e-003 1.000e-003 1.000e-003 1.000e-003 1.000e-003 1.000e-003 1.000e-003 1.000e-003 1.000e-003 1.000e-003 1.000e-003 1.000e-003 1.000e-003 1.000e-003 1.000e-003 1.000e-003 1.000e-003 1.000e-003 1.000e-003 1.000e-003 1.000e-003 1.000e-003 1.000e-003 1.000e-003 1.000e-003 1.000e-003 1.000e-003 1.000e-003 1.000e-003 1.000e-003 1.000e-003 1.000e-003
           </DataArray>
           <DataArray type="Float32" Name="nitrate/Imax" NumberOfComponents="1" format="ascii">