<?xml version="1.0"?>
<VTKFile type="UnstructuredGrid" version="0.1" byte_order="LittleEndian">
   <UnstructuredGrid>
      <Piece NumberOfPoints="33280" NumberOfCells="2379">
         <Points>
            <DataArray type="Float32" Name="Position" NumberOfComponents="3" format="ascii">
-0.149	-5.022	-0.015
-0.150	-5.013	-0.012
-0.149	-5.004	-0.015
-0.148	-4.998	-0.022
-0.146	-4.998	-0.031
-0.144	-5.004	-0.039
-0.143	-5.012	-0.042
-0.143	-5.021	-0.039
-0.145	-5.027	-0.032
-0.147	-5.027	-0.023
-1.016	-5.044	-0.229
-1.017	-5.035	-0.226
-1.017	-5.027	-0.229
-1.015	-5.021	-0.236
-1.012	-5.022	-0.245
-1.010	-5.027	-0.252
-1.009	-5.036	-0.255
-1.009	-5.045	-0.252
-1.011	-5.050	-0.244
-1.014	-5.050	-0.236
-1.798	-5.062	-0.503
-1.799	-5.053	-0.501
-1.798	-5.045	-0.505
-1.795	-5.040	-0.513
-1.791	-5.042	-0.521
-1.788	-5.048	-0.527
-1.787	-5.057	-0.528
-1.788	-5.066	-0.524
-1.792	-5.070	-0.517
-1.795	-5.069	-0.509
-2.239	-5.087	-0.751
-2.239	-5.078	-0.751
-2.237	-5.070	-0.755
-2.233	-5.066	-0.763
-2.229	-5.068	-0.770
-2.225	-5.075	-0.775
-2.225	-5.085	-0.776
-2.227	-5.093	-0.771
-2.231	-5.096	-0.764
-2.235	-5.094	-0.756
-0.290	-5.060	-0.042
-0.291	-5.052	-0.038
-0.291	-5.042	-0.040
-0.290	-5.036	-0.047
-0.290	-5.035	-0.056
-0.289	-5.039	-0.064
-0.288	-5.048	-0.068
-0.288	-5.057	-0.066
-0.288	-5.063	-0.059
-0.289	-5.064	-0.050
-1.139	-5.097	-0.125
-1.140	-5.089	-0.121
-1.140	-5.080	-0.122
-1.140	-5.073	-0.129
-1.139	-5.072	-0.138
-1.138	-5.076	-0.146
-1.138	-5.085	-0.150
-1.137	-5.094	-0.149
-1.138	-5.100	-0.142
-1.138	-5.101	-0.133
-1.995	-5.131	-0.174
-1.996	-5.123	-0.169
-1.997	-5.114	-0.171
-1.997	-5.108	-0.177
-1.996	-5.106	-0.187
-1.996	-5.110	-0.195
-1.995	-5.118	-0.199
-1.994	-5.128	-0.198
-1.994	-5.134	-0.191
-1.995	-5.136	-0.182
-2.573	-5.187	-0.212
-2.574	-5.179	-0.208
-2.575	-5.170	-0.209
-2.575	-5.163	-0.216
-2.575	-5.162	-0.225
-2.574	-5.166	-0.233
-2.573	-5.174	-0.238
-2.572	-5.183	-0.236
-2.572	-5.190	-0.230
-2.572	-5.191	-0.221
-1.409	-5.754	-0.230
-1.404	-5.753	-0.222
-1.405	-5.753	-0.213
-1.410	-5.755	-0.205
-1.419	-5.757	-0.203
-1.427	-5.760	-0.206
-1.432	-5.762	-0.214
-1.432	-5.761	-0.223
-1.426	-5.760	-0.230
-1.418	-5.757	-0.233
-1.159	-6.524	-0.229
-1.154	-6.522	-0.222
-1.155	-6.522	-0.212
-1.161	-6.524	-0.205
-1.169	-6.526	-0.203
-1.178	-6.528	-0.206
-1.182	-6.530	-0.214
-1.182	-6.530	-0.224
-1.176	-6.529	-0.231
-1.167	-6.526	-0.233
-0.967	-7.339	-0.163
-0.962	-7.337	-0.155
-0.963	-7.337	-0.146
-0.969	-7.338	-0.139
-0.977	-7.341	-0.136
-0.985	-7.343	-0.140
-0.990	-7.345	-0.148
-0.989	-7.345	-0.157
-0.984	-7.344	-0.164
-0.975	-7.341	-0.166
-0.653	-8.117	-0.156
-0.648	-8.114	-0.148
-0.648	-8.114	-0.139
-0.654	-8.116	-0.131
-0.662	-8.120	-0.129
-0.670	-8.123	-0.132
-0.675	-8.125	-0.140
-0.674	-8.126	-0.149
-0.669	-8.123	-0.156
-0.661	-8.120	-0.159
-0.546	-8.385	-0.120
-0.546	-8.377	-0.116
-0.546	-8.368	-0.118
-0.546	-8.361	-0.124
-0.546	-8.360	-0.133
-0.546	-8.364	-0.142
-0.546	-8.372	-0.146
-0.546	-8.381	-0.144
-0.546	-8.388	-0.138
-0.546	-8.389	-0.129
-7.669	-17.488	-0.781
-7.669	-17.479	-0.778
-7.669	-17.470	-0.780
-7.668	-17.465	-0.787
-7.666	-17.464	-0.797
-7.665	-17.469	-0.804
-7.664	-17.478	-0.807
-7.664	-17.487	-0.805
-7.665	-17.492	-0.798
-7.667	-17.493	-0.789
-8.103	-17.497	-0.861
-8.104	-17.488	-0.858
-8.104	-17.479	-0.860
-8.103	-17.473	-0.867
-8.101	-17.473	-0.876
-8.100	-17.478	-0.884
-8.099	-17.486	-0.887
-8.099	-17.495	-0.885
-8.100	-17.501	-0.878
-8.102	-17.502	-0.869
-7.708	-17.633	-0.787
-7.709	-17.624	-0.784
-7.709	-17.615	-0.787
-7.707	-17.609	-0.794
-7.706	-17.609	-0.803
-7.704	-17.614	-0.810
-7.703	-17.622	-0.814
-7.704	-17.631	-0.811
-7.705	-17.637	-0.804
-7.707	-17.638	-0.795
-8.005	-17.635	-0.842
-8.006	-17.626	-0.839
-8.006	-17.617	-0.842
-8.004	-17.612	-0.849
-8.003	-17.611	-0.858
-8.001	-17.616	-0.865
-8.000	-17.625	-0.869
-8.001	-17.634	-0.866
-8.002	-17.640	-0.859
-8.004	-17.640	-0.850
-7.754	-17.756	-0.809
-7.745	-17.753	-0.809
-7.736	-17.756	-0.808
-7.731	-17.764	-0.806
-7.732	-17.773	-0.803
-7.737	-17.780	-0.802
-7.746	-17.782	-0.801
-7.755	-17.779	-0.802
-7.760	-17.772	-0.805
-7.760	-17.763	-0.807
-7.745	-17.824	-1.059
-7.736	-17.822	-1.059
-7.727	-17.825	-1.058
-7.722	-17.832	-1.056
-7.722	-17.841	-1.053
-7.728	-17.848	-1.051
-7.737	-17.851	-1.051
-7.746	-17.848	-1.052
-7.751	-17.840	-1.054
-7.751	-17.832	-1.057
-7.771	-17.923	-0.811
-7.767	-17.914	-0.808
-7.770	-17.906	-0.806
-7.777	-17.900	-0.804
-7.786	-17.899	-0.805
-7.794	-17.904	-0.807
-7.797	-17.912	-0.810
-7.795	-17.920	-0.812
-7.788	-17.926	-0.814
-7.779	-17.927	-0.813
-7.797	-18.014	-0.526
-7.793	-18.006	-0.523
-7.795	-17.997	-0.521
-7.802	-17.991	-0.519
-7.812	-17.990	-0.520
-7.819	-17.995	-0.522
-7.823	-18.003	-0.525
-7.821	-18.012	-0.528
-7.814	-18.017	-0.529
-7.804	-18.018	-0.528
-7.818	-18.069	-0.802
-7.818	-18.061	-0.798
-7.819	-18.052	-0.799
-7.819	-18.046	-0.805
-7.819	-18.044	-0.814
-7.818	-18.048	-0.823
-7.818	-18.056	-0.827
-7.817	-18.065	-0.826
-7.817	-18.072	-0.819
-7.817	-18.074	-0.810
-8.093	-18.085	-0.809
-8.094	-18.077	-0.805
-8.094	-18.068	-0.806
-8.094	-18.061	-0.813
-8.094	-18.059	-0.822
-8.094	-18.063	-0.830
-8.093	-18.072	-0.834
-8.093	-18.081	-0.833
-8.092	-18.087	-0.827
-8.093	-18.089	-0.817
-7.843	-18.214	-0.817
-7.839	-18.206	-0.814
-7.841	-18.198	-0.812
-7.848	-18.191	-0.811
-7.857	-18.190	-0.812
-7.865	-18.194	-0.815
-7.868	-18.202	-0.817
-7.866	-18.211	-0.820
-7.860	-18.217	-0.820
-7.851	-18.219	-0.819
-7.870	-18.263	-0.644
-7.866	-18.255	-0.641
-7.868	-18.246	-0.639
-7.875	-18.240	-0.638
-7.884	-18.239	-0.639
-7.892	-18.243	-0.642
-7.896	-18.251	-0.645
-7.894	-18.260	-0.647
-7.887	-18.266	-0.648
-7.878	-18.267	-0.646
-7.878	-18.360	-0.820
-7.875	-18.352	-0.817
-7.877	-18.343	-0.815
-7.884	-18.337	-0.814
-7.893	-18.336	-0.815
-7.901	-18.340	-0.818
-7.904	-18.348	-0.821
-7.902	-18.357	-0.823
-7.895	-18.363	-0.824
-7.886	-18.364	-0.823
-7.914	-18.433	-0.603
-7.910	-18.425	-0.600
-7.912	-18.416	-0.598
-7.919	-18.410	-0.597
-7.928	-18.409	-0.598
-7.936	-18.413	-0.600
-7.940	-18.421	-0.604
-7.938	-18.430	-0.606
-7.931	-18.436	-0.607
-7.921	-18.437	-0.606
-7.926	-18.506	-0.811
-7.927	-18.497	-0.808
-7.927	-18.488	-0.809
-7.926	-18.482	-0.816
-7.925	-18.481	-0.825
-7.924	-18.486	-0.833
-7.924	-18.494	-0.837
-7.924	-18.503	-0.835
-7.924	-18.509	-0.828
-7.925	-18.510	-0.819
-8.135	-18.510	-0.835
-8.135	-18.502	-0.831
-8.135	-18.493	-0.833
-8.135	-18.486	-0.840
-8.134	-18.485	-0.849
-8.133	-18.490	-0.857
-8.132	-18.498	-0.860
-8.132	-18.508	-0.859
-8.133	-18.514	-0.852
-8.134	-18.515	-0.843
-7.968	-18.629	-0.832
-7.959	-18.627	-0.831
-7.950	-18.630	-0.829
-7.946	-18.638	-0.826
-7.947	-18.647	-0.823
-7.953	-18.654	-0.822
-7.962	-18.656	-0.823
-7.970	-18.652	-0.825
-7.975	-18.645	-0.828
-7.974	-18.636	-0.831
-7.942	-18.681	-1.002
-7.933	-18.679	-1.002
-7.925	-18.682	-0.999
-7.920	-18.690	-0.997
-7.921	-18.699	-0.994
-7.928	-18.705	-0.993
-7.937	-18.708	-0.994
-7.945	-18.704	-0.996
-7.949	-18.697	-0.999
-7.948	-18.688	-1.001
-7.989	-18.780	-0.846
-7.988	-18.775	-0.838
-7.989	-18.774	-0.829
-7.992	-18.778	-0.822
-7.996	-18.786	-0.818
-8.000	-18.794	-0.821
-8.002	-18.800	-0.828
-8.001	-18.800	-0.838
-7.997	-18.796	-0.845
-7.993	-18.789	-0.848
-7.850	-18.853	-0.824
-7.848	-18.847	-0.816
-7.849	-18.846	-0.807
-7.853	-18.851	-0.800
-7.857	-18.858	-0.797
-7.861	-18.866	-0.799
-7.863	-18.872	-0.806
-7.862	-18.872	-0.816
-7.858	-18.868	-0.823
-7.854	-18.861	-0.826
-1.524	-5.849	-0.249
-1.519	-5.847	-0.242
-1.519	-5.848	-0.232
-1.524	-5.850	-0.225
-1.532	-5.853	-0.222
-1.540	-5.857	-0.225
-1.545	-5.858	-0.233
-1.545	-5.858	-0.242
-1.540	-5.856	-0.249
-1.532	-5.852	-0.252
-1.195	-6.657	-0.277
-1.189	-6.655	-0.270
-1.189	-6.657	-0.261
-1.193	-6.660	-0.253
-1.200	-6.664	-0.250
-1.209	-6.668	-0.253
-1.214	-6.669	-0.260
-1.215	-6.668	-0.269
-1.211	-6.664	-0.276
-1.203	-6.660	-0.280
-0.829	-7.329	-0.499
-0.823	-7.328	-0.493
-0.821	-7.330	-0.484
-0.824	-7.334	-0.476
-0.832	-7.339	-0.473
-0.840	-7.342	-0.475
-0.846	-7.342	-0.482
-0.848	-7.340	-0.491
-0.845	-7.336	-0.498
-0.837	-7.332	-0.502
-0.576	-8.043	-0.750
-0.569	-8.043	-0.744
-0.567	-8.046	-0.735
-0.571	-8.050	-0.728
-0.578	-8.054	-0.724
-0.587	-8.056	-0.726
-0.594	-8.055	-0.732
-0.596	-8.053	-0.741
-0.592	-8.049	-0.748
-0.585	-8.045	-0.752
-0.543	-8.162	-0.800
-0.536	-8.163	-0.794
-0.534	-8.166	-0.785
-0.538	-8.170	-0.778
-0.545	-8.173	-0.774
-0.554	-8.175	-0.776
-0.561	-8.174	-0.782
-0.563	-8.171	-0.790
-0.560	-8.167	-0.798
-0.552	-8.164	-0.802
-8.024	-18.926	-0.852
-8.022	-18.921	-0.844
-8.024	-18.920	-0.835
-8.027	-18.924	-0.828
-8.031	-18.932	-0.825
-8.034	-18.940	-0.827
-8.036	-18.946	-0.835
-8.035	-18.946	-0.844
-8.031	-18.942	-0.851
-8.027	-18.934	-0.854
-7.925	-18.972	-0.837
-7.924	-18.966	-0.829
-7.925	-18.966	-0.820
-7.928	-18.970	-0.812
-7.932	-18.978	-0.809
-7.935	-18.986	-0.812
-7.937	-18.991	-0.819
-7.936	-18.992	-0.829
-7.933	-18.988	-0.836
-7.928	-18.980	-0.839
-8.057	-19.073	-0.858
-8.056	-19.067	-0.851
-8.057	-19.066	-0.842
-8.061	-19.070	-0.834
-8.066	-19.077	-0.831
-8.070	-19.085	-0.834
-8.071	-19.091	-0.841
-8.070	-19.092	-0.850
-8.066	-19.088	-0.857
-8.061	-19.081	-0.861
-7.957	-19.129	-0.837
-7.956	-19.124	-0.830
-7.957	-19.122	-0.821
-7.961	-19.126	-0.813
-7.966	-19.134	-0.810
-7.970	-19.142	-0.812
-7.971	-19.147	-0.819
-7.970	-19.148	-0.829
-7.966	-19.145	-0.836
-7.961	-19.137	-0.839
-8.100	-19.234	-0.841
-8.101	-19.226	-0.837
-8.101	-19.217	-0.840
-8.099	-19.211	-0.847
-8.097	-19.210	-0.856
-8.096	-19.216	-0.864
-8.095	-19.224	-0.867
-8.095	-19.233	-0.864
-8.096	-19.239	-0.857
-8.098	-19.239	-0.848
-8.177	-19.237	-0.857
-8.178	-19.228	-0.854
-8.178	-19.220	-0.857
-8.177	-19.214	-0.864
-8.175	-19.213	-0.873
-8.173	-19.218	-0.880
-8.172	-19.227	-0.884
-8.172	-19.236	-0.881
-8.174	-19.242	-0.874
-8.176	-19.242	-0.865
-8.139	-19.359	-0.864
-8.130	-19.356	-0.862
-8.122	-19.359	-0.859
-8.118	-19.367	-0.856
-8.119	-19.376	-0.854
-8.125	-19.383	-0.854
-8.133	-19.385	-0.856
-8.142	-19.382	-0.859
-8.146	-19.375	-0.862
[...]
         <CellData>
           <DataArray type="Float32" Name="combinedRootClassID" NumberOfComponents="1" format="ascii">
 -1.300e+001 -1.300e+001 -1.300e+001 -1.300e+001 -1.300e+001 -1.300e+001 -1.300e+001 -1.300e+001 -1.300e+001 -1.300e+001 -1.300e+001 -1.300e+001 -1.300e+001 -1.300e+001 -1.300e+001 -1.300e+001 -1.300e+001 -1.300e+001 -1.300e+001 -1.300e+001 -1.300e+001 -1.300e+001 -1.300e+001 -1.300e+001 -1.300e+001 -1.300e+001 -1.300e+001 -1.300e+001 -1.300e+001 -1.300e+001 -1.300e+001 -1.300e+001 -1.300e+001 -1.300e+001 -1.300e+001 -1.300e+001 -1.300e+001 -1.300e+001 -1.300e+001 -1.300e+001 -1.300e+001 -1.300e+001 -1.300e+001 -1.300e+001 -1.300e+001 -1.300e+001 -1.300e+001 -1.300e+001 -1.300e+001 -1.300e+001 -1.300e+001 -1.300e+001 -1.300e+001 -1.300e+001 -1.300e+001 -1.300e+001 -1.300e+001 -1.300e+001 -1.300e+001 -1.300e+001 -1.300e+001 -1.300e+001 -1.300e+001 -1.300e+001 -1.300e+001 -1.300e+001 -1.300e+001 -1.300e+001 -1.300e+001 -1.300e+001 -1.300e+001 -1.300e+001 -1.300e+001 -1.300e+001 -1.300e+001 -1.300e+001 -1.300e+001 -1.300e+001 -1.300e+001 -1.300e+001 -1.300e+001 -1.300e+001 -1.300e+001 -1.300e+001 -1.300e+001 -1.300e+001 -1.300e+001 -1.300e+001 -1.300e+001 -1.300e+001 -1.300e+001 -1.300e+001 -1.300e+001 -1.300e+001 -1.300e+001 -1.300e+001 -1.300e+001 -1.300e+001 -1.300e+001 -1.300e+001 -1.300e+001 -1.300e+001 -1.300e+001 -1.300e+001 -1.300e+001 -1.300e+001 -1.300e+001 -1.300e+001 -1.300e+001 -1.300e+001 -1.300e+001 -1.300e+001 -1.300e+001 -1.300e+001 -1.300e+001 -1.300e+001 -1.300e+001 -1.300e+001 -1.300e+001 -1.300e+001 -1.300e+001 -1.300e+001 -1.300e+001 -1.300e+001 -1.300e+001 -1.300e+001 -1.300e+001 -1.300e+001 -1.300e+001 -1.300e+001 -1.300e+001 -1.300e+001 -1.300e+001 -1.300e+001 -1.300e+001 -1.300e+001 -1.300e+001 -1.300e+001 -1.300e+001 -1.300e+001 -1.300e+001 -1.300e+001 -1.300e+001 -1.300e+001 -1.300e+001 -1.300e+001 -1.300e+001 -1.300e+001 -1.300e+001 -1.300e+001 -1.300e+001 -1.300e+001 -1.300e+001 -1.300e+001 -1.300e+001 -1.300e+001 -1.300e+001 -1.300e+001 -1.300e+001 -1.300e+001 -1.300e+001 -1.300e+001 -1.300e+001 -1.300e+001 -1.300e+001 -1.300e+001 -1.300e+001 -1.300e+001 -1.300e+001 -1.300e+001 -1.300e+001 -1.300e+001 -1.300e+001 -1.300e+001 -1.300e+001 -1.300e+001 -1.300e+001 -1.300e+001 -1.300e+001 -1.300e+001 -1.300e+001 -1.300e+001 -1.300e+001 -1.300e+001 -1.300e+001 -1.300e+001 -1.300e+001 -1.300e+001 -1.300e+001 -1.300e+001 -1.300e+001 -1.300e+001 -1.300e+001 -1.300e+001 -1.300e+001 -1.300e+001 -1.300e+001 -1.300e+001 -1.300e+001 -1.300e+001 -1.300e+001 -1.300e+001 -1.300e+001 -1.300e+001 -1.300e+001 -1.300e+001 -1.300e+001 -1.300e+001 -1.300e+001 -1.300e+001 -1.300e+001 -1.300e+001 -1.300e+001 -1.300e+001 -1.300e+001 -1.300e+001 -1.300e+001 -1.300e+001 -1.300e+001 -1.300e+001 -1.300e+001 -1.300e+001 -1.300e+001 -1.300e+001 -1.300e+001 -1.300e+001 -1.300e+001 -1.300e+001 -1.300e+001 -1.300e+001 -1.300e+001 -1.300e+001 -1.300e+001 -1.300e+001 -1.300e+001 -1.300e+001 -1.300e+001 -1.300e+001 -1.300e+001 -1.300e+001 -1.300e+001 -1.300e+001 -1.300e+001 -5.000e+000 -5.000e+000 -5.000e+000 -5.000e+000 -5.000e+000 -5.000e+000 -5.000e+000 -5.000e+000 -5.000e+000 -5.000e+000 -5.000e+000 -5.000e+000 -5.000e+000 -5.000e+000 -5.000e+000 -5.000e+000 -5.000e+000 -5.000e+000 -5.000e+000 -5.000e+000 -5.000e+000 -5.000e+000 -5.000e+000 -5.000e+000 -5.000e+000 -5.000e+000 -5.000e+000 -5.000e+000 -5.000e+000 -5.000e+000 -5.000e+000 -5.000e+000 -5.000e+000 -1.300e+001 -1.300e+001 -1.300e+001 -1.300e+001 -1.300e+001 -1.300e+001 -1.300e+001 -1.300e+001 -1.300e+001 -1.300e+001 -1.300e+001 -1.300e+001 -1.300e+001 -1.300e+001 -1.300e+001 -1.300e+001 -1.300e+001 -1.300e+001 -1.300e+001 -1.300e+001 -1.300e+001 -1.300e+001 -1.300e+001 -1.300e+001 -1.300e+001 -1.300e+001 -1.300e+001 -1.300e+001 -1.300e+001 -1.300e+001 -1.300e+001 -1.300e+001 -1.300e+001 -1.300e+001 -1.300e+001 -1.300e+001 -1.300e+001 -1.300e+001 -1.300e+001 -1.300e+001 -1.300e+001 -1.300e+001 -1.300e+001 -1.300e+001 -1.300e+001 -1.300e+001 -1.300e+001 -1.300e+001 -1.300e+001 -1.300e+001 -1.300e+001 -1.300e+001 -1.300e+001 -1.300e+001 -1.300e+001 -1.300e+001 -1.300e+001 -1.300e+001 -1.300e+001 -1.300e+001 -1.300e+001 -1.300e+001 -1.300e+001 -1.300e+001 -1.300e+001 -1.300e+001 -1.300e+001 -1.300e+001 -1.300e+001 -1.300e+001 -1.300e+001 -1.300e+001 -1.300e+001 -1.300e+001 -1.300e+001 -1.300e+001 -1.300e+001 -1.300e+001 -1.300e+001 -1.300e+001 -1.300e+001 -1.300e+001 -1.300e+001 -1.300e+001 -1.300e+001 -1.300e+001 -1.300e+001 -1.300e+001 -1.300e+001 -1.300e+001 -1.300e+001 -1.300e+001 -1.300e+001 -1.300e+001 -1.300e+001 -1.300e+001 -1.300e+001 -1.300e+001 -1.300e+001 -1.300e+001 -1.300e+001 -1.300e+001 -1.300e+001 -1.300e+001 -1.300e+001 -1.300e+001 -1.300e+001 -1.300e+001 -1.300e+001 -1.300e+001 -1.300e+001 -1.300e+001 -1.300e+001 -1.300e+001 -1.300e+001 -1.300e+001 -1.300e+001 -1.300e+001 -1.300e+001 -1.300e+001 -1.300e+001 -1.300e+001 -1.300e+001 -1.300e+001 -1.300e+001 -1.300e+001 -1.300e+001 -1.300e+001 -1.300e+001 -1.300e+001 -1.300e+001 -1.300e+001 -1.300e+001 -1.300e+001 -1.300e+001 -1.300e+001 -1.300e+001 -1.300e+001 -1.300e+001 -1.300e+001 -1.300e+001 -1.300e+001 -1.300e+001 -1.300e+001 -1.300e+001 -1.300e+001 -1.300e+001 -1.300e+001 -1.300e+001 -1.300e+001 -1.300e+001 -1.300e+001 -1.300e+001 -1.300e+001 -1.300e+001 -1.300e+001 -1.300e+001 -1.300e+001 -1.300e+001 -1.300e+001 -1.300e+001 -1.300e+001 -1.300e+001 -1.300e+001 -1.300e+001 -1.300e+001 -1.300e+001 -1.300e+001 -1.300e+001 -1.300e+001 -1.300e+001 -1.300e+001 -1.300e+001 -1.300e+001 -1.300e+001 -1.300e+001 -1.300e+001 -1.300e+001 -1.300e+001 -1.300e+001 -1.300e+001 -1.300e+001 -1.300e+001 -1.300e+001 -1.300e+001 -1.300e+001 -1.300e+001 -1.300e+001 -1.300e+001 -1.300e+001 -1.300e+001 -1.300e+001 -1.300e+001 -1.300e+001 -1.300e+001 -1.300e+001 -1.300e+001 -1.300e+001 -1.300e+001 -1.300e+001 -1.300e+001 -1.300e+001 -1.300e+001 -1.300e+001 -1.300e+001 -1.300e+001 -1.300e+001 -1.300e+001 -1.300e+001 -1.300e+001 -1.300e+001 -1.300e+001 -1.300e+001 -1.300e+001 -1.300e+001 -1.300e+001 -1.300e+001 -1.300e+001 -1.300e+001 -1.300e+001 -1.300e+001 -1.300e+001 -1.300e+001 -1.300e+001 -1.300e+001 -1.300e+001 -1.300e+001 -1.300e+001 -1.300e+001 -1.300e+001 -1.300e+001 -1.300e+001 -1.300e+001 -1.300e+001 -1.300e+001 -1.300e+001 -1.300e+001 -1.300e+001 -1.300e+001 -5.000e+000 -5.000e+000 -5.000e+000 -5.000e+000 -5.000e+000 -5.000e+000 -5.000e+000 -5.000e+000 -5.000e+000 -5.000e+000 -5.000e+000 -5.000e+000 -5.000e+000 -5.000e+000 -5.000e+000 -5.000e+000 -5.000e+000 -5.000e+000 -5.000e+000 -5.000e+000 -5.000e+000 -5.000e+000 -5.000e+000 -5.000e+000 -5.000e+000 -5.000e+000 -5.000e+000 -5.000e+000 -5.000e+000 -5.000e+000 -5.000e+000 -5.000e+000 -5.000e+000 -1.300e+001 -1.300e+001 -1.300e+001 -1.300e+001 -1.300e+001 -1.300e+001 -1.300e+001 -1.300e+001 -1.300e+001 -1.300e+001 -1.300e+001 -1.300e+001 -1.300e+001 -1.300e+001 -1.300e+001 -1.300e+001 -1.300e+001 -1.300e+001 -1.300e+001 -1.300e+001 -1.300e+001 -1.300e+001 -1.300e+001 -1.300e+001 -1.300e+001 -1.300e+001 -1.300e+001 -1.300e+001 -1.300e+001 -1.300e+001 -1.300e+001 -1.300e+001 -1.300e+001 -1.300e+001 -1.300e+001 -1.300e+001 -1.300e+001 -1.300e+001 -1.300e+001 -1.300e+001 -1.300e+001 -1.300e+001 -1.300e+001 -1.300e+001 -1.300e+001 -1.300e+001 -1.300e+001 -1.300e+001 -1.300e+001 -1.300e+001 -1.300e+001 -1.300e+001 -1.300e+001 -1.300e+001 -1.300e+001 -1.300e+001 -1.300e+001 -1.300e+001 -1.300e+001 -1.300e+001 -1.300e+001 -1.300e+001 -1.300e+001 -1.300e+001 -1.300e+001 -1.300e+001 -1.300e+001 -1.300e+001 -1.300e+001 -1.300e+001 -1.300e+001 -1.300e+001 -1.300e+001 -1.300e+001 -1.300e+001 -1.300e+001 -1.300e+001 -1.300e+001 -1.300e+001 -1.300e+001 -1.300e+001 -1.300e+001 -1.300e+001 -1.300e+001 -1.300e+001 -1.300e+001 -1.300e+001 -1.300e+001 -1.300e+001 -1.300e+001 -1.300e+001 -1.300e+001 -1.300e+001 -1.300e+001 -1.300e+001 -1.300e+001 -1.300e+001 -1.300e+001 -1.300e+001 -1.300e+001 -1.300e+001 -1.300e+001 -1.300e+001 -1.300e+001 -1.300e+001 -1.300e+001 -1.300e+001 -1.300e+001 -1.300e+001 -1.300e+001 -1.300e+001 -1.300e+001 -1.300e+001 -1.300e+001 -1.300e+001 -1.300e+001 -1.300e+001 -1.300e+001 -1.300e+001 -1.300e+001 -1.300e+001 -1.300e+001 -1.300e+001 -1.300e+001 -1.300e+001 -1.300e+001 -1.300e+001 -1.300e+001 -1.300e+001 -1.300e+001 -1.300e+001 -1.300e+001 -1.300e+001 -1.300e+001 -1.300e+001 -1.300e+001 -1.300e+001 -1.300e+001 -1.300e+001 -1.300e+001 -1.300e+001 -1.300e+001 -1.300e+001 -1.300e+001 -1.300e+001 -1.300e+001 -1.300e+001 -1.300e+001 -1.300e+001 -1.300e+001 -1.300e+001 -1.300e+001 -1.300e+001 -1.300e+001 -1.300e+001 -1.300e+001 -1.300e+001 -1.300e+001 -1.300e+001 -1.300e+001 -1.300e+001 -1.300e+001 -1.300e+001 -1.300e+001 -1.300e+001 -1.300e+001 -1.300e+001 -1.300e+001 -1.300e+001 -1.300e+001 -1.300e+001 -1.300e+001 -1.300e+001 -1.300e+001 -1.300e+001 -1.300e+001 -1.300e+001 -1.300e+001 -1.300e+001 -1.300e+001 -1.300e+001 -1.300e+001 -1.300e+001 -1.300e+001 -1.300e+001 -1.300e+001 -1.300e+001 -1.300e+001 -1.300e+001 -1.300e+001 -1.300e+001 -1.300e+001 -1.300e+001 -1.300e+001 -1.300e+001 -1.300e+001 -1.300e+001 -1.300e+001 -1.300e+001 -1.300e+001 -1.300e+001 -1.300e+001 -1.300e+001 -1.300e+001 -1.300e+001 -1.300e+001 -1.300e+001 -1.300e+001 -1.300e+001 -1.300e+001 -1.300e+001 -1.300e+001 -1.300e+001 -1.300e+001 -1.300e+001 -1.300e+001 -1.300e+001 -1.300e+001 -1.300e+001 -1.300e+001 -1.300e+001 -1.300e+001 -1.300e+001 -1.300e+001 -1.300e+001 -1.300e+001 -1.300e+001 -1.300e+001 -1.300e+001 -1.300e+001 -1.300e+001 -1.300e+001 -1.300e+001 -1.300e+001 -1.300e+001 -1.300e+001 -1.300e+001 -1.300e+001 -1.300e+001 -1.300e+001 -1.300e+001 -1.300e+001 -1.300e+001 -1.300e+001 -5.000e+000 -5.000e+000 -5.000e+000 -5.000e+000 -5.000e+000 -5.000e+000 -5.000e+000 -5.000e+000 -5.000e+000 -5.000e+000 -5.000e+000 -5.000e+000 -5.000e+000 -5.000e+000 -5.000e+000 -5.000e+000 -5.000e+000 -5.000e+000 -5.000e+000 -5.000e+000 -5.000e+000 -5.000e+000 -5.000e+000 -5.000e+000 -5.000e+000 -5.000e+000 -5.000e+000 -5.000e+000 -5.000e+000 -5.000e+000 -5.000e+000 -5.000e+000 -5.000e+000 -1.300e+001 -1.300e+001 -1.300e+001 -1.300e+001 -1.300e+001 -1.300e+001 -1.300e+001 -1.300e+001 -1.300e+001 -1.300e+001 -1.300e+001 -1.300e+001 -1.300e+001 -1.300e+001 -1.300e+001 -1.300e+001 -1.300e+001 -1.300e+001 -1.300e+001 -1.300e+001 -1.300e+001 -1.300e+001 -1.300e+001 -1.300e+001 -1.300e+001 -1.300e+001 -1.300e+001 -1.300e+001 -1.300e+001 -1.300e+001 -1.300e+001 -1.300e+001 -1.300e+001 -1.300e+001 -1.300e+001 -1.300e+001 -1.300e+001 -1.300e+001 -1.300e+001 -1.300e+001 -1.300e+001 -1.300e+001 -1.300e+001 -1.300e+001 -1.300e+001 -1.300e+001 -1.300e+001 -1.300e+001 -1.300e+001 -1.300e+001 -1.300e+001 -1.300e+001 -1.300e+001 -1.300e+001 -1.300e+001 -1.300e+001 -1.300e+001 -1.300e+001 -1.300e+001 -1.300e+001 -1.300e+001 -1.300e+001 -1.300e+001 -1.300e+001 -1.300e+001 -1.300e+001 -1.300e+001 -1.300e+001 -1.300e+001 -1.300e+001 -1.300e+001 -1.300e+001 -1.300e+001 -1.300e+001 -1.300e+001 -1.300e+001 -1.300e+001 -1.300e+001 -1.300e+001 -1.300e+001 -1.300e+001 -1.300e+001 -1.300e+001 -1.300e+001 -1.300e+001 -1.300e+001 -1.300e+001 -1.300e+001 -1.300e+001 -1.300e+001 -1.300e+001 -1.300e+001 -1.300e+001 -1.300e+001 -1.300e+001 -1.300e+001 -1.300e+001 -1.300e+001 -1.300e+001 -1.300e+001 -1.300e+001 -1.300e+001 -1.300e+001 -1.300e+001 -1.300e+001 -1.300e+001 -1.300e+001 -1.300e+001 -1.300e+001 -1.300e+001 -1.300e+001 -1.300e+001 -1.300e+001 -1.300e+001 -1.300e+001 -1.300e+001 -1.300e+001 -1.300e+001 -1.300e+001 -1.300e+001 -1.300e+001 -1.300e+001 -1.300e+001 -1.300e+001 -1.300e+001 -1.300e+001 -1.300e+001 -1.300e+001 -1.300e+001 -1.300e+001 -1.300e+001 -1.300e+001 -1.300e+001 -1.300e+001 -1.300e+001 -1.300e+001 -1.300e+001 -1.300e+001 -1.300e+001 -1.300e+001 -1.300e+001 -1.300e+001 -1.300e+001 -1.300e+001 -1.300e+001 -1.300e+001 -1.300e+001 -1.300e+001 -1.300e+001 -1.300e+001 -1.300e+001 -1.300e+001 -1.300e+001 -1.300e+001 -1.300e+001 -1.300e+001 -1.300e+001 -1.300e+001 -1.300e+001 -1.300e+001 -1.300e+001 -1.300e+001 -1.300e+001 -1.300e+001 -1.300e+001 -1.300e+001 -1.300e+001 -1.300e+001 -1.300e+001 -1.300e+001 -1.300e+001 -1.300e+001 -1.300e+001 -1.300e+001 -1.300e+001 -1.300e+001 -1.300e+001 -1.300e+001 -1.300e+001 -1.300e+001 -1.300e+001 -1.300e+001 -1.300e+001 -1.300e+001 -1.300e+001 -1.300e+001 -1.300e+001 -1.300e+001 -1.300e+001 -1.300e+001 -1.300e+001 -1.300e+001 -1.300e+001 -1.300e+001 -1.300e+001 -1.300e+001 -1.300e+001 -1.300e+001 -1.300e+001 -1.300e+001 -1.300e+001 -1.300e+001 -1.300e+001 -1.300e+001 -1.300e+001 -1.300e+001 -1.300e+001 -1.300e+001 -1.300e+001 -1.300e+001 -1.300e+001 -1.300e+001 -1.300e+001 -1.300e+001 -1.300e+001 -1.300e+001 -1.300e+001 -1.300e+001 -1.300e+001 -1.300e+001 -1.300e+001 -1.300e+001 -1.300e+001 -1.300e+001 -1.300e+001 -1.300e+001 -1.300e+001 -1.300e+001 -1.300e+001 -1.300e+001 -1.300e+001 -1.300e+001 -1.300e+001 -1.300e+001 -1.300e+001 -1.300e+001 -1.300e+001 -1.300e+001 -1.300e+001 -1.300e+001 -1.300e+001 -1.300e+001 -1.300e+001 -1.300e+001 -1.300e+001 -1.300e+001 -1.300e+001 -1.300e+001 -5.000e+000 -5.000e+000 -5.000e+000 -5.000e+000 -5.000e+000 -5.000e+000 -5.000e+000 -5.000e+000 -5.000e+000 -5.000e+000 -5.000e+000 -5.000e+000 -5.000e+000 -5.000e+000 -5.000e+000 -5.000e+000 -5.000e+000 -5.000e+000 -5.000e+000 -5.000e+000 -5.000e+000 -5.000e+000 -5.000e+000 -5.000e+000 -5.000e+000 -5.000e+000 -5.000e+000 -5.000e+000 -5.000e+000 -5.000e+000 -5.000e+000 -5.000e+000 -5.000e+000 -1.900e+001 -1.900e+001 -1.900e+001 -1.900e+001 -1.900e+001 -1.900e+001 -1.900e+001 -1.900e+001 -1.900e+001 -1.900e+001 -1.900e+001 -1.900e+001 -1.900e+001 -1.900e+001 -1.900e+001 -1.900e+001 -1.900e+001 -1.900e+001 -1.900e+001 -1.900e+001 -1.900e+001 -1.900e+001 -1.900e+001 -1.900e+001 -1.900e+001 -1.900e+001 -1.900e+001 -1.900e+001 -1.900e+001 -1.900e+001 -1.900e+001 -1.900e+001 -1.900e+001 -1.900e+001 -1.900e+001 -1.900e+001 -1.900e+001 -1.900e+001 -1.900e+001 -1.900e+001 -1.900e+001 -1.900e+001 -1.900e+001 -1.900e+001 -1.900e+001 -1.900e+001 -1.900e+001 -1.900e+001 -1.900e+001 -1.900e+001 -1.900e+001 -1.900e+001 -1.900e+001 -1.900e+001 -1.900e+001 -1.900e+001 -1.900e+001 -1.100e+001 -1.100e+001 -1.100e+001 -1.100e+001 -1.100e+001 -1.100e+001 -1.100e+001 -1.100e+001 -1.100e+001 -1.100e+001 -1.100e+001 -1.100e+001 -1.100e+001 -1.100e+001 -1.100e+001 -1.100e+001 -1.100e+001 -1.100e+001 -1.100e+001 -1.100e+001 -1.100e+001 -1.100e+001 -1.100e+001 -1.900e+001 -1.900e+001 -1.900e+001 -1.900e+001 -1.900e+001 -1.900e+001 -1.900e+001 -1.900e+001 -1.900e+001 -1.900e+001 -1.900e+001 -1.900e+001 -1.900e+001 -1.900e+001 -1.900e+001 -1.900e+001 -1.900e+001 -1.900e+001 -1.900e+001 -1.900e+001 -1.900e+001 -1.900e+001 -1.900e+001 -1.900e+001 -1.900e+001 -1.900e+001 -1.900e+001 -1.900e+001 -1.900e+001 -1.900e+001 -1.900e+001 -1.900e+001 -1.900e+001 -1.900e+001 -1.900e+001 -1.900e+001 -1.900e+001 -1.900e+001 -1.900e+001 -1.900e+001 -1.900e+001 -1.900e+001 -1.900e+001 -1.900e+001 -1.900e+001 -1.900e+001 -1.900e+001 -1.900e+001 -1.900e+001 -1.900e+001 -1.900e+001 -1.900e+001 -1.900e+001 -1.900e+001 -1.100e+001 -1.100e+001 -1.100e+001 -1.100e+001 -1.100e+001 -1.100e+001 -1.100e+001 -1.100e+001 -1.100e+001 -1.100e+001 -1.100e+001 -1.100e+001 -1.100e+001 -1.100e+001 -1.100e+001 -1.100e+001 -1.100e+001 -1.100e+001 -1.100e+001 -1.100e+001 -1.100e+001 -1.100e+001 -1.100e+001 -1.900e+001 -1.900e+001 -1.900e+001 -1.900e+001 -1.900e+001 -1.900e+001 -1.900e+001 -1.900e+001 -1.900e+001 -1.900e+001 -1.900e+001 -1.900e+001 -1.900e+001 -1.900e+001 -1.900e+001 -1.900e+001 -1.900e+001 -1.900e+001 -1.900e+001 -1.900e+001 -1.900e+001 -1.900e+001 -1.900e+001 -1.900e+001 -1.900e+001 -1.900e+001 -1.900e+001 -1.900e+001 -1.900e+001 -1.900e+001 -1.900e+001 -1.900e+001 -1.900e+001 -1.900e+001 -1.900e+001 -1.900e+001 -1.900e+001 -1.900e+001 -1.900e+001 -1.900e+001 -1.900e+001 -1.900e+001 -1.900e+001 -1.900e+001 -1.900e+001 -1.900e+001 -1.900e+001 -1.900e+001 -1.900e+001 -1.900e+001 -1.900e+001 -1.900e+001 -1.900e+001 -1.900e+001 -1.100e+001 -1.100e+001 -1.100e+001 -1.100e+001 -1.100e+001 -1.100e+001 -1.100e+001 -1.100e+001 -1.100e+001 -1.100e+001 -1.100e+001 -1.100e+001 -1.100e+001 -1.100e+001 -1.100e+001 -1.100e+001 -1.100e+001 -1.100e+001 -1.100e+001 -1.100e+001 -1.100e+001 -1.100e+001 -1.100e+001 -1.900e+001 -1.900e+001 -1.900e+001 -1.900e+001 -1.900e+001 -1.900e+001 -1.900e+001 -1.900e+001 -1.900e+001 -1.900e+001 -1.900e+001 -1.900e+001 -1.900e+001 -1.900e+001 -1.900e+001 -1.900e+001 -1.900e+001 -1.900e+001 -1.900e+001 -1.900e+001 -1.900e+001 -1.900e+001 -1.900e+001 -1.900e+001 -1.900e+001 -1.900e+001 -1.900e+001 -1.900e+001 -1.900e+001 -1.900e+001 -1.900e+001 -1.900e+001 -1.900e+001 -1.900e+001 -1.900e+001 -1.900e+001 -1.900e+001 -1.900e+001 -1.900e+001 -1.900e+001 -1.900e+001 -1.900e+001 -1.900e+001 -1.900e+001 -1.900e+001 -1.900e+001 -1.900e+001 -1.900e+001 -1.900e+001 -1.900e+001 -1.900e+001 -1.900e+001 -1.900e+001 -1.900e+001 -1.900e+001 -1.900e+001 -1.900e+001 -1.900e+001 -1.100e+001 -1.100e+001 -1.100e+001 -1.100e+001 -1.100e+001 -1.100e+001 -1.100e+001 -1.100e+001 -1.100e+001 -1.100e+001 -1.100e+001 -1.100e+001 -1.100e+001 -1.100e+001 -1.100e+001 -1.100e+001 -1.100e+001 -1.100e+001 -1.100e+001 -1.100e+001 -1.100e+001 -1.100e+001 -1.100e+001 -2.000e+001 -2.000e+001 -2.000e+001 -2.000e+001 -2.000e+001 -2.000e+001 -2.000e+001 -2.000e+001 -2.000e+001 -2.000e+001 -2.000e+001 -2.000e+001 -2.000e+001 -2.000e+001 -2.000e+001 -2.000e+001 -2.000e+001 -2.000e+001 -2.000e+001 -2.000e+001 -2.000e+001 -2.000e+001 -2.000e+001 -2.000e+001 -2.000e+001 -2.000e+001 -2.000e+001 -2.000e+000 -2.000e+000 -2.000e+000 -2.000e+000 -2.000e+000 -2.000e+000 -2.000e+000 -2.000e+000 -2.000e+000 -2.000e+000 -2.000e+000 -2.000e+000 -1.500e+001 -7.000e+000 -7.000e+000 -7.000e+000 -7.000e+000 -7.000e+000 -7.000e+000 -1.500e+001 -1.500e+001 -1.500e+001 -7.000e+000 -7.000e+000 -7.000e+000 -7.000e+000 -7.000e+000 -7.000e+000 -7.000e+000 -7.000e+000 -1.500e+001 -1.500e+001 -1.500e+001 -1.500e+001 -7.000e+000 -7.000e+000 -7.000e+000 -7.000e+000 -7.000e+000 -7.000e+000 -7.000e+000 -7.000e+000 -7.000e+000 -7.000e+000 -7.000e+000 -7.000e+000 -7.000e+000 -7.000e+000 -7.000e+000 -7.000e+000 -7.000e+000 -7.000e+000 -7.000e+000 -7.000e+000 -7.000e+000 -7.000e+000 -7.000e+000 -7.000e+000 -7.000e+000 -7.000e+000 -7.000e+000 -7.000e+000 -7.000e+000 -7.000e+000 -7.000e+000 -7.000e+000 -7.000e+000 -7.000e+000 -7.000e+000 -7.000e+000 -7.000e+000 -7.000e+000 -7.000e+000 -7.000e+000 -7.000e+000 -7.000e+000 -7.000e+000 -7.000e+000 -1.500e+001 -1.500e+001 -1.500e+001 -7.000e+000 -7.000e+000 -7.000e+000 -7.000e+000 -7.000e+000 -7.000e+000 -7.000e+000 -7.000e+000 -7.000e+000 -7.000e+000 -7.000e+000 -7.000e+000 -7.000e+000 -7.000e+000 -7.000e+000 -7.000e+000 -7.000e+000 -7.000e+000 -7.000e+000 -7.000e+000 -7.000e+000 -7.000e+000 -7.000e+000 -7.000e+000 -7.000e+000 -7.000e+000 -7.000e+000 -7.000e+000 -7.000e+000 -7.000e+000 -7.000e+000 -7.000e+000 -7.000e+000 -7.000e+000 -7.000e+000 -7.000e+000 -7.000e+000 -7.000e+000 -7.000e+000 -1.500e+001 -1.500e+001 -7.000e+000 -7.000e+000 -7.000e+000 -7.000e+000 -7.000e+000 -7.000e+000 -7.000e+000 -7.000e+000 -7.000e+000 -7.000e+000 -7.000e+000 -7.000e+000 -7.000e+000 -7.000e+000 -7.000e+000 -7.000e+000 -7.000e+000 -7.000e+000 -7.000e+000 -7.000e+000 -7.000e+000 -7.000e+000 -7.000e+000 -7.000e+000 -7.000e+000 -7.000e+000 -7.000e+000 -7.000e+000 -7.000e+000 -7.000e+000 -7.000e+000 -7.000e+000 -7.000e+000 -7.000e+000 -7.000e+000 -1.500e+001 -1.500e+001 -7.000e+000 -7.000e+000 -7.000e+000 -7.000e+000 -7.000e+000 -7.000e+000 -7.000e+000 -7.000e+000 -7.000e+000 -7.000e+000 -7.000e+000 -7.000e+000 -7.000e+000 -7.000e+000 -7.000e+000 -7.000e+000 -7.000e+000 -7.000e+000 -7.000e+000 -7.000e+000 -7.000e+000 -7.000e+000 -7.000e+000 -7.000e+000 -7.000e+000 -7.000e+000 -7.000e+000 -1.500e+001 -1.500e+001 -1.500e+001 -7.000e+000 -7.000e+000 -7.000e+000 -7.000e+000 -7.000e+000 -7.000e+000 -7.000e+000 -7.000e+000 -7.000e+000 -7.000e+000 -7.000e+000 -7.000e+000 -7.000e+000 -7.000e+000 -7.000e+000 -7.000e+000 -7.000e+000 -7.000e+000 -7.000e+000 -7.0