<?xml version="1.0"?>
<VTKFile type="UnstructuredGrid" version="0.1" byte_order="LittleEndian">
   <UnstructuredGrid>
      <Piece NumberOfPoints="2750" NumberOfCells="199">
         <Points>
            <DataArray type="Float32" Name="Position" NumberOfComponents="3" format="ascii">
0.008	-5.017	0.018
-0.000	-5.003	0.031
-0.009	-4.984	0.032
-0.014	-4.967	0.021
-0.014	-4.959	0.001
-0.009	-4.963	-0.019
-0.001	-4.977	-0.032
0.007	-4.997	-0.033
0.013	-5.013	-0.021
0.013	-5.021	-0.002
-0.837	-5.380	-0.124
-0.846	-5.368	-0.109
-0.857	-5.351	-0.105
-0.865	-5.334	-0.114
-0.868	-5.324	-0.132
-0.864	-5.324	-0.152
-0.855	-5.336	-0.168
-0.845	-5.354	-0.172
-0.836	-5.371	-0.163
-0.834	-5.381	-0.144
-1.422	-5.803	-0.215
-1.430	-5.796	-0.197
-1.443	-5.782	-0.188
-1.455	-5.765	-0.192
-1.463	-5.753	-0.207
-1.463	-5.749	-0.228
-1.455	-5.756	-0.246
-1.442	-5.770	-0.255
-1.429	-5.787	-0.251
-1.422	-5.799	-0.236
-1.929	-6.251	-0.307
-1.935	-6.247	-0.287
-1.948	-6.235	-0.275
-1.963	-6.220	-0.275
-1.974	-6.208	-0.288
-1.977	-6.202	-0.308
-1.971	-6.206	-0.327
-1.958	-6.217	-0.340
-1.943	-6.232	-0.339
-1.932	-6.245	-0.327
-2.469	-6.840	-0.347
-2.473	-6.838	-0.326
-2.485	-6.828	-0.312
-2.501	-6.815	-0.309
-2.514	-6.803	-0.320
-2.521	-6.797	-0.339
-2.517	-6.799	-0.359
-2.505	-6.808	-0.374
-2.489	-6.822	-0.376
-2.476	-6.834	-0.366
-2.838	-7.312	-0.359
-2.841	-7.310	-0.339
-2.852	-7.301	-0.324
-2.869	-7.289	-0.320
-2.883	-7.277	-0.329
-2.891	-7.271	-0.348
-2.889	-7.273	-0.369
-2.877	-7.282	-0.384
-2.861	-7.294	-0.387
-2.846	-7.306	-0.378
-3.242	-7.825	-0.354
-3.244	-7.823	-0.333
-3.255	-7.814	-0.318
-3.272	-7.802	-0.314
-3.287	-7.790	-0.323
-3.295	-7.784	-0.341
-3.293	-7.786	-0.362
-3.281	-7.795	-0.378
-3.265	-7.807	-0.382
-3.250	-7.818	-0.373
-3.658	-8.392	-0.354
-3.659	-8.391	-0.333
-3.671	-8.383	-0.317
-3.687	-8.371	-0.312
-3.703	-8.360	-0.321
-3.712	-8.353	-0.339
-3.710	-8.354	-0.360
-3.699	-8.362	-0.376
-3.682	-8.374	-0.380
-3.666	-8.386	-0.372
-3.902	-8.699	-0.329
-3.902	-8.680	-0.320
-3.902	-8.659	-0.324
-3.901	-8.645	-0.339
-3.901	-8.642	-0.360
-3.900	-8.651	-0.378
-3.900	-8.670	-0.387
-3.900	-8.691	-0.384
-3.900	-8.706	-0.369
-3.901	-8.709	-0.348
0.024	-5.013	-0.002
0.033	-4.995	0.005
0.028	-4.975	0.010
0.013	-4.961	0.011
-0.008	-4.958	0.008
-0.025	-4.967	0.001
-0.034	-4.985	-0.005
-0.030	-5.005	-0.010
-0.014	-5.019	-0.011
0.006	-5.022	-0.008
-0.159	-5.269	0.885
-0.151	-5.251	0.894
-0.156	-5.232	0.901
-0.172	-5.219	0.904
-0.193	-5.216	0.901
-0.210	-5.225	0.893
-0.218	-5.243	0.884
-0.213	-5.262	0.877
-0.197	-5.275	0.875
-0.176	-5.278	0.878
-0.282	-5.625	1.508
-0.276	-5.609	1.520
-0.282	-5.592	1.530
-0.299	-5.580	1.535
-0.319	-5.578	1.532
-0.336	-5.586	1.523
-0.343	-5.603	1.511
-0.337	-5.620	1.501
-0.320	-5.632	1.497
-0.299	-5.634	1.499
-0.392	-6.027	2.051
-0.385	-6.012	2.065
-0.392	-5.996	2.076
-0.409	-5.985	2.082
-0.429	-5.983	2.079
-0.446	-5.991	2.069
-0.452	-6.006	2.056
-0.446	-6.022	2.044
-0.429	-6.033	2.039
-0.408	-6.035	2.042
-0.524	-6.540	2.654
-0.517	-6.526	2.668
-0.524	-6.510	2.681
-0.541	-6.500	2.687
-0.562	-6.498	2.684
-0.578	-6.505	2.674
-0.584	-6.519	2.659
-0.578	-6.535	2.647
-0.561	-6.546	2.641
-0.540	-6.548	2.643
-0.620	-6.951	3.080
-0.614	-6.937	3.095
-0.621	-6.922	3.108
-0.638	-6.912	3.115
-0.658	-6.910	3.112
-0.675	-6.917	3.101
-0.681	-6.931	3.086
-0.674	-6.945	3.073
-0.657	-6.956	3.067
-0.636	-6.958	3.069
-0.724	-7.410	3.530
-0.718	-7.397	3.545
-0.725	-7.382	3.559
-0.742	-7.373	3.567
-0.762	-7.371	3.564
-0.779	-7.378	3.553
-0.785	-7.391	3.538
-0.778	-7.405	3.524
-0.761	-7.415	3.517
-0.740	-7.417	3.519
-0.807	-7.934	3.992
-0.801	-7.921	4.008
-0.808	-7.908	4.022
-0.825	-7.898	4.030
-0.846	-7.897	4.028
-0.862	-7.904	4.017
-0.868	-7.916	4.001
-0.861	-7.929	3.987
-0.844	-7.939	3.979
-0.823	-7.940	3.981
-0.856	-8.228	4.238
-0.846	-8.209	4.238
-0.849	-8.189	4.238
-0.864	-8.174	4.238
-0.885	-8.170	4.238
-0.904	-8.180	4.238
-0.913	-8.199	4.238
-0.910	-8.220	4.238
-0.895	-8.234	4.238
-0.874	-8.238	4.238
0.009	-4.972	-0.028
0.011	-4.960	-0.011
0.008	-4.959	0.010
0.002	-4.970	0.027
-0.005	-4.988	0.034
-0.010	-5.008	0.027
-0.012	-5.020	0.011
-0.010	-5.021	-0.010
-0.004	-5.010	-0.027
0.004	-4.992	-0.034
0.896	-5.270	0.098
0.899	-5.258	0.115
0.897	-5.256	0.136
0.890	-5.267	0.153
0.882	-5.285	0.160
0.875	-5.303	0.154
0.871	-5.316	0.137
0.874	-5.317	0.116
0.880	-5.307	0.099
0.889	-5.289	0.092
1.540	-5.616	0.180
1.544	-5.605	0.197
1.543	-5.603	0.218
1.535	-5.613	0.235
1.524	-5.629	0.242
1.515	-5.647	0.235
1.510	-5.659	0.219
1.512	-5.660	0.198
1.519	-5.651	0.181
1.530	-5.634	0.174
2.118	-5.982	0.250
2.124	-5.971	0.267
2.122	-5.969	0.288
2.114	-5.978	0.305
2.102	-5.993	0.312
2.091	-6.010	0.306
2.085	-6.022	0.289
2.086	-6.023	0.268
2.095	-6.014	0.251
2.107	-5.999	0.244
2.741	-6.483	0.338
2.748	-6.473	0.355
2.747	-6.471	0.376
2.738	-6.479	0.393
2.724	-6.494	0.400
2.712	-6.509	0.393
2.704	-6.520	0.377
2.706	-6.521	0.356
2.715	-6.513	0.339
2.728	-6.499	0.332
3.179	-6.892	0.379
3.186	-6.882	0.396
3.186	-6.881	0.417
3.177	-6.889	0.434
3.163	-6.904	0.441
3.150	-6.919	0.435
3.142	-6.928	0.418
3.143	-6.929	0.397
3.151	-6.921	0.380
3.165	-6.907	0.373
3.659	-7.333	0.400
3.668	-7.323	0.417
3.667	-7.323	0.438
3.658	-7.331	0.455
3.644	-7.345	0.462
3.630	-7.359	0.456
3.622	-7.369	0.439
3.623	-7.370	0.418
3.631	-7.361	0.401
3.645	-7.347	0.394
4.152	-7.837	0.431
4.160	-7.828	0.447
4.160	-7.828	0.468
4.151	-7.835	0.486
4.136	-7.849	0.492
4.121	-7.862	0.486
4.112	-7.871	0.469
4.113	-7.872	0.448
4.122	-7.865	0.431
4.137	-7.851	0.424
4.396	-8.118	0.444
4.405	-8.109	0.461
4.404	-8.109	0.482
4.395	-8.116	0.499
4.380	-8.129	0.506
4.365	-8.142	0.500
4.356	-8.151	0.483
4.356	-8.152	0.462
4.366	-8.144	0.445
4.381	-8.131	0.438
-0.017	-4.962	-0.012
0.004	-4.957	-0.009
0.022	-4.965	-0.002
0.032	-4.982	0.005
0.029	-5.002	0.010
0.015	-5.018	0.012
-0.005	-5.023	0.008
-0.023	-5.015	0.002
-0.033	-4.998	-0.005
-0.031	-4.978	-0.011
0.188	-5.220	-0.898
0.209	-5.218	-0.895
0.226	-5.226	-0.887
0.234	-5.244	-0.878
0.229	-5.262	-0.870
0.213	-5.276	-0.867
0.192	-5.279	-0.870
0.175	-5.270	-0.878
0.167	-5.253	-0.888
0.173	-5.234	-0.896
0.321	-5.621	-1.505
0.341	-5.621	-1.500
0.356	-5.631	-1.490
0.360	-5.648	-1.477
0.351	-5.664	-1.467
0.332	-5.674	-1.464
0.312	-5.673	-1.469
0.297	-5.663	-1.479
0.294	-5.647	-1.492
0.303	-5.631	-1.502
0.450	-6.048	-2.032
0.470	-6.049	-2.025
0.483	-6.060	-2.012
0.484	-6.075	-1.998
0.472	-6.089	-1.988
0.453	-6.097	-1.985
0.433	-6.095	-1.992
0.420	-6.085	-2.004
0.419	-6.070	-2.019
0.431	-6.055	-2.029
0.587	-6.629	-2.574
0.606	-6.632	-2.566
0.617	-6.642	-2.552
0.616	-6.656	-2.536
0.602	-6.668	-2.525
0.582	-6.674	-2.524
0.563	-6.671	-2.532
0.552	-6.661	-2.546
0.554	-6.647	-2.562
0.567	-6.634	-2.573
0.677	-7.086	-2.955
0.696	-7.090	-2.947
0.706	-7.101	-2.931
0.703	-7.114	-2.915
0.689	-7.125	-2.905
0.668	-7.129	-2.903
0.649	-7.125	-2.912
0.640	-7.115	-2.927
0.642	-7.102	-2.943
0.657	-7.091	-2.954
0.755	-7.604	-3.348
0.773	-7.608	-3.339
0.782	-7.618	-3.323
0.777	-7.631	-3.306
0.762	-7.640	-3.296
0.741	-7.644	-3.295
0.723	-7.639	-3.305
0.714	-7.629	-3.321
0.719	-7.617	-3.337
0.734	-7.607	-3.348
0.834	-8.187	-3.739
0.852	-8.191	-3.728
0.860	-8.201	-3.712
0.854	-8.213	-3.695
0.838	-8.222	-3.684
0.817	-8.224	-3.685
0.800	-8.219	-3.695
0.792	-8.209	-3.712
0.797	-8.198	-3.729
0.813	-8.189	-3.739
0.884	-8.543	-3.909
0.894	-8.524	-3.909
0.890	-8.503	-3.909
0.876	-8.488	-3.909
0.855	-8.485	-3.909
0.836	-8.495	-3.909
0.827	-8.513	-3.909
0.830	-8.534	-3.909
0.845	-8.549	-3.909
0.865	-8.552	-3.909
-0.018	-4.725	0.020
-0.022	-4.707	0.030
-0.025	-4.686	0.027
-0.025	-4.671	0.013
-0.024	-4.667	-0.008
-0.020	-4.676	-0.027
-0.016	-4.694	-0.037
-0.013	-4.715	-0.034
-0.013	-4.730	-0.019
-0.015	-4.734	0.001
-0.450	-4.792	-0.029
-0.454	-4.774	-0.019
-0.457	-4.753	-0.022
-0.458	-4.738	-0.036
-0.456	-4.734	-0.057
-0.452	-4.743	-0.076
-0.449	-4.761	-0.086
-0.446	-4.781	-0.083
-0.445	-4.797	-0.068
-0.447	-4.801	-0.048
0.005	-4.724	-0.004
0.014	-4.706	-0.002
0.011	-4.685	-0.001
-0.004	-4.670	-0.000
-0.025	-4.667	-0.001
-0.043	-4.677	-0.003
-0.053	-4.696	-0.005
-0.049	-4.716	-0.006
-0.034	-4.731	-0.006
-0.013	-4.734	-0.005
-0.017	-4.757	0.435
-0.007	-4.738	0.437
-0.011	-4.718	0.438
-0.026	-4.703	0.438
-0.047	-4.700	0.437
-0.065	-4.710	0.436
-0.075	-4.728	0.434
-0.071	-4.749	0.433
-0.056	-4.764	0.432
-0.035	-4.767	0.433
-0.015	-4.679	-0.029
-0.014	-4.668	-0.011
-0.015	-4.670	0.010
-0.017	-4.683	0.026
-0.021	-4.703	0.031
-0.023	-4.722	0.023
-0.024	-4.733	0.005
-0.023	-4.732	-0.016
-0.021	-4.718	-0.032
-0.018	-4.698	-0.037
0.420	-4.743	-0.016
0.421	-4.733	0.002
0.420	-4.734	0.023
0.418	-4.748	0.039
0.415	-4.768	0.044
0.412	-4.787	0.036
0.411	-4.798	0.018
0.412	-4.796	-0.003
0.414	-4.783	-0.019
0.417	-4.763	-0.024
-0.041	-4.675	-0.008
-0.021	-4.667	-0.006
-0.001	-4.672	-0.004
0.012	-4.688	-0.001
0.014	-4.709	0.001
0.002	-4.727	0.001
-0.017	-4.734	-0.000
-0.037	-4.729	-0.002
-0.051	-4.713	-0.005
-0.052	-4.693	-0.007
0.001	-4.713	-0.444
0.021	-4.705	-0.443
0.041	-4.710	-0.441
0.054	-4.726	-0.438
0.056	-4.747	-0.436
0.044	-4.764	-0.436
0.025	-4.772	-0.437
0.005	-4.767	-0.439
-0.009	-4.751	-0.442
-0.010	-4.730	-0.444
-0.149	-5.006	0.155
-0.030	-5.000	0.213
0.101	-4.994	0.190
0.193	-4.991	0.094
0.211	-4.991	-0.038
0.149	-4.994	-0.155
0.030	-5.000	-0.213
-0.101	-5.006	-0.190
-0.193	-5.009	-0.094
-0.211	-5.009	0.038
-0.191	-4.045	0.147
-0.074	-4.041	0.204
0.055	-4.037	0.182
0.146	-4.034	0.088
0.165	-4.034	-0.041
0.104	-4.037	-0.157
-0.014	-4.041	-0.215
-0.143	-4.045	-0.193
-0.234	-4.048	-0.099
-0.252	-4.048	0.031
-0.202	-3.563	0.143
-0.086	-3.562	0.202
0.043	-3.559	0.180
0.134	-3.558	0.087
0.154	-3.558	-0.041
0.094	-3.559	-0.157
-0.023	-3.561	-0.216
-0.151	-3.563	-0.194
-0.243	-3.564	-0.101
-0.262	-3.565	0.028
-0.208	-3.003	0.143
-0.092	-3.002	0.201
0.036	-3.001	0.180
0.128	-3.000	0.088
0.147	-2.999	-0.040
0.088	-3.000	-0.156
-0.028	-3.000	-0.214
-0.156	-3.002	-0.193
-0.248	-3.003	-0.101
-0.267	-3.003	0.028
-0.211	-2.403	0.145
-0.096	-2.403	0.203
0.032	-2.402	0.182
0.123	-2.401	0.090
[...]
         <CellData>
           <DataArray type="Float32" Name="combinedRootClassID" NumberOfComponents="1" format="ascii">
 -5.000e+000 -5.000e+000 -5.000e+000 -5.000e+000 -5.000e+000 -5.000e+000 -5.000e+000 -5.000e+000 -5.000e+000 -5.000e+000 -5.000e+000 -5.000e+000 -5.000e+000 -5.000e+000 -5.000e+000 -5.000e+000 -5.000e+000 -5.000e+000 -5.000e+000 -5.000e+000 -5.000e+000 -5.000e+000 -5.000e+000 -5.000e+000 -5.000e+000 -5.000e+000 -5.000e+000 -5.000e+000 -5.000e+000 -5.000e+000 -5.000e+000 -5.000e+000 -1.100e+001 -1.100e+001 -1.100e+001 -1.100e+001 -2.000e+000 -2.000e+000 -2.000e+000 -2.000e+000 -2.000e+000 -2.000e+000 -2.000e+000 -2.000e+000 -2.000e+000 -2.000e+000 -2.000e+000 -2.000e+000 -7.000e+000 -7.000e+000 -7.000e+000 -7.000e+000 -7.000e+000 -7.000e+000 -7.000e+000 -7.000e+000 -7.000e+000 -7.000e+000 -7.000e+000 -7.000e+000 -7.000e+000 -7.000e+000 -7.000e+000 -7.000e+000 -7.000e+000 -7.000e+000 -7.000e+000 -7.000e+000 -7.000e+000 -7.000e+000 -7.000e+000 -7.000e+000 -7.000e+000 -7.000e+000 -7.000e+000 -7.000e+000 -7.000e+000 -7.000e+000 -7.000e+000 -7.000e+000 -7.000e+000 -7.000e+000 -7.000e+000 -7.000e+000 -7.000e+000 -7.000e+000 -7.000e+000 -7.000e+000 -7.000e+000 -7.000e+000 -7.000e+000 -7.000e+000 -7.000e+000 -7.000e+000 -7.000e+000 -7.000e+000 -7.000e+000 -7.000e+000 -7.000e+000 -7.000e+000 -7.000e+000 -7.000e+000 -7.000e+000 -7.000e+000 -7.000e+000 -7.000e+000 -7.000e+000 -7.000e+000 -7.000e+000 -7.000e+000 -7.000e+000 -7.000e+000 -7.000e+000 -7.000e+000 -7.000e+000 -7.000e+000 -7.000e+000 -7.000e+000 -7.000e+000 -7.000e+000 -7.000e+000 -7.000e+000 -7.000e+000 -7.000e+000 -7.000e+000 -7.000e+000 -7.000e+000 -7.000e+000 -7.000e+000 -7.000e+000 -7.000e+000 -7.000e+000 -7.000e+000 -7.000e+000 -7.000e+000 -7.000e+000 -7.000e+000 -7.000e+000 -7.000e+000 -7.000e+000 -7.000e+000 -7.000e+000 -7.000e+000 -7.000e+000 -7.000e+000 -7.000e+000 -7.000e+000 -7.000e+000 -7.000e+000 -7.000e+000 -7.000e+000 -7.000e+000 -7.000e+000 -7.000e+000 -7.000e+000 -7.000e+000 -7.000e+000 -7.000e+000 -7.000e+000 -7.000e+000 -9.000e+000 -9.000e+000 -9.000e+000 -9.000e+000 -4.000e+000 -4.000e+000 -4.000e+000 -4.000e+000 -4.000e+000 -4.000e+000 -4.000e+000 -4.000e+000 -4.000e+000 -4.000e+000 -4.000e+000 -4.000e+000 -4.000e+000 -4.000e+000 -4.000e+000 -4.000e+000 -4.000e+000 -4.000e+000 -4.000e+000 -4.000e+000 -4.000e+000 -4.000e+000 -4.000e+000 -4.000e+000 -4.000e+000 -4.000e+000 -4.000e+000 -4.000e+000 -4.000e+000 -4.000e+000 -4.000e+000 -4.000e+000 -4.000e+000 -4.000e+000 -4.000e+000
           </DataArray>
           <DataArray type="Float32" Name="nitrate/Cmin" NumberOfComponents="1" format="ascii">
 1.000e-003 1.000e-003 1.000e-003 1.000e-003 1.000e-003 1.000e-003 1.000e-003 1.000e-003 1.000e-003 1.000e-003 1.000e-003 1.000e-003 1.000e-003 1.000e-003 1.000e-003 1.000e-003 1.000e-003 1.000e-003 1.000e-003 1.000e-003 1.000e-003 1.000e-003 1.000e-003 1.000e-003 1.000e-003 1.000e-003 1.000e-003 1.000e-003 1.000e-003 1.000e-003 1.000e-003 1.000e-003 1.000e-003 1.000e-003 1.000e-003 1.000e-003 1.000e-003 1.000e-003 1.000e-003 1.000e-003 1.000e-003 1.000e-003 1.000e-003 1.000e-003 1.000e-003 1.000e-003 1.000e-003 1.000e-003 1.000e-003 1.000e-003 1.000e-003 1.000e-003 1.000e-003 1.000e-003 1.000e-003 1.000e-003 1.000e-003 1.000e-003 1.000e-003 1.000e-003 1.000e-003 1.000e-003 1.000e-003 1.000e-003 1.000e-003 1.000e-003 1.000e-003 1.000e-003 1.000e-003 1.000e-003 1.000e-003 1.000e-003 1.000e-003 1.000e-003 1.000e-003 1.000e-003 1.000e-003 1.000e-003 1.000e-003 1.000e-003 1.000e-003 1.000e-003 1.000e-003 1.000e-003 1.000e-003 1.000e-003 1.000e-003 1.000e-003 1.000e-003 1.000e-003 1.000e-003 1.000e-003 1.000e-003 1.000e-003 1.000e-003 1.000e-003 1.000e-003 1.000e-003 1.000e-003 1.000e-003 1.000e-003 1.000e-003 1.000e-003 1.000e-003 1.000e-003 1.000e-003 1.000e-003 1.000e-003 1.000e-003 1.000e-003 1.000e-003 1.000e-003 1.000e-003 1.000e-003 1.000e-003 1.000e-003 1.000e-003 1.000e-003 1.000e-003 1.000e-003 1.000e-003 1.000e-003 1.000e-003 1.000e-003 1.000e-003 1.000e-003 1.000e-003 1.000e-003 1.000e-003 1.000e-003 1.000e-003 1.000e-003 1.000e-003 1.000e-003 1.000e-003 1.000e-003 1.000e-003 1.000e-003 1.000e-003 1.000e-003 1.000e-003 1.000e-003 1.000e-003 1.000e-003 1.000e-003 1.000e-003 1.000e-003 1.000e-003 1.000e-003 1.000e-003 1.000e-003 1.000e-003 1.000e-003 1.000e-003 1.000e-003 1.000e-003 1.000e-003 1.000e-003 1.000e-003 1.000e-003 1.000e-003 1.000e-003 1.000e-003 1.000e-003 1.000e-003 1.000e-003 1.000e-003 1.000e-003 1.000e-003 1.000e-003 1.000e-003 1.000e-003 1.000e-003 1.000e-003 1.000e-003 1.000e-003 1.000e-003 1.000e-003 1.000e-003 1.000e-003 1.000e-003 1.000e-003 1.000e-003 1.000e-003 1.000e-003 1.000e-003 1.000e-003 1.000e-003 1.000e-003 1.000e-003 1.000e-003 1.000e-003 1.000e-003 1.000e-003 1.000e-003 1.000e-003 1.000e-003 1.000e-003 1.000e-003
           </DataArray>
           <DataArray type="Float32" Name="nitrate/Imax" NumberOfComponents="1" format="ascii">
 1.900e+000 1.900e+000 1.900e+000 1.900e+000 1.900e+000 1.900e+000 1.900e+000 1.900e+000 1.900e+000 1.900e+000 1.900e+000 1.900e+000 1.900e+000 1.900e+000 1.900e+000 1.900e+000 1.900e+000 1.900e+000 1.900e+000 1.900e+000 1.900e+000 1.900e+000 1.900e+000 1.900e+000 1.900e+000 1.900e+000 1.900e+000 1.900e+000 1.900e+000 1.900e+000 1.900e+000 1.900e+000 1.900e+000 1.900e+000 1.900e+000 1.900e+000 1.900e+000 1.900e+000 1.900e+000 1.900e+000 1.900e+000 1.900e+000 1.900e+000 1.900e+000 1.900e+000 1.900e+000 1.900e+000 1.900e+000 1.900e+000 1.900e+000 1.900e+000 1.900e+000 1.900e+000 1.900e+000 1.900e+000 1.900e+000 1.900e+000 1.900e+000 1.900e+000 1.900e+000 1.900e+000 1.900e+000 1.900e+000 1.900e+000 1.900e+000 1.900e+000 1.900e+000 1.900e+000 1.900e+000 1.900e+000 1.900e+000 1.900e+000 1.900e+000 1.900e+000 1.900e+000 1.900e+000 1.900e+000 1.900e+000 1.900e+000 1.900e+000 1.900e+000 1.900e+000 1.900e+000 1.900e+000 1.900e+000 1.900e+000 1.900e+000 1.900e+000 1.900e+000 1.900e+000 1.900e+000 1.900e+000 1.900e+000 1.900e+000 1.900e+000 1.900e+000 1.900e+000 1.900e+000 1.900e+000 1.900e+000 1.900e+000 1.900e+000 1.900e+000 1.900e+000 1.900e+000 1.900e+000 1.900e+000 1.900e+000 1.900e+000 1.900e+000 1.900e+000 1.900e+000 1.900e+000 1.900e+000 1.900e+000 1.900e+000 1.900e+000 1.900e+000 1.900e+000 1.900e+000 1.900e+000 1.900e+000 1.900e+000 1.900e+000 1.900e+000 1.900e+000 1.900e+000 1.900e+000 1.900e+000 1.900e+000 1.900e+000 1.900e+000 1.900e+000 1.900e+000 1.900e+000 1.900e+000 1.900e+000 1.900e+000 1.900e+000 1.900e+000 1.900e+000 1.900e+000 1.900e+000 1.900e+000 1.900e+000 1.900e+000 1.900e+000 1.900e+000 1.900e+000 1.900e+000 1.900e+000 1.900e+000 1.900e+000 1.900e+000 1.900e+000 1.900e+000 1.900e+000 1.900e+000 1.900e+000 1.900e+000 1.900e+000 1.900e+000 1.900e+000 1.900e+000 1.900e+000 1.900e+000 1.900e+000 1.900e+000 1.900e+000 1.900e+000 1.900e+000 1.900e+000 1.900e+000 1.900e+000 1.900e+000 1.900e+000 1.900e+000 1.900e+000 1.900e+000 1.900e+000 1.900e+000 1.900e+000 1.900e+000 1.900e+000 1.900e+000 1.900e+000 1.900e+000 1.900e+000 1.900e+000 1.900e+000 1.900e+000 1.900e+000 1.900e+000 1.900e+000 1.900e+000 1.900e+000 1.900e+000 1.900e+000 1.900e+000
           </DataArray>
           <DataArray type="Float32" Name="nitrate/Km" NumberOfComponents="1" format="ascii">
 1.610e-002 1.610e-002 1.610e-002 1.610e-002 1.610e-002 1.610e-002 1.610e-002 1.610e-002 1.610e-002 1.610e-002 1.610e-002 1.610e-002 1.610e-002 1.610e-002 1.610e-002 1.610e-002 1.610e-002 1.610e-002 1.610e-002 1.610e-002 1.610e-002 1.610e-002 1.610e-002 1.610e-002 1.610e-002 1.610e-002 1.610e-002 1.610e-002 1.610e-002 1.610e-002 1.610e-002 1.610e-002 1.610e-002 1.610e-002 1.610e-002 1.610e-002 1.610e-002 1.610e-002 1.610e-002 1.610e-002 1.610e-002 1.610e-002 1.610e-002 1.610e-002 1.610e-002 1.610e-002 1.610e-002 1.610e-002 1.610e-002 1.610e-002 1.610e-002 1.610e-002 1.610e-002 1.610e-002 1.610e-002 1.610e-002 1.610e-002 1.610e-002 1.610e-002 1.610e-002 1.610e-002 1.610e-002 1.610e-002 1.610e-002 1.610e-002 1.610e-002 1.610e-002 1.610e-002 1.610e-002 1.610e-002 1.610e-002 1.610e-002 1.610e-002 1.610e-002 1.610e-002 1.610e-002 1.610e-002 1.610e-002 1.610e-002 1.610e-002 1.610e-002 1.610e-002 1.610e-002 1.610e-002 1.610e-002 1.610e-002 1.610e-002 1.610e-002 1.610e-002 1.610e-002 1.610e-002 1.610e-002 1.610e-002 1.610e-002 1.610e-002 1.610e-002 1.610e-002 1.610e-002 1.610e-002 1.610e-002 1.610e-002 1.610e-002 1.610e-002 1.610e-002 1.610e-002 1.610e-002 1.610e-002 1.610e-002 1.610e-002 1.610e-002 1.610e-002 1.610e-002 1.610e-002 1.610e-002 1.610e-002 1.610e-002 1.610e-002 1.610e-002 1.610e-002 1.610e-002 1.610e-002 1.610e-002 1.610e-002 1.610e-002 1.610e-002 1.610e-002 1.610e-002 1.610e-002 1.610e-002 1.610e-002 1.610e-002 1.610e-002 1.610e-002 1.610e-002 1.610e-002 1.610e-002 1.610e-002 1.610e-002 1.610e-002 1.610e-002 1.610e-002 1.610e-002 1.610e-002 1.610e-002 1.610e-002 1.610e-002 1.610e-002 1.610e-002 1.610e-002 1.610e-002 1.610e-002 1.610e-002 1.610e-002 1.610e-002 1.610e-002 1.610e-002 1.610e-002 1.610e-002 1.610e-002 1.610e-002 1.610e-002 1.610e-002 1.610e-002 1.610e-002 1.610e-002 1.610e-002 1.610e-002 1.610e-002 1.610e-002 1.610e-002 1.610e-002 1.610e-002 1.610e-002 1.610e-002 1.610e-002 1.610e-002 1.610e-002 1.610e-002 1.610e-002 1.610e-002 1.610e-002 1.610e-002 1.610e-002 1.610e-002 1.610e-002 1.610e-002 1.610e-002 1.610e-002 1.610e-002 1.610e-002 1.610e-002 1.610e-002 1.610e-002 1.610e-002 1.610e-002 1.610e-002 1.610e-002 1.610e-002 1.610e-002
           </DataArray>
           <DataArray type="Float32" Name="nitrate/minimalNutrientConcentration" NumberOfComponents="1" format="ascii">
 6.000e+002 6.000e+002 6.000e+002 6.000e+002 6.000e+002 6.000e+002 6.000e+002 6.000e+002 6.000e+002 6.000e+002 6.000e+002 6.000e+002 6.000e+002 6.000e+002 6.000e+002 6.000e+002 6.000e+002 6.000e+002 6.000e+002 6.000e+002 6.000e+002 6.000e+002 6.000e+002 6.000e+002 6.000e+002 6.000e+002 6.000e+002 6.000e+002 6.000e+002 6.000e+002 6.000e+002 6.000e+002 6.000e+002 6.000e+002 6.000e+002 6.000e+002 6.000e+002 6.000e+002 6.000e+002 6.000e+002 6.000e+002 6.000e+002 6.000e+002 6.000e+002 6.000e+002 6.000e+002 6.000e+002 6.000e+002 6.000e+002 6.000e+002 6.000e+002 6.000e+002 6.000e+002 6.000e+002 6.000e+002 6.000e+002 6.000e+002 6.000e+002 6.000e+002 6.000e+002 6.000e+002 6.000e+002 6.000e+002 6.000e+002 6.000e+002 6.000e+002 6.000e+002 6.000e+002 6.000e+002 6.000e+002 6.000e+002 6.000e+002 6.000e+002 6.000e+002 6.000e+002 6.000e+002 6.000e+002 6.000e+002 6.000e+002 6.000e+002 6.000e+002 6.000e+002 6.000e+002 6.000e+002 6.000e+002 6.000e+002 6.000e+002 6.000e+002 6.000e+002 6.000e+002 6.000e+002 6.000e+002 6.000e+002 6.000e+002 6.000e+002 6.000e+002 6.000e+002 6.000e+002 6.000e+002 6.000e+002 6.000e+002 6.000e+002 6.000e+002 6.000e+002 6.000e+002 6.000e+002 6.000e+002 6.000e+002 6.000e+002 6.000e+002 6.000e+002 6.000e+002 6.000e+002 6.000e+002 6.000e+002 6.000e+002 6.000e+002 6.000e+002 6.000e+002 6.000e+002 6.000e+002 6.000e+002 6.000e+002 6.000e+002 6.000e+002 6.000e+002 6.000e+002 6.000e+002 6.000e+002 6.000e+002 6.000e+002 6.000e+002 6.000e+002 6.000e+002 6.000e+002 6.000e+002 6.000e+002 6.000e+002 6.000e+002 6.000e+002 6.000e+002 6.000e+002 6.000e+002 6.000e+002 6.000e+002 6.000e+002 6.000e+002 6.000e+002 6.000e+002 6.000e+002 6.000e+002 6.000e+002 6.000e+002 6.000e+002 6.000e+002 6.000e+002 6.000e+002 6.000e+002 6.000e+002 6.000e+002 6.000e+002 6.000e+002 6.000e+002 6.000e+002 6.000e+002 6.000e+002 6.000e+002 6.000e+002 6.000e+002 6.000e+002 6.000e+002 6.000e+002 6.000e+002 6.000e+002 6.000e+002 6.000e+002 6.000e+002 6.000e+002 6.000e+002 6.000e+002 6.000e+002 6.000e+002 6.000e+002 6.000e+002 6.000e+002 6.000e+002 6.000e+002 6.000e+002 6.000e+002 6.000e+002 6.000e+002 6.000e+002 6.000e+002 6.000e+002 6.000e+002 6.000e+002 6.000e+002 6.000e+002 6.000e+002
           </DataArray>
           <DataArray type="Float32" Name="nitrate/optimalNutrientConcentration" NumberOfComponents="1" format="ascii">
 1.200e+003 1.200e+003 1.200e+003 1.200e+003 1.200e+003 1.200e+003 1.200e+003 1.200e+003 1.200e+003 1.200e+003 1.200e+003 1.200e+003 1.200e+003 1.200e+003 1.200e+003 1.200e+003 1.200e+003 1.200e+003 1.200e+003 1.200e+003 1.200e+003 1.200e+003 1.200e+003 1.200e+003 1.200e+003 1.200e+003 1.200e+003 1.200e+003 1.200e+003 1.200e+003 1.200e+003 1.200e+003 1.200e+003 1.200e+003 1.200e+003 1.200e+003 1.200e+003 1.200e+003 1.200e+003 1.200e+003 1.200e+003 1.200e+003 1.200e+003 1.200e+003 1.200e+003 1.200e+003 1.200e+003 1.200e+003 1.200e+003 1.200e+003 1.200e+003 1.200e+003 1.200e+003 1.200e+003 1.200e+003 1.200e+003 1.200e+003 1.200e+003 1.200e+003 1.200e+003 1.200e+003 1.200e+003 1.200e+003 1.200e+003 1.200e+003 1.200e+003 1.200e+003 1.200e+003 1.200e+003 1.200e+003 1.200e+003 1.200e+003 1.200e+003 1.200e+003 1.200e+003 1.200e+003 1.200e+003 1.200e+003 1.200e+003 1.200e+003 1.200e+003 1.200e+003 1.200e+003 1.200e+003 1.200e+003 1.200e+003 1.200e+003 1.200e+003 1.200e+003 1.200e+003 1.200e+003 1.200e+003 1.200e+003 1.200e+003 1.200e+003 1.200e+003 1.200e+003 1.200e+003 1.200e+003 1.200e+003 1.200e+003 1.200e+003 1.200e+003 1.200e+003 1.200e+003 1.200e+003 1.200e+003 1.200e+003 1.200e+003 1.200e+003 1.200e+003 1.200e+003 1.200e+003 1.200e+003 1.200e+003 1.200e+003 1.200e+003 1.200e+003 1.200e+003 1.200e+003 1.200e+003 1.200e+003 1.200e+003 1.200e+003 1.200e+003 1.200e+003 1.200e+003 1.200e+003 1.200e+003 1.200e+003 1.200e+003 1.200e+003 1.200e+003 1.200e+003 1.200e+003 1.200e+003 1.200e+003 1.200e+003 1.200e+003 1.200e+003 1.200e+003 1.200e+003 1.200e+003 1.200e+003 1.200e+003 1.200e+003 1.200e+003 1.200e+003 1.200e+003 1.200e+003 1.200e+003 1.200e+003 1.200e+003 1.200e+003 1.200e+003 1.200e+003 1.200e+003 1.200e+003 1.200e+003 1.200e+003 1.200e+003 1.200e+003 1.200e+003 1.200e+003 1.200e+003 1.200e+003 1.200e+003 1.200e+003 1.200e+003 1.200e+003 1.200e+003 1.200e+003 1.200e+003 1.200e+003 1.200e+003 1.200e+003 1.200e+003 1.200e+003 1.200e+003 1.200e+003 1.200e+003 1.200e+003 1.200e+003 1.200e+003 1.200e+003 1.200e+003 1.200e+003 1.200e+003 1.200e+003 1.200e+003 1.200e+003 1.200e+003 1.200e+003 1.200e+003 1.200e+003 1.200e+003 1.200e+003 1.200e+003 1.200e+003
           </DataArray>
           <DataArray type="Float32" Name="nitrate/rootSegmentMinimalNutrientContent" NumberOfComponents="1" format="ascii">
 1.945e-001 1.502e-001 1.406e-001 1.646e-001 1.230e-001 1.337e-001 1.443e-001 7.615e-002 1.945e-001 1.502e-001 1.406e-001 1.646e-001 1.230e-001 1.337e-001 1.443e-001 7.615e-002 1.945e-001 1.502e-001 1.406e-001 1.646e-001 1.230e-001 1.337e-001 1.443e-001 7.615e-002 1.945e-001 1.502e-001 1.406e-001 1.646e-001 1.230e-001 1.337e-001 1.443e-001 7.615e-002 9.025e-002 9.025e-002 9.025e-002 9.025e-002 7.745e+000 3.818e+000 4.416e+000 4.691e+000 4.653e+000 4.616e+000 4.582e+000 4.548e+000 4.216e+000 3.590e+000 5.354e+000 5.898e+000 3.285e-002 3.489e-002 3.039e-002 3.119e-002 2.181e-002 3.382e-002 3.409e-002 1.022e-002 3.190e-002 3.360e-002 1.007e-002 3.312e-002 3.290e-002 3.397e-002 2.916e-002 3.127e-002 3.391e-002 6.778e-003 2.995e-002 3.056e-002 3.055e-003 3.121e-002 3.330e-002 3.328e-003 3.371e-002 3.388e-002 3.586e-002 2.489e-002 3.114e-002 3.423e-002 3.544e-002 3.130e-002 1.564e-002 3.538e-002 2.120e-002 3.295e-002 2.050e-002 3.155e-002 1.600e-002 3.582e-002 1.069e-002 3.073e-002 2.156e-002 3.420e-002 1.480e-002 3.585e-002 1.611e-002 2.998e-002 1.854e-002 3.109e-002 2.010e-002 3.088e-002 7.815e-003 3.589e-002 3.016e-002 1.206e-002 3.436e-002 9.019e-003 3.078e-002 1.231e-002 3.437e-002 5.936e-003 3.527e-002 3.283e-002 1.012e-002 3.080e-002 2.724e-003 3.548e-002 3.517e-002 3.175e-002 3.530e-002 3.674e-003 3.200e-002 3.347e-002 5.574e-003 2.917e-002 2.993e-002 2.837e-002 2.705e-002 2.221e-002 2.358e-002 2.593e-002 2.649e-002 2.175e-002 1.984e-002 3.121e-002 3.452e-002 2.069e-002 1.991e-002 1.600e-002 1.404e-002 1.575e-002 1.229e-002 1.196e-002 9.314e-003 9.463e-003 8.123e-003 7.351e-003 3.506e-002 3.016e-002 9.041e-003 5.418e-003 3.128e-003 2.820e-003 1.228e-003 3.396e-002 3.033e-002 9.092e-003 3.242e-002 3.304e-002 3.223e-002 3.408e-002 3.339e-002 2.753e-002 9.169e-003 9.287e-003 2.391e-001 2.338e-001 2.288e-001 2.240e-001 2.195e-001 2.151e-001 2.110e-001 2.071e-001 2.033e-001 1.998e-001 1.965e-001 1.934e-001 1.907e-001 1.883e-001 1.862e-001 1.845e-001 1.830e-001 1.815e-001 1.802e-001 1.789e-001 1.777e-001 1.766e-001 1.756e-001 1.746e-001 1.737e-001 1.729e-001 1.722e-001 1.716e-001 1.710e-001 1.705e-001 1.701e-001 1.697e-001 1.695e-001 1.693e-001 1.692e-001
           </DataArray>
           <DataArray type="Float32" Name="nitrate/rootSegmentOptimalNutrientContent" NumberOfComponents="1" format="ascii">
 3.889e-001 3.003e-001 2.812e-001 3.291e-001 2.460e-001 2.673e-001 2.886e-001 1.523e-001 3.889e-001 3.003e-001 2.812e-001 3.291e-001 2.460e-001 2.673e-001 2.886e-001 1.523e-001 3.889e-001 3.003e-001 2.812e-001 3.291e-001 2.460e-001 2.673e-001 2.886e-001 1.523e-001 3.889e-001 3.003e-001 2.812e-001 3.291e-001 2.460e-001 2.673e-001 2.886e-001 1.523e-001 1.805e-001 1.805e-001 1.805e-001 1.805e-001 1.549e+001 7.636e+000 8.831e+000 9.382e+000 9.306e+000 9.233e+000 9.163e+000 9.097e+000 8.432e+000 7.181e+000 1.071e+001 1.180e+001 6.569e-002 6.979e-002 6.078e-002 6.239e-002 4.363e-002 6.764e-002 6.818e-002 2.044e-002 6.381e-002 6.720e-002 2.015e-002 6.624e-002 6.580e-002 6.794e-002 5.831e-002 6.254e-002 6.782e-002 1.356e-002 5.989e-002 6.113e-002 6.110e-003 6.242e-002 6.660e-002 6.657e-003 6.741e-002 6.776e-002 7.172e-002 4.977e-002 6.228e-002 6.846e-002 7.088e-002 6.260e-002 3.128e-002 7.075e-002 4.241e-002 6.590e-002 4.099e-002 6.310e-002 3.200e-002 7.164e-002 2.137e-002 6.145e-002 4.312e-002 6.841e-002 2.960e-002 7.171e-002 3.222e-002 5.997e-002 3.709e-002 6.217e-002 4.021e-002 6.177e-002 1.563e-002 7.178e-002 6.032e-002 2.411e-002 6.873e-002 1.804e-002 6.157e-002 2.462e-002 6.875e-002 1.187e-002 7.054e-002 6.566e-002 2.024e-002 6.160e-002 5.448e-003 7.096e-002 7.033e-002 6.351e-002 7.059e-002 7.348e-003 6.400e-002 6.694e-002 1.115e-002 5.835e-002 5.985e-002 5.675e-002 5.411e-002 4.442e-002 4.717e-002 5.185e-002 5.298e-002 4.351e-002 3.967e-002 6.243e-002 6.904e-002 4.139e-002 3.983e-002 3.200e-002 2.809e-002 3.151e-002 2.457e-002 2.391e-002 1.863e-002 1.893e-002 1.625e-002 1.470e-002 7.011e-002 6.032e-002 1.808e-002 1.084e-002 6.255e-003 5.641e-003 2.457e-003 6.792e-002 6.065e-002 1.818e-002 6.484e-002 6.608e-002 6.446e-002 6.815e-002 6.679e-002 5.506e-002 1.834e-002 1.857e-002 4.781e-001 4.677e-001 4.576e-001 4.481e-001 4.389e-001 4.302e-001 4.220e-001 4.141e-001 4.067e-001 3.996e-001 3.929e-001 3.868e-001 3.814e-001 3.766e-001 3.725e-001 3.690e-001 3.660e-001 3.631e-001 3.604e-001 3.578e-001 3.554e-001 3.532e-001 3.511e-001 3.492e-001 3.474e-001 3.458e-001 3.444e-001 3.431e-001 3.420e-001 3.410e-001 3.402e-001 3.395e-001 3.390e-001 3.386e-001 3.384e-001
           </DataArray>
           <DataArray type="Float32" Name="parentRootClassID" NumberOfComponents="1" format="ascii">