<?xml version="1.0"?>
<VTKFile type="UnstructuredGrid" version="0.1" byte_order="LittleEndian">
   <UnstructuredGrid>
      <Piece NumberOfPoints="200" NumberOfCells="18">
         <Points>
            <DataArray type="Float32" Name="Position" NumberOfComponents="3" format="ascii">
-0.139	-5.006	0.145
-0.028	-5.000	0.199
0.094	-4.995	0.177
0.180	-4.991	0.088
0.198	-4.991	-0.035
0.139	-4.994	-0.145
0.028	-5.000	-0.199
-0.094	-5.005	-0.177
-0.180	-5.009	-0.088
-0.198	-5.009	0.035
-0.183	-4.045	0.138
-0.072	-4.041	0.193
0.050	-4.037	0.172
0.136	-4.035	0.083
0.154	-4.035	-0.039
0.096	-4.037	-0.149
-0.015	-4.041	-0.204
-0.137	-4.045	-0.183
-0.223	-4.048	-0.094
-0.241	-4.048	0.029
-0.195	-3.563	0.136
-0.084	-3.562	0.191
0.038	-3.560	0.171
0.125	-3.558	0.083
0.143	-3.558	-0.040
0.086	-3.559	-0.150
-0.024	-3.561	-0.205
-0.146	-3.563	-0.185
-0.233	-3.564	-0.097
-0.252	-3.564	0.026
-0.201	-3.003	0.136
-0.090	-3.002	0.192
0.032	-3.001	0.172
0.119	-3.000	0.084
0.138	-2.999	-0.039
0.081	-3.000	-0.149
-0.030	-3.001	-0.204
-0.152	-3.002	-0.184
-0.239	-3.003	-0.096
-0.258	-3.003	0.026
-0.205	-2.403	0.138
-0.095	-2.402	0.194
0.027	-2.402	0.174
0.114	-2.401	0.086
0.133	-2.400	-0.037
0.076	-2.400	-0.146
-0.034	-2.400	-0.202
-0.156	-2.401	-0.182
-0.243	-2.402	-0.094
-0.262	-2.403	0.028
-0.208	-1.803	0.142
-0.098	-1.802	0.198
0.024	-1.802	0.178
0.111	-1.801	0.090
0.130	-1.800	-0.033
0.073	-1.800	-0.143
-0.037	-1.800	-0.198
-0.160	-1.801	-0.178
-0.246	-1.802	-0.090
-0.265	-1.803	0.032
-0.213	-1.202	0.143
-0.102	-1.202	0.199
0.020	-1.201	0.179
0.107	-1.201	0.092
0.126	-1.200	-0.031
0.069	-1.200	-0.141
-0.041	-1.201	-0.196
-0.163	-1.201	-0.176
-0.250	-1.202	-0.089
-0.269	-1.202	0.033
-0.215	-0.602	0.144
-0.105	-0.602	0.200
0.017	-0.601	0.180
0.104	-0.601	0.093
0.123	-0.601	-0.029
0.067	-0.600	-0.139
-0.043	-0.601	-0.195
-0.165	-0.601	-0.175
-0.253	-0.602	-0.088
-0.272	-0.602	0.034
-0.217	-0.002	0.146
-0.107	-0.002	0.202
0.015	-0.002	0.182
0.103	-0.001	0.095
0.122	-0.001	-0.027
0.065	-0.000	-0.137
-0.045	-0.001	-0.193
-0.167	-0.001	-0.173
-0.254	-0.002	-0.086
-0.273	-0.002	0.036
0.033	-5.002	-0.031
0.045	-5.001	-0.006
0.040	-5.000	0.022
0.019	-4.998	0.041
-0.008	-4.998	0.045
-0.033	-4.998	0.031
-0.045	-4.999	0.006
-0.040	-5.000	-0.022
-0.019	-5.002	-0.041
0.008	-5.002	-0.045
0.026	-5.473	-0.009
0.038	-5.471	0.016
0.033	-5.470	0.043
0.013	-5.468	0.063
-0.015	-5.468	0.066
-0.040	-5.469	0.053
-0.052	-5.470	0.027
-0.047	-5.472	-0.000
-0.026	-5.473	-0.019
0.002	-5.474	-0.023
0.028	-5.943	0.025
0.041	-5.940	0.051
0.035	-5.938	0.078
0.015	-5.937	0.097
-0.013	-5.938	0.101
-0.037	-5.939	0.088
-0.049	-5.942	0.063
-0.044	-5.944	0.035
-0.024	-5.945	0.016
0.004	-5.944	0.012
0.050	-6.411	0.066
0.062	-6.409	0.091
0.058	-6.407	0.119
0.038	-6.407	0.138
0.010	-6.408	0.142
-0.015	-6.409	0.129
-0.027	-6.411	0.105
-0.023	-6.413	0.077
-0.003	-6.413	0.057
0.025	-6.412	0.053
0.063	-6.882	0.081
0.075	-6.881	0.106
0.070	-6.879	0.133
0.050	-6.879	0.153
0.022	-6.879	0.156
-0.002	-6.880	0.143
-0.014	-6.881	0.118
-0.010	-6.883	0.091
0.011	-6.883	0.071
0.038	-6.883	0.068
0.061	-7.353	0.116
0.073	-7.351	0.141
0.068	-7.350	0.168
0.048	-7.349	0.187
0.020	-7.349	0.191
-0.004	-7.350	0.178
-0.016	-7.351	0.153
-0.011	-7.352	0.125
0.009	-7.353	0.106
0.036	-7.354	0.102
0.066	-7.822	0.131
0.078	-7.821	0.156
0.074	-7.820	0.183
0.054	-7.820	0.203
0.027	-7.821	0.207
0.002	-7.822	0.195
-0.011	-7.824	0.170
-0.006	-7.825	0.143
0.013	-7.824	0.123
0.041	-7.824	0.118
0.097	-8.290	0.148
0.110	-8.289	0.172
0.107	-8.289	0.200
0.088	-8.290	0.220
0.060	-8.292	0.225
0.035	-8.294	0.213
0.022	-8.295	0.188
0.026	-8.296	0.161
0.045	-8.294	0.141
0.072	-8.293	0.136
0.133	-8.760	0.146
0.147	-8.758	0.170
0.144	-8.759	0.198
0.125	-8.760	0.218
0.097	-8.762	0.223
0.072	-8.765	0.212
0.059	-8.766	0.187
0.062	-8.766	0.160
0.081	-8.764	0.139
0.108	-8.762	0.134
0.178	-9.227	0.153
0.192	-9.226	0.177
0.189	-9.227	0.205
0.171	-9.229	0.225
0.144	-9.233	0.231
0.119	-9.235	0.220
0.105	-9.236	0.196
0.107	-9.236	0.168
0.126	-9.233	0.148
0.153	-9.230	0.142
0.238	-9.693	0.128
0.253	-9.692	0.152
0.251	-9.694	0.179
0.233	-9.697	0.200
0.206	-9.701	0.207
0.181	-9.704	0.196
0.166	-9.704	0.173
0.168	-9.703	0.145
0.186	-9.699	0.124
0.213	-9.695	0.117
		    </DataArray>
         </Points>
         <Cells>
            <DataArray type="Int32" Name="connectivity" NumberOfComponents="1" format="ascii">
 0 10 1 11 2 12 3 13 4 14 5 15 6 16 7 17 8 18 9 19 0 10
 10 20 11 21 12 22 13 23 14 24 15 25 16 26 17 27 18 28 19 29 10 20
 20 30 21 31 22 32 23 33 24 34 25 35 26 36 27 37 28 38 29 39 20 30
 30 40 31 41 32 42 33 43 34 44 35 45 36 46 37 47 38 48 39 49 30 40
 40 50 41 51 42 52 43 53 44 54 45 55 46 56 47 57 48 58 49 59 40 50
 50 60 51 61 52 62 53 63 54 64 55 65 56 66 57 67 58 68 59 69 50 60
 60 70 61 71 62 72 63 73 64 74 65 75 66 76 67 77 68 78 69 79 60 70
 70 80 71 81 72 82 73 83 74 84 75 85 76 86 77 87 78 88 79 89 70 80
 90 100 91 101 92 102 93 103 94 104 95 105 96 106 97 107 98 108 99 109 90 100
 100 110 101 111 102 112 103 113 104 114 105 115 106 116 107 117 108 118 109 119 100 110
 110 120 111 121 112 122 113 123 114 124 115 125 116 126 117 127 118 128 119 129 110 120
 120 130 121 131 122 132 123 133 124 134 125 135 126 136 127 137 128 138 129 139 120 130
 130 140 131 141 132 142 133 143 134 144 135 145 136 146 137 147 138 148 139 149 130 140
 140 150 141 151 142 152 143 153 144 154 145 155 146 156 147 157 148 158 149 159 140 150
 150 160 151 161 152 162 153 163 154 164 155 165 156 166 157 167 158 168 159 169 150 160
 160 170 161 171 162 172 163 173 164 174 165 175 166 176 167 177 168 178 169 179 160 170
 170 180 171 181 172 182 173 183 174 184 175 185 176 186 177 187 178 188 179 189 170 180
 180 190 181 191 182 192 183 193 184 194 185 195 186 196 187 197 188 198 189 199 180 190

            </DataArray>
            <DataArray type="Int32" Name="offsets" NumberOfComponents="1" format="ascii">
 22 44 66 88 110 132 154 176 198 220 242 264 286 308 330 352 374 396
            </DataArray>
            <DataArray type="UInt8"  Name="types" NumberOfComponents="1" format="ascii">
6 6 6 6 6 6 6 6 6 6 6 6 6 6 6 6 6 6
            </DataArray>
         </Cells>
         <CellData>
           <DataArray type="Float32" Name="combinedRootClassID" NumberOfComponents="1" format="ascii">
 -2.000e+000 -2.000e+000 -2.000e+000 -2.000e+000 -2.000e+000 -2.000e+000 -2.000e+000 -2.000e+000 -4.000e+000 -4.000e+000 -4.000e+000 -4.000e+000 -4.000e+000 -4.000e+000 -4.000e+000 -4.000e+000 -4.000e+000 -4.000e+000
           </DataArray>
           <DataArray type="Float32" Name="nitrate/Cmin" NumberOfComponents="1" format="ascii">
 1.000e-003 1.000e-003 1.000e-003 1.000e-003 1.000e-003 1.000e-003 1.000e-003 1.000e-003 1.000e-003 1.000e-003 1.000e-003 1.000e-003 1.000e-003 1.000e-003 1.000e-003 1.000e-003 1.000e-003 1.000e-003
           </DataArray>
           <DataArray type="Float32" Name="nitrate/Imax" NumberOfComponents="1" format="ascii">
 1.900e+000 1.900e+000 1.900e+000 1.900e+000 1.900e+000 1.900e+000 1.900e+000 1.900e+000 1.900e+000 1.900e+000 1.900e+000 1.900e+000 1.900e+000 1.900e+000 1.900e+000 1.900e+000 1.900e+000 1.900e+000
           </DataArray>
           <DataArray type="Float32" Name="nitrate/Km" NumberOfComponents="1" format="ascii">
 1.610e-002 1.610e-002 1.610e-002 1.610e-002 1.610e-002 1.610e-002 1.610e-002 1.610e-002 1.610e-002 1.610e-002 1.610e-002 1.610e-002 1.610e-002 1.610e-002 1.610e-002 1.610e-002 1.610e-002 1.610e-002
           </DataArray>
           <DataArray type="Float32" Name="nitrate/minimalNutrientConcentration" NumberOfComponents="1" format="ascii">
 6.000e+002 6.000e+002 6.000e+002 6.000e+002 6.000e+002 6.000e+002 6.000e+002 6.000e+002 6.000e+002 6.000e+002 6.000e+002 6.000e+002 6.000e+002 6.000e+002 6.000e+002 6.000e+002 6.000e+002 6.000e+002
           </DataArray>
           <DataArray type="Float32" Name="nitrate/optimalNutrientConcentration" NumberOfComponents="1" format="ascii">
 1.200e+003 1.200e+003 1.200e+003 1.200e+003 1.200e+003 1.200e+003 1.200e+003 1.200e+003 1.200e+003 1.200e+003 1.200e+003 1.200e+003 1.200e+003 1.200e+003 1.200e+003 1.200e+003 1.200e+003 1.200e+003
           </DataArray>
           <DataArray type="Float32" Name="nitrate/rootSegmentMinimalNutrientContent" NumberOfComponents="1" format="ascii">
 6.864e+000 3.417e+000 3.981e+000 4.262e+000 4.258e+000 4.256e+000 4.254e+000 4.253e+000 1.729e-001 1.722e-001 1.716e-001 1.710e-001 1.705e-001 1.701e-001 1.697e-001 1.695e-001 1.693e-001 1.692e-001
           </DataArray>
           <DataArray type="Float32" Name="nitrate/rootSegmentOptimalNutrientContent" NumberOfComponents="1" format="ascii">
 1.373e+001 6.833e+000 7.963e+000 8.524e+000 8.517e+000 8.512e+000 8.508e+000 8.506e+000 3.458e-001 3.444e-001 3.431e-001 3.420e-001 3.410e-001 3.402e-001 3.395e-001 3.390e-001 3.386e-001 3.384e-001
           </DataArray>
           <DataArray type="Float32" Name="parentRootClassID" NumberOfComponents="1" format="ascii">
 -3.000e+000 -3.000e+000 -3.000e+000 -3.000e+000 -3.000e+000 -3.000e+000 -3.000e+000 -3.000e+000 -3.000e+000 -3.000e+000 -3.000e+000 -3.000e+000 -3.000e+000 -3.000e+000 -3.000e+000 -3.000e+000 -3.000e+000 -3.000e+000
           </DataArray>
           <DataArray type="Float32" Name="plantID" NumberOfComponents="1" format="ascii">
 3.000e+000 3.000e+000 3.000e+000 3.000e+000 3.000e+000 3.000e+000 3.000e+000 3.000e+000 3.000e+000 3.000e+000 3.000e+000 3.000e+000 3.000e+000 3.000e+000 3.000e+000 3.000e+000 3.000e+000 3.000e+000
           </DataArray>
           <DataArray type="Float32" Name="plantTypeID" NumberOfComponents="1" format="ascii">
 0.000e+000 0.000e+000 0.000e+000 0.000e+000 0.000e+000 0.000e+000 0.000e+000 0.000e+000 0.000e+000 0.000e+000 0.000e+000 0.000e+000 0.000e+000 0.000e+000 0.000e+000 0.000e+000 0.000e+000 0.000e+000
           </DataArray>
           <DataArray type="Float32" Name="rootCircumference" NumberOfComponents="1" format="ascii">
 1.262e+000 1.259e+000 1.259e+000 1.258e+000 1.258e+000 1.257e+000 1.257e+000 1.257e+000 2.859e-001 2.853e-001 2.848e-001 2.843e-001 2.839e-001 2.835e-001 2.832e-001 2.830e-001 2.829e-001 2.828e-001
           </DataArray>
           <DataArray type="Float32" Name="rootClassID" NumberOfComponents="1" format="ascii">
 -2.000e+000 -2.000e+000 -2.000e+000 -2.000e+000 -2.000e+000 -2.000e+000 -2.000e+000 -2.000e+000 -4.000e+000 -4.000e+000 -4.000e+000 -4.000e+000 -4.000e+000 -4.000e+000 -4.000e+000 -4.000e+000 -4.000e+000 -4.000e+000
           </DataArray>
           <DataArray type="Float32" Name="rootDiameter" NumberOfComponents="1" format="ascii">
 4.018e-001 4.009e-001 4.006e-001 4.004e-001 4.003e-001 4.002e-001 4.001e-001 4.000e-001 9.100e-002 9.081e-002 9.064e-002 9.049e-002 9.036e-002 9.025e-002 9.016e-002 9.009e-002 9.004e-002 9.001e-002
           </DataArray>
           <DataArray type="Float32" Name="rootLength2Base" NumberOfComponents="1" format="ascii">
 0.000e+000 9.600e-001 1.440e+000 2.000e+000 2.600e+000 3.200e+000 3.800e+000 4.400e+000 0.000e+000 4.714e-001 9.428e-001 1.414e+000 1.886e+000 2.357e+000 2.828e+000 3.300e+000 3.771e+000 4.243e+000
           </DataArray>
           <DataArray type="Float32" Name="rootPotentialSecondaryGrowth" NumberOfComponents="1" format="ascii">
 4.018e-001 4.009e-001 4.006e-001 4.004e-001 4.003e-001 4.002e-001 4.001e-001 4.000e-001 9.100e-002 9.081e-002 9.064e-002 9.049e-002 9.036e-002 9.025e-002 9.016e-002 9.009e-002 9.004e-002 9.001e-002
           </DataArray>
           <DataArray type="Float32" Name="rootSegmentAge" NumberOfComponents="1" format="ascii">
 2.000e+000 1.400e+000 1.200e+000 1.000e+000 8.000e-001 6.000e-001 4.000e-001 2.000e-001 2.000e+000 1.800e+000 1.600e+000 1.400e+000 1.200e+000 1.000e+000 8.000e-001 6.000e-001 4.000e-001 2.000e-001
           </DataArray>
           <DataArray type="Float32" Name="rootSegmentDryWeight" NumberOfComponents="1" format="ascii">
 1.144e-002 5.694e-003 6.636e-003 7.103e-003 7.097e-003 7.093e-003 7.090e-003 7.088e-003 2.882e-004 2.870e-004 2.859e-004 2.850e-004 2.842e-004 2.835e-004 2.829e-004 2.825e-004 2.821e-004 2.820e-004
           </DataArray>
           <DataArray type="Float32" Name="rootSegmentLength" NumberOfComponents="1" format="ascii">
 9.600e-001 4.800e-001 5.600e-001 6.000e-001 6.000e-001 6.000e-001 6.000e-001 6.000e-001 4.714e-001 4.714e-001 4.714e-001 4.714e-001 4.714e-001 4.714e-001 4.714e-001 4.714e-001 4.714e-001 4.714e-001
           </DataArray>
           <DataArray type="Float32" Name="rootSegmentLengthDuration" NumberOfComponents="1" format="ascii">
 1.600e+000 6.240e-001 6.160e-001 5.400e-001 4.200e-001 3.000e-001 1.800e-001 6.000e-002 8.957e-001 8.014e-001 7.071e-001 6.128e-001 5.185e-001 4.243e-001 3.300e-001 2.357e-001 1.414e-001 4.714e-002
           </DataArray>
           <DataArray type="Float32" Name="rootSegmentSurfaceArea" NumberOfComponents="1" format="ascii">
 1.212e+000 6.045e-001 7.048e-001 7.548e-001 7.545e-001 7.543e-001 7.541e-001 7.540e-001 1.348e-001 1.345e-001 1.342e-001 1.340e-001 1.338e-001 1.337e-001 1.335e-001 1.334e-001 1.333e-001 1.333e-001
           </DataArray>
           <DataArray type="Float32" Name="rootSegmentVolume" NumberOfComponents="1" format="ascii">
 1.217e-001 6.058e-002 7.059e-002 7.556e-002 7.550e-002 7.546e-002 7.542e-002 7.540e-002 3.066e-003 3.053e-003 3.042e-003 3.032e-003 3.023e-003 3.016e-003 3.010e-003 3.005e-003 3.002e-003 3.000e-003
           </DataArray>
           <DataArray type="Float32" Name="spatialRootDensity" NumberOfComponents="1" format="ascii">
 3.376e-001 1.125e-001 0.000e+000 0.000e+000 0.000e+000 0.000e+000 0.000e+000 0.000e+000 3.438e-001 2.292e-001 2.292e-001 0.000e+000 0.000e+000 0.000e+000 0.000e+000 0.000e+000 0.000e+000 0.000e+000
           </DataArray>
         </CellData>
      </Piece>
   </UnstructuredGrid>
</VTKFile>
