<?xml version="1.0"?>
<VTKFile type="UnstructuredGrid" version="0.1" byte_order="LittleEndian">
   <UnstructuredGrid>
      <Piece NumberOfPoints="46090" NumberOfCells="3335">
         <Points>
            <DataArray type="Float32" Name="Position" NumberOfComponents="3" format="ascii">
-0.149	-5.022	-0.015
-0.150	-5.013	-0.012
-0.149	-5.004	-0.015
-0.148	-4.998	-0.022
-0.146	-4.998	-0.031
-0.144	-5.004	-0.039
-0.143	-5.012	-0.042
-0.143	-5.021	-0.039
-0.145	-5.027	-0.032
-0.147	-5.027	-0.023
-1.016	-5.044	-0.229
-1.017	-5.035	-0.226
-1.017	-5.027	-0.229
-1.015	-5.021	-0.236
-1.012	-5.022	-0.245
-1.010	-5.027	-0.252
-1.009	-5.036	-0.255
-1.009	-5.045	-0.252
-1.011	-5.050	-0.244
-1.014	-5.050	-0.236
-1.798	-5.062	-0.503
-1.799	-5.053	-0.501
-1.798	-5.045	-0.505
-1.795	-5.040	-0.513
-1.791	-5.042	-0.521
-1.788	-5.048	-0.527
-1.787	-5.057	-0.528
-1.788	-5.066	-0.524
-1.791	-5.070	-0.517
-1.795	-5.069	-0.509
-2.546	-5.135	-0.924
-2.548	-5.126	-0.923
-2.546	-5.118	-0.928
-2.542	-5.114	-0.935
-2.537	-5.116	-0.943
-2.534	-5.123	-0.948
-2.533	-5.132	-0.949
-2.534	-5.140	-0.944
-2.538	-5.144	-0.937
-2.543	-5.142	-0.929
-0.290	-5.060	-0.042
-0.291	-5.052	-0.038
-0.291	-5.042	-0.040
-0.290	-5.036	-0.047
-0.290	-5.035	-0.056
-0.289	-5.039	-0.064
-0.288	-5.048	-0.068
-0.288	-5.057	-0.066
-0.288	-5.063	-0.059
-0.289	-5.064	-0.050
-1.139	-5.097	-0.125
-1.140	-5.089	-0.121
-1.140	-5.080	-0.122
-1.140	-5.073	-0.129
-1.139	-5.072	-0.138
-1.138	-5.076	-0.146
-1.138	-5.085	-0.150
-1.137	-5.094	-0.149
-1.138	-5.100	-0.142
-1.138	-5.101	-0.133
-1.995	-5.131	-0.174
-1.996	-5.123	-0.169
-1.997	-5.114	-0.171
-1.997	-5.108	-0.177
-1.996	-5.106	-0.187
-1.996	-5.110	-0.195
-1.995	-5.118	-0.199
-1.994	-5.127	-0.198
-1.994	-5.134	-0.191
-1.994	-5.136	-0.182
-2.853	-5.233	-0.241
-2.855	-5.225	-0.236
-2.857	-5.216	-0.237
-2.858	-5.209	-0.243
-2.857	-5.207	-0.252
-2.856	-5.210	-0.260
-2.854	-5.218	-0.265
-2.852	-5.227	-0.264
-2.851	-5.234	-0.258
-2.851	-5.236	-0.249
-2.940	-5.260	-0.252
-2.943	-5.253	-0.247
-2.946	-5.244	-0.248
-2.947	-5.237	-0.253
-2.947	-5.234	-0.262
-2.945	-5.237	-0.271
-2.942	-5.244	-0.276
-2.940	-5.253	-0.275
-2.938	-5.260	-0.270
-2.938	-5.263	-0.261
-1.409	-5.754	-0.230
-1.404	-5.753	-0.222
-1.405	-5.753	-0.213
-1.410	-5.755	-0.205
-1.419	-5.757	-0.203
-1.427	-5.760	-0.206
-1.432	-5.762	-0.214
-1.432	-5.761	-0.223
-1.426	-5.760	-0.230
-1.418	-5.757	-0.233
-1.159	-6.524	-0.229
-1.154	-6.522	-0.222
-1.155	-6.522	-0.212
-1.161	-6.524	-0.205
-1.169	-6.526	-0.203
-1.178	-6.528	-0.206
-1.182	-6.530	-0.214
-1.182	-6.530	-0.224
-1.176	-6.529	-0.231
-1.167	-6.526	-0.233
-0.967	-7.339	-0.163
-0.962	-7.337	-0.155
-0.963	-7.337	-0.146
-0.969	-7.338	-0.139
-0.977	-7.341	-0.136
-0.985	-7.343	-0.140
-0.990	-7.345	-0.148
-0.989	-7.345	-0.157
-0.984	-7.344	-0.164
-0.975	-7.341	-0.166
-0.653	-8.117	-0.156
-0.648	-8.114	-0.148
-0.648	-8.114	-0.139
-0.654	-8.116	-0.131
-0.662	-8.120	-0.129
-0.670	-8.123	-0.132
-0.675	-8.125	-0.140
-0.674	-8.125	-0.149
-0.669	-8.123	-0.156
-0.661	-8.120	-0.159
-0.329	-8.913	-0.136
-0.324	-8.911	-0.129
-0.325	-8.911	-0.120
-0.330	-8.913	-0.112
-0.338	-8.916	-0.110
-0.346	-8.919	-0.113
-0.351	-8.922	-0.120
-0.351	-8.922	-0.130
-0.345	-8.920	-0.137
-0.337	-8.916	-0.140
-7.669	-17.488	-0.781
-7.670	-17.479	-0.778
-7.670	-17.470	-0.781
-7.668	-17.464	-0.788
-7.666	-17.464	-0.797
-7.664	-17.469	-0.804
-7.663	-17.478	-0.807
-7.663	-17.487	-0.805
-7.665	-17.493	-0.797
-7.667	-17.493	-0.788
-8.538	-17.525	-0.999
-8.539	-17.517	-0.996
-8.539	-17.508	-0.999
-8.537	-17.502	-1.006
-8.535	-17.502	-1.015
-8.533	-17.507	-1.022
-8.532	-17.516	-1.025
-8.532	-17.525	-1.022
-8.534	-17.531	-1.015
-8.536	-17.531	-1.006
-8.831	-17.533	-1.077
-8.832	-17.524	-1.074
-8.832	-17.516	-1.077
-8.830	-17.510	-1.084
-8.827	-17.510	-1.093
-8.825	-17.515	-1.100
-8.824	-17.524	-1.103
-8.825	-17.533	-1.100
-8.827	-17.539	-1.093
-8.829	-17.539	-1.084
-7.708	-17.633	-0.788
-7.709	-17.624	-0.784
-7.709	-17.615	-0.786
-7.708	-17.609	-0.793
-7.706	-17.609	-0.803
-7.705	-17.613	-0.810
-7.704	-17.622	-0.814
-7.704	-17.631	-0.811
-7.705	-17.637	-0.804
-7.706	-17.638	-0.795
-8.560	-17.653	-0.935
-8.552	-17.653	-0.931
-8.543	-17.653	-0.932
-8.536	-17.653	-0.939
-8.535	-17.653	-0.948
-8.539	-17.653	-0.956
-8.547	-17.653	-0.961
-8.557	-17.653	-0.959
-8.563	-17.653	-0.953
-8.565	-17.653	-0.943
-7.755	-17.756	-0.808
-7.746	-17.753	-0.809
-7.737	-17.756	-0.809
-7.732	-17.763	-0.807
-7.731	-17.772	-0.805
-7.737	-17.779	-0.803
-7.745	-17.782	-0.801
-7.754	-17.779	-0.801
-7.760	-17.772	-0.803
-7.760	-17.763	-0.806
-7.800	-17.958	-1.549
-7.791	-17.955	-1.550
-7.782	-17.958	-1.550
-7.777	-17.965	-1.548
-7.777	-17.974	-1.546
-7.782	-17.981	-1.543
-7.791	-17.984	-1.542
-7.799	-17.981	-1.542
-7.805	-17.974	-1.544
-7.805	-17.965	-1.546
-7.771	-17.923	-0.810
-7.768	-17.915	-0.807
-7.770	-17.907	-0.804
-7.777	-17.900	-0.803
-7.786	-17.899	-0.805
-7.793	-17.903	-0.808
-7.797	-17.911	-0.812
-7.795	-17.920	-0.814
-7.788	-17.926	-0.815
-7.779	-17.927	-0.813
-7.951	-18.214	-0.008
-7.947	-18.206	-0.004
-7.950	-18.198	-0.001
-7.956	-18.191	-0.001
-7.965	-18.190	-0.003
-7.973	-18.194	-0.006
-7.976	-18.201	-0.010
-7.974	-18.210	-0.013
-7.967	-18.216	-0.014
-7.959	-18.218	-0.012
-7.970	-18.238	0.048
-7.967	-18.231	0.053
-7.969	-18.222	0.055
-7.976	-18.216	0.056
-7.984	-18.214	0.054
-7.992	-18.218	0.050
-7.995	-18.225	0.045
-7.993	-18.234	0.042
-7.986	-18.240	0.042
-7.978	-18.242	0.044
-7.818	-18.069	-0.802
-7.819	-18.061	-0.798
-7.819	-18.052	-0.799
-7.819	-18.045	-0.806
-7.818	-18.044	-0.815
-7.818	-18.048	-0.823
-7.817	-18.057	-0.827
-7.817	-18.066	-0.826
-7.817	-18.072	-0.819
-7.818	-18.074	-0.810
-8.668	-18.093	-0.839
-8.668	-18.084	-0.835
-8.668	-18.075	-0.836
-8.669	-18.069	-0.842
-8.668	-18.067	-0.852
-8.668	-18.071	-0.860
-8.668	-18.080	-0.864
-8.668	-18.089	-0.863
-8.668	-18.095	-0.856
-8.668	-18.097	-0.847
-8.732	-18.094	-0.837
-8.732	-18.086	-0.833
-8.732	-18.076	-0.834
-8.732	-18.070	-0.841
-8.732	-18.068	-0.850
-8.733	-18.072	-0.858
-8.733	-18.080	-0.863
-8.732	-18.089	-0.861
-8.732	-18.096	-0.855
-8.732	-18.098	-0.846
-7.843	-18.215	-0.816
-7.839	-18.207	-0.813
-7.841	-18.198	-0.811
-7.848	-18.192	-0.811
-7.856	-18.190	-0.813
-7.864	-18.194	-0.816
-7.868	-18.202	-0.819
-7.867	-18.211	-0.820
-7.860	-18.217	-0.820
-7.851	-18.219	-0.819
-7.988	-18.368	-0.211
-7.985	-18.360	-0.208
-7.986	-18.351	-0.207
-7.993	-18.344	-0.206
-8.002	-18.343	-0.208
-8.010	-18.347	-0.211
-8.014	-18.355	-0.214
-8.012	-18.364	-0.216
-8.005	-18.370	-0.216
-7.996	-18.372	-0.214
-7.879	-18.361	-0.819
-7.875	-18.353	-0.815
-7.877	-18.344	-0.813
-7.883	-18.337	-0.813
-7.892	-18.336	-0.816
-7.900	-18.339	-0.819
-7.904	-18.347	-0.823
-7.902	-18.356	-0.825
-7.896	-18.363	-0.825
-7.887	-18.364	-0.822
-8.137	-18.599	-0.016
-8.133	-18.591	-0.013
-8.135	-18.582	-0.011
-8.141	-18.576	-0.011
-8.150	-18.574	-0.013
-8.158	-18.577	-0.017
-8.161	-18.585	-0.020
-8.160	-18.594	-0.022
-8.153	-18.601	-0.022
-8.144	-18.602	-0.020
-7.928	-18.505	-0.811
-7.929	-18.496	-0.808
-7.929	-18.487	-0.810
-7.927	-18.481	-0.818
-7.925	-18.481	-0.827
-7.923	-18.487	-0.834
-7.922	-18.495	-0.837
-7.922	-18.504	-0.834
-7.923	-18.510	-0.827
-7.926	-18.510	-0.818
-8.763	-18.545	-1.025
-8.764	-18.536	-1.022
-8.764	-18.528	-1.025
-8.763	-18.522	-1.032
-8.760	-18.522	-1.041
-8.758	-18.527	-1.048
-8.757	-18.536	-1.051
-8.757	-18.545	-1.049
-8.759	-18.550	-1.041
-8.761	-18.550	-1.032
-7.969	-18.630	-0.830
-7.960	-18.627	-0.830
-7.951	-18.630	-0.829
-7.946	-18.637	-0.827
-7.946	-18.646	-0.825
-7.952	-18.653	-0.824
-7.961	-18.656	-0.824
-7.969	-18.653	-0.825
-7.975	-18.646	-0.828
-7.974	-18.637	-0.829
-7.888	-18.798	-1.627
-7.880	-18.795	-1.627
-7.871	-18.798	-1.625
-7.866	-18.806	-1.623
-7.866	-18.815	-1.621
-7.871	-18.822	-1.620
-7.880	-18.825	-1.621
-7.889	-18.822	-1.622
-7.894	-18.815	-1.624
-7.894	-18.806	-1.626
-7.990	-18.780	-0.846
-7.987	-18.776	-0.838
-7.987	-18.775	-0.829
-7.990	-18.780	-0.821
-7.995	-18.787	-0.818
-8.000	-18.794	-0.821
-8.003	-18.799	-0.829
-8.003	-18.799	-0.838
-7.999	-18.795	-0.845
-7.994	-18.788	-0.848
-7.323	-19.240	-0.824
-7.319	-19.240	-0.815
-7.321	-19.240	-0.806
-7.327	-19.240	-0.800
-7.336	-19.240	-0.798
-7.345	-19.240	-0.802
-7.349	-19.240	-0.811
-7.347	-19.240	-0.820
-7.341	-19.240	-0.826
-7.332	-19.240	-0.828
-1.524	-5.849	-0.249
-1.519	-5.847	-0.242
-1.519	-5.848	-0.232
-1.524	-5.850	-0.225
-1.532	-5.853	-0.222
-1.540	-5.857	-0.225
-1.545	-5.858	-0.233
-1.545	-5.858	-0.242
-1.540	-5.856	-0.249
-1.532	-5.852	-0.252
-1.195	-6.657	-0.277
-1.189	-6.655	-0.270
-1.189	-6.657	-0.261
-1.193	-6.660	-0.253
-1.200	-6.664	-0.250
-1.209	-6.668	-0.253
-1.214	-6.669	-0.260
-1.215	-6.668	-0.269
-1.211	-6.664	-0.276
-1.203	-6.660	-0.280
-0.829	-7.329	-0.499
-0.823	-7.328	-0.493
-0.821	-7.330	-0.484
-0.824	-7.334	-0.476
-0.832	-7.339	-0.473
-0.840	-7.342	-0.475
-0.846	-7.342	-0.482
-0.848	-7.340	-0.491
-0.845	-7.336	-0.498
-0.837	-7.332	-0.502
-0.576	-8.043	-0.750
-0.569	-8.043	-0.744
-0.567	-8.046	-0.735
-0.571	-8.050	-0.728
-0.578	-8.054	-0.724
-0.587	-8.056	-0.726
-0.594	-8.055	-0.732
-0.596	-8.052	-0.741
-0.593	-8.048	-0.748
-0.585	-8.045	-0.752
-0.438	-8.661	-1.033
-0.431	-8.662	-1.027
-0.428	-8.665	-1.019
-0.432	-8.669	-1.011
-0.439	-8.673	-1.007
-0.448	-8.674	-1.009
-0.455	-8.673	-1.014
-0.458	-8.670	-1.023
-0.454	-8.666	-1.030
-0.447	-8.662	-1.034
-8.024	-18.926	-0.852
-8.022	-18.921	-0.844
-8.023	-18.920	-0.835
-8.026	-18.924	-0.828
-8.030	-18.932	-0.825
-8.034	-18.940	-0.827
-8.036	-18.946	-0.835
-8.035	-18.946	-0.844
-8.032	-18.942	-0.851
-8.028	-18.934	-0.854
-7.454	-19.210	-0.779
-7.452	-19.205	-0.772
-7.453	-19.204	-0.763
-7.456	-19.209	-0.755
-7.460	-19.216	-0.752
-7.464	-19.224	-0.755
-7.465	-19.230	-0.762
-7.465	-19.230	-0.771
-7.461	-19.226	-0.779
-7.457	-19.218	-0.782
-8.057	-19.073	-0.858
-8.056	-19.067	-0.851
-8.057	-19.066	-0.842
-8.061	-19.070	-0.834
-8.066	-19.077	-0.831
-8.070	-19.085	-0.834
-8.071	-19.091	-0.841
-8.070	-19.092	-0.850
-8.066	-19.088	-0.857
-8.061	-19.081	-0.861
[...]
         <CellData>
           <DataArray type="Float32" Name="combinedRootClassID" NumberOfComponents="1" format="ascii">
 -1.300e+001 -1.300e+001 -1.300e+001 -1.300e+001 -1.300e+001 -1.300e+001 -1.300e+001 -1.300e+001 -1.300e+001 -1.300e+001 -1.300e+001 -1.300e+001 -1.300e+001 -1.300e+001 -1.300e+001 -1.300e+001 -1.300e+001 -1.300e+001 -1.300e+001 -1.300e+001 -1.300e+001 -1.300e+001 -1.300e+001 -1.300e+001 -1.300e+001 -1.300e+001 -1.300e+001 -1.300e+001 -1.300e+001 -1.300e+001 -1.300e+001 -1.300e+001 -1.300e+001 -1.300e+001 -1.300e+001 -1.300e+001 -1.300e+001 -1.300e+001 -1.300e+001 -1.300e+001 -1.300e+001 -1.300e+001 -1.300e+001 -1.300e+001 -1.300e+001 -1.300e+001 -1.300e+001 -1.300e+001 -1.300e+001 -1.300e+001 -1.300e+001 -1.300e+001 -1.300e+001 -1.300e+001 -1.300e+001 -1.300e+001 -1.300e+001 -1.300e+001 -1.300e+001 -1.300e+001 -1.300e+001 -1.300e+001 -1.300e+001 -1.300e+001 -1.300e+001 -1.300e+001 -1.300e+001 -1.300e+001 -1.300e+001 -1.300e+001 -1.300e+001 -1.300e+001 -1.300e+001 -1.300e+001 -1.300e+001 -1.300e+001 -1.300e+001 -1.300e+001 -1.300e+001 -1.300e+001 -1.300e+001 -1.300e+001 -1.300e+001 -1.300e+001 -1.300e+001 -1.300e+001 -1.300e+001 -1.300e+001 -1.300e+001 -1.300e+001 -1.300e+001 -1.300e+001 -1.300e+001 -1.300e+001 -1.300e+001 -1.300e+001 -1.300e+001 -1.300e+001 -1.300e+001 -1.300e+001 -1.300e+001 -1.300e+001 -1.300e+001 -1.300e+001 -1.300e+001 -1.300e+001 -1.300e+001 -1.300e+001 -1.300e+001 -1.300e+001 -1.300e+001 -1.300e+001 -1.300e+001 -1.300e+001 -1.300e+001 -1.300e+001 -1.300e+001 -1.300e+001 -1.300e+001 -1.300e+001 -1.300e+001 -1.300e+001 -1.300e+001 -1.300e+001 -1.300e+001 -1.300e+001 -1.300e+001 -1.300e+001 -1.300e+001 -1.300e+001 -1.300e+001 -1.300e+001 -1.300e+001 -1.300e+001 -1.300e+001 -1.300e+001 -1.300e+001 -1.300e+001 -1.300e+001 -1.300e+001 -1.300e+001 -1.300e+001 -1.300e+001 -1.300e+001 -1.300e+001 -1.300e+001 -1.300e+001 -1.300e+001 -1.300e+001 -1.300e+001 -1.300e+001 -1.300e+001 -1.300e+001 -1.300e+001 -1.300e+001 -1.300e+001 -1.300e+001 -1.300e+001 -1.300e+001 -1.300e+001 -1.300e+001 -1.300e+001 -1.300e+001 -1.300e+001 -1.300e+001 -1.300e+001 -1.300e+001 -1.300e+001 -1.300e+001 -1.300e+001 -1.300e+001 -1.300e+001 -1.300e+001 -1.300e+001 -1.300e+001 -1.300e+001 -1.300e+001 -1.300e+001 -1.300e+001 -1.300e+001 -1.300e+001 -1.300e+001 -1.300e+001 -1.300e+001 -1.300e+001 -1.300e+001 -1.300e+001 -1.300e+001 -1.300e+001 -1.300e+001 -1.300e+001 -1.300e+001 -1.300e+001 -1.300e+001 -1.300e+001 -1.300e+001 -1.300e+001 -1.300e+001 -1.300e+001 -1.300e+001 -1.300e+001 -1.300e+001 -1.300e+001 -1.300e+001 -1.300e+001 -1.300e+001 -1.300e+001 -1.300e+001 -1.300e+001 -1.300e+001 -1.300e+001 -1.300e+001 -1.300e+001 -1.300e+001 -1.300e+001 -1.300e+001 -1.300e+001 -1.300e+001 -1.300e+001 -1.300e+001 -1.300e+001 -1.300e+001 -1.300e+001 -1.300e+001 -1.300e+001 -1.300e+001 -1.300e+001 -1.300e+001 -1.300e+001 -1.300e+001 -1.300e+001 -1.300e+001 -1.300e+001 -1.300e+001 -1.300e+001 -1.300e+001 -1.300e+001 -1.300e+001 -1.300e+001 -1.300e+001 -1.300e+001 -1.300e+001 -1.300e+001 -1.300e+001 -1.300e+001 -1.300e+001 -1.300e+001 -1.300e+001 -1.300e+001 -1.300e+001 -1.300e+001 -1.300e+001 -1.300e+001 -1.300e+001 -1.300e+001 -1.300e+001 -1.300e+001 -1.300e+001 -1.300e+001 -1.300e+001 -1.300e+001 -1.300e+001 -1.300e+001 -1.300e+001 -1.300e+001 -1.300e+001 -1.300e+001 -1.300e+001 -1.300e+001 -1.300e+001 -1.300e+001 -1.300e+001 -1.300e+001 -1.300e+001 -1.300e+001 -1.300e+001 -1.300e+001 -1.300e+001 -1.300e+001 -1.300e+001 -1.300e+001 -1.300e+001 -1.300e+001 -1.300e+001 -1.300e+001 -1.300e+001 -1.300e+001 -1.300e+001 -1.300e+001 -1.300e+001 -1.300e+001 -1.300e+001 -1.300e+001 -1.300e+001 -1.300e+001 -1.300e+001 -1.300e+001 -1.300e+001 -1.300e+001 -1.300e+001 -1.300e+001 -1.300e+001 -1.300e+001 -1.300e+001 -1.300e+001 -1.300e+001 -1.300e+001 -1.300e+001 -1.300e+001 -1.300e+001 -1.300e+001 -1.300e+001 -1.300e+001 -1.300e+001 -1.300e+001 -1.300e+001 -1.300e+001 -1.300e+001 -1.300e+001 -1.300e+001 -1.300e+001 -1.300e+001 -1.300e+001 -1.300e+001 -1.300e+001 -1.300e+001 -1.300e+001 -1.300e+001 -1.300e+001 -1.300e+001 -1.300e+001 -1.300e+001 -1.300e+001 -1.300e+001 -1.300e+001 -1.300e+001 -1.300e+001 -1.300e+001 -1.300e+001 -1.300e+001 -1.300e+001 -1.300e+001 -1.300e+001 -5.000e+000 -5.000e+000 -5.000e+000 -5.000e+000 -5.000e+000 -5.000e+000 -5.000e+000 -5.000e+000 -5.000e+000 -5.000e+000 -5.000e+000 -5.000e+000 -5.000e+000 -5.000e+000 -5.000e+000 -5.000e+000 -5.000e+000 -5.000e+000 -5.000e+000 -5.000e+000 -5.000e+000 -5.000e+000 -5.000e+000 -5.000e+000 -5.000e+000 -5.000e+000 -5.000e+000 -5.000e+000 -5.000e+000 -5.000e+000 -5.000e+000 -5.000e+000 -5.000e+000 -5.000e+000 -5.000e+000 -5.000e+000 -5.000e+000 -5.000e+000 -1.300e+001 -1.300e+001 -1.300e+001 -1.300e+001 -1.300e+001 -1.300e+001 -1.300e+001 -1.300e+001 -1.300e+001 -1.300e+001 -1.300e+001 -1.300e+001 -1.300e+001 -1.300e+001 -1.300e+001 -1.300e+001 -1.300e+001 -1.300e+001 -1.300e+001 -1.300e+001 -1.300e+001 -1.300e+001 -1.300e+001 -1.300e+001 -1.300e+001 -1.300e+001 -1.300e+001 -1.300e+001 -1.300e+001 -1.300e+001 -1.300e+001 -1.300e+001 -1.300e+001 -1.300e+001 -1.300e+001 -1.300e+001 -1.300e+001 -1.300e+001 -1.300e+001 -1.300e+001 -1.300e+001 -1.300e+001 -1.300e+001 -1.300e+001 -1.300e+001 -1.300e+001 -1.300e+001 -1.300e+001 -1.300e+001 -1.300e+001 -1.300e+001 -1.300e+001 -1.300e+001 -1.300e+001 -1.300e+001 -1.300e+001 -1.300e+001 -1.300e+001 -1.300e+001 -1.300e+001 -1.300e+001 -1.300e+001 -1.300e+001 -1.300e+001 -1.300e+001 -1.300e+001 -1.300e+001 -1.300e+001 -1.300e+001 -1.300e+001 -1.300e+001 -1.300e+001 -1.300e+001 -1.300e+001 -1.300e+001 -1.300e+001 -1.300e+001 -1.300e+001 -1.300e+001 -1.300e+001 -1.300e+001 -1.300e+001 -1.300e+001 -1.300e+001 -1.300e+001 -1.300e+001 -1.300e+001 -1.300e+001 -1.300e+001 -1.300e+001 -1.300e+001 -1.300e+001 -1.300e+001 -1.300e+001 -1.300e+001 -1.300e+001 -1.300e+001 -1.300e+001 -1.300e+001 -1.300e+001 -1.300e+001 -1.300e+001 -1.300e+001 -1.300e+001 -1.300e+001 -1.300e+001 -1.300e+001 -1.300e+001 -1.300e+001 -1.300e+001 -1.300e+001 -1.300e+001 -1.300e+001 -1.300e+001 -1.300e+001 -1.300e+001 -1.300e+001 -1.300e+001 -1.300e+001 -1.300e+001 -1.300e+001 -1.300e+001 -1.300e+001 -1.300e+001 -1.300e+001 -1.300e+001 -1.300e+001 -1.300e+001 -1.300e+001 -1.300e+001 -1.300e+001 -1.300e+001 -1.300e+001 -1.300e+001 -1.300e+001 -1.300e+001 -1.300e+001 -1.300e+001 -1.300e+001 -1.300e+001 -1.300e+001 -1.300e+001 -1.300e+001 -1.300e+001 -1.300e+001 -1.300e+001 -1.300e+001 -1.300e+001 -1.300e+001 -1.300e+001 -1.300e+001 -1.300e+001 -1.300e+001 -1.300e+001 -1.300e+001 -1.300e+001 -1.300e+001 -1.300e+001 -1.300e+001 -1.300e+001 -1.300e+001 -1.300e+001 -1.300e+001 -1.300e+001 -1.300e+001 -1.300e+001 -1.300e+001 -1.300e+001 -1.300e+001 -1.300e+001 -1.300e+001 -1.300e+001 -1.300e+001 -1.300e+001 -1.300e+001 -1.300e+001 -1.300e+001 -1.300e+001 -1.300e+001 -1.300e+001 -1.300e+001 -1.300e+001 -1.300e+001 -1.300e+001 -1.300e+001 -1.300e+001 -1.300e+001 -1.300e+001 -1.300e+001 -1.300e+001 -1.300e+001 -1.300e+001 -1.300e+001 -1.300e+001 -1.300e+001 -1.300e+001 -1.300e+001 -1.300e+001 -1.300e+001 -1.300e+001 -1.300e+001 -1.300e+001 -1.300e+001 -1.300e+001 -1.300e+001 -1.300e+001 -1.300e+001 -1.300e+001 -1.300e+001 -1.300e+001 -1.300e+001 -1.300e+001 -1.300e+001 -1.300e+001 -1.300e+001 -1.300e+001 -1.300e+001 -1.300e+001 -1.300e+001 -1.300e+001 -1.300e+001 -1.300e+001 -1.300e+001 -1.300e+001 -1.300e+001 -1.300e+001 -1.300e+001 -1.300e+001 -1.300e+001 -1.300e+001 -1.300e+001 -1.300e+001 -1.300e+001 -1.300e+001 -1.300e+001 -1.300e+001 -1.300e+001 -1.300e+001 -1.300e+001 -1.300e+001 -1.300e+001 -1.300e+001 -1.300e+001 -1.300e+001 -1.300e+001 -1.300e+001 -1.300e+001 -1.300e+001 -1.300e+001 -1.300e+001 -1.300e+001 -1.300e+001 -1.300e+001 -1.300e+001 -1.300e+001 -1.300e+001 -1.300e+001 -1.300e+001 -1.300e+001 -1.300e+001 -1.300e+001 -1.300e+001 -1.300e+001 -1.300e+001 -1.300e+001 -1.300e+001 -1.300e+001 -1.300e+001 -1.300e+001 -1.300e+001 -1.300e+001 -1.300e+001 -1.300e+001 -1.300e+001 -1.300e+001 -1.300e+001 -1.300e+001 -1.300e+001 -1.300e+001 -1.300e+001 -1.300e+001 -1.300e+001 -1.300e+001 -1.300e+001 -1.300e+001 -1.300e+001 -1.300e+001 -1.300e+001 -1.300e+001 -1.300e+001 -1.300e+001 -1.300e+001 -1.300e+001 -1.300e+001 -1.300e+001 -1.300e+001 -1.300e+001 -1.300e+001 -1.300e+001 -1.300e+001 -1.300e+001 -1.300e+001 -1.300e+001 -1.300e+001 -1.300e+001 -1.300e+001 -1.300e+001 -1.300e+001 -1.300e+001 -1.300e+001 -1.300e+001 -1.300e+001 -1.300e+001 -1.300e+001 -1.300e+001 -1.300e+001 -1.300e+001 -1.300e+001 -1.300e+001 -1.300e+001 -1.300e+001 -1.300e+001 -1.300e+001 -1.300e+001 -1.300e+001 -1.300e+001 -1.300e+001 -1.300e+001 -1.300e+001 -1.300e+001 -1.300e+001 -1.300e+001 -1.300e+001 -1.300e+001 -1.300e+001 -1.300e+001 -1.300e+001 -1.300e+001 -1.300e+001 -1.300e+001 -1.300e+001 -1.300e+001 -1.300e+001 -5.000e+000 -5.000e+000 -5.000e+000 -5.000e+000 -5.000e+000 -5.000e+000 -5.000e+000 -5.000e+000 -5.000e+000 -5.000e+000 -5.000e+000 -5.000e+000 -5.000e+000 -5.000e+000 -5.000e+000 -5.000e+000 -5.000e+000 -5.000e+000 -5.000e+000 -5.000e+000 -5.000e+000 -5.000e+000 -5.000e+000 -5.000e+000 -5.000e+000 -5.000e+000 -5.000e+000 -5.000e+000 -5.000e+000 -5.000e+000 -5.000e+000 -5.000e+000 -5.000e+000 -5.000e+000 -5.000e+000 -5.000e+000 -5.000e+000 -5.000e+000 -1.300e+001 -1.300e+001 -1.300e+001 -1.300e+001 -1.300e+001 -1.300e+001 -1.300e+001 -1.300e+001 -1.300e+001 -1.300e+001 -1.300e+001 -1.300e+001 -1.300e+001 -1.300e+001 -1.300e+001 -1.300e+001 -1.300e+001 -1.300e+001 -1.300e+001 -1.300e+001 -1.300e+001 -1.300e+001 -1.300e+001 -1.300e+001 -1.300e+001 -1.300e+001 -1.300e+001 -1.300e+001 -1.300e+001 -1.300e+001 -1.300e+001 -1.300e+001 -1.300e+001 -1.300e+001 -1.300e+001 -1.300e+001 -1.300e+001 -1.300e+001 -1.300e+001 -1.300e+001 -1.300e+001 -1.300e+001 -1.300e+001 -1.300e+001 -1.300e+001 -1.300e+001 -1.300e+001 -1.300e+001 -1.300e+001 -1.300e+001 -1.300e+001 -1.300e+001 -1.300e+001 -1.300e+001 -1.300e+001 -1.300e+001 -1.300e+001 -1.300e+001 -1.300e+001 -1.300e+001 -1.300e+001 -1.300e+001 -1.300e+001 -1.300e+001 -1.300e+001 -1.300e+001 -1.300e+001 -1.300e+001 -1.300e+001 -1.300e+001 -1.300e+001 -1.300e+001 -1.300e+001 -1.300e+001 -1.300e+001 -1.300e+001 -1.300e+001 -1.300e+001 -1.300e+001 -1.300e+001 -1.300e+001 -1.300e+001 -1.300e+001 -1.300e+001 -1.300e+001 -1.300e+001 -1.300e+001 -1.300e+001 -1.300e+001 -1.300e+001 -1.300e+001 -1.300e+001 -1.300e+001 -1.300e+001 -1.300e+001 -1.300e+001 -1.300e+001 -1.300e+001 -1.300e+001 -1.300e+001 -1.300e+001 -1.300e+001 -1.300e+001 -1.300e+001 -1.300e+001 -1.300e+001 -1.300e+001 -1.300e+001 -1.300e+001 -1.300e+001 -1.300e+001 -1.300e+001 -1.300e+001 -1.300e+001 -1.300e+001 -1.300e+001 -1.300e+001 -1.300e+001 -1.300e+001 -1.300e+001 -1.300e+001 -1.300e+001 -1.300e+001 -1.300e+001 -1.300e+001 -1.300e+001 -1.300e+001 -1.300e+001 -1.300e+001 -1.300e+001 -1.300e+001 -1.300e+001 -1.300e+001 -1.300e+001 -1.300e+001 -1.300e+001 -1.300e+001 -1.300e+001 -1.300e+001 -1.300e+001 -1.300e+001 -1.300e+001 -1.300e+001 -1.300e+001 -1.300e+001 -1.300e+001 -1.300e+001 -1.300e+001 -1.300e+001 -1.300e+001 -1.300e+001 -1.300e+001 -1.300e+001 -1.300e+001 -1.300e+001 -1.300e+001 -1.300e+001 -1.300e+001 -1.300e+001 -1.300e+001 -1.300e+001 -1.300e+001 -1.300e+001 -1.300e+001 -1.300e+001 -1.300e+001 -1.300e+001 -1.300e+001 -1.300e+001 -1.300e+001 -1.300e+001 -1.300e+001 -1.300e+001 -1.300e+001 -1.300e+001 -1.300e+001 -1.300e+001 -1.300e+001 -1.300e+001 -1.300e+001 -1.300e+001 -1.300e+001 -1.300e+001 -1.300e+001 -1.300e+001 -1.300e+001 -1.300e+001 -1.300e+001 -1.300e+001 -1.300e+001 -1.300e+001 -1.300e+001 -1.300e+001 -1.300e+001 -1.300e+001 -1.300e+001 -1.300e+001 -1.300e+001 -1.300e+001 -1.300e+001 -1.300e+001 -1.300e+001 -1.300e+001 -1.300e+001 -1.300e+001 -1.300e+001 -1.300e+001 -1.300e+001 -1.300e+001 -1.300e+001 -1.300e+001 -1.300e+001 -1.300e+001 -1.300e+001 -1.300e+001 -1.300e+001 -1.300e+001 -1.300e+001 -1.300e+001 -1.300e+001 -1.300e+001 -1.300e+001 -1.300e+001 -1.300e+001 -1.300e+001 -1.300e+001 -1.300e+001 -1.300e+001 -1.300e+001 -1.300e+001 -1.300e+001 -1.300e+001 -1.300e+001 -1.300e+001 -1.300e+001 -1.300e+001 -1.300e+001 -1.300e+001 -1.300e+001 -1.300e+001 -1.300e+001 -1.300e+001 -1.300e+001 -1.300e+001 -1.300e+001 -1.300e+001 -1.300e+001 -1.300e+001 -1.300e+001 -1.300e+001 -1.300e+001 -1.300e+001 -1.300e+001 -1.300e+001 -1.300e+001 -1.300e+001 -1.300e+001 -1.300e+001 -1.300e+001 -1.300e+001 -1.300e+001 -1.300e+001 -1.300e+001 -1.300e+001 -1.300e+001 -1.300e+001 -1.300e+001 -1.300e+001 -1.300e+001 -1.300e+001 -1.300e+001 -1.300e+001 -1.300e+001 -1.300e+001 -1.300e+001 -1.300e+001 -1.300e+001 -1.300e+001 -1.300e+001 -1.300e+001 -1.300e+001 -1.300e+001 -1.300e+001 -1.300e+001 -1.300e+001 -1.300e+001 -1.300e+001 -1.300e+001 -1.300e+001 -1.300e+001 -1.300e+001 -1.300e+001 -1.300e+001 -1.300e+001 -1.300e+001 -1.300e+001 -1.300e+001 -1.300e+001 -1.300e+001 -1.300e+001 -1.300e+001 -1.300e+001 -1.300e+001 -1.300e+001 -1.300e+001 -1.300e+001 -1.300e+001 -1.300e+001 -1.300e+001 -1.300e+001 -1.300e+001 -1.300e+001 -1.300e+001 -1.300e+001 -1.300e+001 -1.300e+001 -1.300e+001 -1.300e+001 -1.300e+001 -1.300e+001 -1.300e+001 -1.300e+001 -1.300e+001 -1.300e+001 -1.300e+001 -1.300e+001 -1.300e+001 -1.300e+001 -1.300e+001 -1.300e+001 -1.300e+001 -1.300e+001 -1.300e+001 -1.300e+001 -1.300e+001 -1.300e+001 -1.300e+001 -1.300e+001 -1.300e+001 -1.300e+001 -1.300e+001 -5.000e+000 -5.000e+000 -5.000e+000 -5.000e+000 -5.000e+000 -5.000e+000 -5.000e+000 -5.000e+000 -5.000e+000 -5.000e+000 -5.000e+000 -5.000e+000 -5.000e+000 -5.000e+000 -5.000e+000 -5.000e+000 -5.000e+000 -5.000e+000 -5.000e+000 -5.000e+000 -5.000e+000 -5.000e+000 -5.000e+000 -5.000e+000 -5.000e+000 -5.000e+000 -5.000e+000 -5.000e+000 -5.000e+000 -5.000e+000 -5.000e+000 -5.000e+000 -5.000e+000 -5.000e+000 -5.000e+000 -5.000e+000 -5.000e+000 -5.000e+000 -1.300e+001 -1.300e+001 -1.300e+001 -1.300e+001 -1.300e+001 -1.300e+001 -1.300e+001 -1.300e+001 -1.300e+001 -1.300e+001 -1.300e+001 -1.300e+001 -1.300e+001 -1.300e+001 -1.300e+001 -1.300e+001 -1.300e+001 -1.300e+001 -1.300e+001 -1.300e+001 -1.300e+001 -1.300e+001 -1.300e+001 -1.300e+001 -1.300e+001 -1.300e+001 -1.300e+001 -1.300e+001 -1.300e+001 -1.300e+001 -1.300e+001 -1.300e+001 -1.300e+001 -1.300e+001 -1.300e+001 -1.300e+001 -1.300e+001 -1.300e+001 -1.300e+001 -1.300e+001 -1.300e+001 -1.300e+001 -1.300e+001 -1.300e+001 -1.300e+001 -1.300e+001 -1.300e+001 -1.300e+001 -1.300e+001 -1.300e+001 -1.300e+001 -1.300e+001 -1.300e+001 -1.300e+001 -1.300e+001 -1.300e+001 -1.300e+001 -1.300e+001 -1.300e+001 -1.300e+001 -1.300e+001 -1.300e+001 -1.300e+001 -1.300e+001 -1.300e+001 -1.300e+001 -1.300e+001 -1.300e+001 -1.300e+001 -1.300e+001 -1.300e+001 -1.300e+001 -1.300e+001 -1.300e+001 -1.300e+001 -1.300e+001 -1.300e+001 -1.300e+001 -1.300e+001 -1.300e+001 -1.300e+001 -1.300e+001 -1.300e+001 -1.300e+001 -1.300e+001 -1.300e+001 -1.300e+001 -1.300e+001 -1.300e+001 -1.300e+001 -1.300e+001 -1.300e+001 -1.300e+001 -1.300e+001 -1.300e+001 -1.300e+001 -1.300e+001 -1.300e+001 -1.300e+001 -1.300e+001 -1.300e+001 -1.300e+001 -1.300e+001 -1.300e+001 -1.300e+001 -1.300e+001 -1.300e+001 -1.300e+001 -1.300e+001 -1.300e+001 -1.300e+001 -1.300e+001 -1.300e+001 -1.300e+001 -1.300e+001 -1.300e+001 -1.300e+001 -1.300e+001 -1.300e+001 -1.300e+001 -1.300e+001 -1.300e+001 -1.300e+001 -1.300e+001 -1.300e+001 -1.300e+001 -1.300e+001 -1.300e+001 -1.300e+001 -1.300e+001 -1.300e+001 -1.300e+001 -1.300e+001 -1.300e+001 -1.300e+001 -1.300e+001 -1.300e+001 -1.300e+001 -1.300e+001 -1.300e+001 -1.300e+001 -1.300e+001 -1.300e+001 -1.300e+001 -1.300e+001 -1.300e+001 -1.300e+001 -1.300e+001 -1.300e+001 -1.300e+001 -1.300e+001 -1.300e+001 -1.300e+001 -1.300e+001 -1.300e+001 -1.300e+001 -1.300e+001 -1.300e+001 -1.300e+001 -1.300e+001 -1.300e+001 -1.300e+001 -1.300e+001 -1.300e+001 -1.300e+001 -1.300e+001 -1.300e+001 -1.300e+001 -1.300e+001 -1.300e+001 -1.300e+001 -1.300e+001 -1.300e+001 -1.300e+001 -1.300e+001 -1.300e+001 -1.300e+001 -1.300e+001 -1.300e+001 -1.300e+001 -1.300e+001 -1.300e+001 -1.300e+001 -1.300e+001 -1.300e+001 -1.300e+001 -1.300e+001 -1.300e+001 -1.300e+001 -1.300e+001 -1.300e+001 -1.300e+001 -1.300e+001 -1.300e+001 -1.300e+001 -1.300e+001 -1.300e+001 -1.300e+001 -1.300e+001 -1.300e+001 -1.300e+001 -1.300e+001 -1.300e+001 -1.300e+001 -1.300e+001 -1.300e+001 -1.300e+001 -1.300e+001 -1.300e+001 -1.300e+001 -1.300e+001 -1.300e+001 -1.300e+001 -1.300e+001 -1.300e+001 -1.300e+001 -1.300e+001 -1.300e+001 -1.300e+001 -1.300e+001 -1.300e+001 -1.300e+001 -1.300e+001 -1.300e+001 -1.300e+001 -1.300e+001 -1.300e+001 -1.300e+001 -1.300e+001 -1.300e+001 -1.300e+001 -1.300e+001 -1.300e+001 -1.300e+001 -1.300e+001 -1.300e+001 -1.300e+001 -1.300e+001 -1.300e+001 -1.300e+001 -1.300e+001 -1.300e+001 -1.300e+001 -1.300e+001 -1.300e+001 -1.300e+001 -1.300e+001 -1.300e+001 -1.300e+001 -1.300e+001 -1.300e+001 -1.300e+001 -1.300e+001 -1.300e+001 -1.300e+001 -1.300e+001 -1.300e+001 -1.300e+001 -1.300e+001 -1.300e+001 -1.300e+001 -1.300e+001 -1.300e+001 -1.300e+001 -1.300e+001 -1.300e+001 -1.300e+001 -1.300e+001 -1.300e+001 -1.300e+001 -1.300e+001 -1.300e+001 -1.300e+001 -1.300e+001 -1.300e+001 -1.300e+001 -1.300e+001 -1.300e+001 -1.300e+001 -1.300e+001 -1.300e+001 -1.300e+001 -1.300e+001 -1.300e+001 -1.300e+001 -1.300e+001 -1.300e+001 -1.300e+001 -1.300e+001 -1.300e+001 -1.300e+001 -1.300e+001 -1.300e+001 -1.300e+001 -1.300e+001 -1.300e+001 -1.300e+001 -1.300e+001 -1.300e+001 -1.300e+001 -1.300e+001 -1.300e+001 -1.300e+001 -1.300e+001 -1.300e+001 -1.300e+001 -1.300e+001 -1.300e+001 -1.300e+001 -1.300e+001 -1.300e+001 -1.300e+001 -1.300e+001 -1.300e+001 -1.300e+001 -1.300e+001 -1.300e+001 -1.300e+001 -1.300e+001 -1.300e+001 -1.300e+001 -1.300e+001 -1.300e+001 -1.300e+001 -1.300e+001 -1.300e+001 -1.300e+001 -1.300e+001 -1.300e+001 -1.300e+001 -1.300e+001 -1.300e+001 -1.300e+001 -1.300e+001 -1.300e+001 -1.300e+001 -1.300e+001 -1.300e+001 -1.300e+001 -1.300e+001 -1.300e+001 -1.300e+001 -1.300e+001 -5.000e+000 -5.000e+000 -5.000e+000 -5.000e+000 -5.000e+000 -5.000e+000 -5.000e+000 -5.000e+000 -5.000e+000 -5.000e+000 -5.000e+000 -5.000e+000 -5.000e+000 -5.000e+000 -5.000e+000 -5.000e+000 -5.000e+000 -5.000e+000 -5.000e+000 -5.000e+000 -5.000e+000 -5.000e+000 -5.000e+000 -5.000e+000 -5.000e+000 -5.000e+000 -5.000e+000 -5.000e+000 -5.000e+000 -5.000e+000 -5.000e+000 -5.000e+000 -5.000e+000 -5.000e+000 -5.000e+000 -5.000e+000 -5.000e+000 -5.000e+000 -1.900e+001 -1.900e+001 -1.900e+001 -1.900e+001 -1.900e+001 -1.900e+001 -1.900e+001 -1.900e+001 -1.900e+001 -1.900e+001 -1.900e+001 -1.900e+001 -1.900e+001 -1.900e+001 -1.900e+001 -1.900e+001 -1.900e+001 -1.900e+001 -1.900e+001 -1.900e+001 -1.900e+001 -1.900e+001 -1.900e+001 -1.900e+001 -1.900e+001 -1.900e+001 -1.900e+001 -1.900e+001 -1.900e+001 -1.900e+001 -1.900e+001 -1.900e+001 -1.900e+001 -1.900e+001 -1.900e+001 -1.900e+001 -1.900e+001 -1.900e+001 -1.900e+001 -1.900e+001 -1.900e+001 -1.900e+001 -1.900e+001 -1.900e+001 -1.900e+001 -1.900e+001 -1.900e+001 -1.900e+001 -1.900e+001 -1.900e+001 -1.900e+001 -1.900e+001 -1.900e+001 -1.900e+001 -1.900e+001 -1.900e+001 -1.900e+001 -1.900e+001 -1.900e+001 -1.900e+001 -1.900e+001 -1.900e+001 -1.900e+001 -1.900e+001 -1.900e+001 -1.900e+001 -1.900e+001 -1.900e+001 -1.900e+001 -1.900e+001 -1.900e+001 -1.900e+001 -1.900e+001 -1.900e+001 -1.900e+001 -1.900e+001 -1.900e+001 -1.900e+001 -1.900e+001 -1.900e+001 -1.900e+001 -1.900e+001 -1.900e+001 -1.900e+001 -1.900e+001 -1.900e+001 -1.900e+001 -1.900e+001 -1.900e+001 -1.900e+001 -1.900e+001 -1.900e+001 -1.900e+001 -1.900e+001 -1.900e+001 -1.900e+001 -1.900e+001 -1.900e+001 -1.900e+001 -1.900e+001 -1.900e+001 -1.900e+001 -1.900e+001 -1.900e+001 -1.900e+001 -1.900e+001 -1.900e+001 -1.900e+001 -1.900e+001 -1.900e+001 -1.100e+001 -1.100e+001 -1.100e+001 -1.100e+001 -1.100e+001 -1.100e+001 -1.100e+001 -1.100e+001 -1.100e+001 -1.100e+001 -1.100e+001 -1.100e+001 -1.100e+001 -1.100e+001 -1.100e+001 -1.100e+001 -1.100e+001 -1.100e+001 -1.100e+001 -1.100e+001 -1.100e+001 -1.100e+001 -1.100e+001 -1.100e+001 -1.1