<?xml version="1.0"?>
<VTKFile type="UnstructuredGrid" version="0.1" byte_order="LittleEndian">
   <UnstructuredGrid>
      <Piece NumberOfPoints="8920" NumberOfCells="621">
         <Points>
            <DataArray type="Float32" Name="Position" NumberOfComponents="3" format="ascii">
0.138	-5.020	0.063
0.142	-5.019	0.071
0.141	-5.018	0.081
0.134	-5.018	0.087
0.125	-5.018	0.088
0.117	-5.019	0.084
0.113	-5.020	0.076
0.114	-5.021	0.067
0.121	-5.021	0.060
0.130	-5.020	0.059
0.188	-5.761	0.123
0.193	-5.760	0.132
0.191	-5.760	0.141
0.185	-5.760	0.147
0.175	-5.760	0.149
0.167	-5.761	0.144
0.163	-5.762	0.136
0.165	-5.763	0.127
0.171	-5.763	0.120
0.180	-5.762	0.119
0.260	-5.055	0.132
0.258	-5.048	0.137
0.254	-5.046	0.146
0.250	-5.049	0.153
0.247	-5.057	0.157
0.247	-5.066	0.156
0.249	-5.073	0.151
0.253	-5.075	0.143
0.257	-5.072	0.135
0.260	-5.064	0.131
0.960	-5.104	0.485
0.958	-5.098	0.491
0.954	-5.096	0.499
0.951	-5.100	0.507
0.948	-5.108	0.511
0.948	-5.117	0.509
0.950	-5.124	0.503
0.954	-5.126	0.495
0.958	-5.122	0.487
0.960	-5.114	0.483
1.021	-5.109	0.508
1.019	-5.103	0.515
1.016	-5.102	0.523
1.013	-5.106	0.531
1.011	-5.114	0.534
1.010	-5.123	0.533
1.012	-5.130	0.526
1.015	-5.131	0.518
1.019	-5.127	0.510
1.021	-5.119	0.506
1.335	-5.666	0.701
1.339	-5.658	0.703
1.338	-5.649	0.704
1.331	-5.642	0.704
1.322	-5.641	0.703
1.314	-5.645	0.701
1.310	-5.653	0.700
1.311	-5.662	0.699
1.318	-5.668	0.699
1.327	-5.670	0.700
1.265	-5.734	1.208
1.269	-5.726	1.210
1.268	-5.717	1.211
1.261	-5.710	1.211
1.252	-5.709	1.210
1.244	-5.713	1.208
1.240	-5.721	1.207
1.241	-5.730	1.206
1.248	-5.737	1.206
1.257	-5.738	1.207
1.430	-5.725	0.753
1.437	-5.722	0.758
1.444	-5.725	0.763
1.448	-5.733	0.767
1.448	-5.742	0.767
1.443	-5.749	0.764
1.436	-5.752	0.759
1.429	-5.749	0.753
1.425	-5.741	0.750
1.425	-5.732	0.750
1.803	-5.757	0.255
1.803	-5.753	0.264
1.803	-5.755	0.273
1.803	-5.761	0.279
1.803	-5.770	0.281
1.803	-5.779	0.277
1.803	-5.783	0.268
1.803	-5.781	0.259
1.803	-5.775	0.253
1.803	-5.766	0.251
1.558	-5.831	0.816
1.562	-5.823	0.819
1.561	-5.814	0.819
1.555	-5.807	0.818
1.547	-5.805	0.816
1.538	-5.808	0.813
1.534	-5.816	0.811
1.535	-5.826	0.810
1.541	-5.833	0.811
1.550	-5.835	0.814
1.369	-5.898	1.446
1.374	-5.890	1.448
1.373	-5.881	1.449
1.367	-5.874	1.448
1.358	-5.872	1.446
1.350	-5.875	1.443
1.346	-5.883	1.441
1.347	-5.892	1.440
1.353	-5.899	1.441
1.361	-5.901	1.443
1.672	-5.906	0.863
1.674	-5.908	0.871
1.670	-5.909	0.880
1.663	-5.907	0.885
1.655	-5.903	0.885
1.648	-5.900	0.880
1.646	-5.897	0.871
1.649	-5.897	0.863
1.656	-5.898	0.857
1.665	-5.902	0.857
1.438	-6.482	0.749
1.440	-6.485	0.758
1.437	-6.485	0.766
1.430	-6.483	0.772
1.421	-6.480	0.772
1.414	-6.476	0.766
1.412	-6.474	0.758
1.416	-6.473	0.749
1.423	-6.475	0.744
1.431	-6.478	0.744
1.763	-5.978	0.920
1.770	-5.975	0.926
1.776	-5.978	0.931
1.780	-5.985	0.935
1.779	-5.995	0.935
1.775	-6.002	0.932
1.768	-6.005	0.927
1.761	-6.002	0.921
1.757	-5.994	0.917
1.758	-5.985	0.917
2.068	-6.011	0.546
2.075	-6.008	0.552
2.081	-6.011	0.557
2.085	-6.019	0.561
2.085	-6.028	0.561
2.080	-6.035	0.558
2.073	-6.038	0.553
2.066	-6.035	0.547
2.063	-6.027	0.543
2.063	-6.018	0.543
1.883	-6.074	0.967
1.880	-6.067	0.973
1.877	-6.065	0.981
1.873	-6.069	0.988
1.870	-6.077	0.992
1.870	-6.086	0.991
1.872	-6.093	0.986
1.875	-6.095	0.977
1.879	-6.091	0.970
1.882	-6.083	0.966
2.405	-6.125	1.216
2.403	-6.118	1.222
2.399	-6.116	1.230
2.395	-6.120	1.238
2.392	-6.128	1.242
2.392	-6.137	1.241
2.394	-6.144	1.235
2.398	-6.146	1.227
2.402	-6.142	1.219
2.405	-6.134	1.215
1.990	-6.189	1.027
1.994	-6.181	1.029
1.993	-6.171	1.030
1.986	-6.165	1.029
1.977	-6.163	1.028
1.969	-6.167	1.026
1.965	-6.175	1.024
1.967	-6.184	1.023
1.973	-6.191	1.023
1.982	-6.192	1.024
1.920	-6.244	1.394
1.924	-6.236	1.396
1.922	-6.227	1.397
1.916	-6.220	1.397
1.907	-6.218	1.395
1.899	-6.222	1.393
1.895	-6.230	1.391
1.896	-6.239	1.390
1.903	-6.246	1.390
1.912	-6.248	1.392
2.090	-6.280	1.064
2.093	-6.285	1.072
2.090	-6.287	1.081
2.083	-6.286	1.087
2.075	-6.283	1.088
2.068	-6.278	1.084
2.065	-6.274	1.077
2.068	-6.272	1.068
2.075	-6.272	1.062
2.083	-6.276	1.060
1.957	-6.581	0.960
1.961	-6.572	0.960
1.960	-6.563	0.960
1.953	-6.557	0.960
1.944	-6.555	0.960
1.936	-6.559	0.960
1.931	-6.568	0.960
1.933	-6.577	0.960
1.939	-6.583	0.960
1.949	-6.585	0.960
2.169	-6.372	1.117
2.177	-6.370	1.121
2.183	-6.373	1.127
2.186	-6.380	1.132
2.185	-6.389	1.133
2.179	-6.396	1.131
2.171	-6.399	1.127
2.165	-6.395	1.121
2.162	-6.388	1.116
2.163	-6.379	1.115
2.407	-6.498	0.810
2.405	-6.492	0.817
2.401	-6.484	0.819
2.397	-6.477	0.815
2.395	-6.472	0.807
2.395	-6.473	0.798
2.398	-6.479	0.791
2.402	-6.487	0.789
2.406	-6.495	0.793
2.408	-6.499	0.801
2.279	-6.500	1.175
2.283	-6.492	1.178
2.282	-6.483	1.179
2.276	-6.476	1.178
2.267	-6.474	1.175
2.259	-6.478	1.172
2.255	-6.485	1.169
2.256	-6.495	1.168
2.263	-6.501	1.169
2.271	-6.504	1.172
2.159	-6.560	1.516
2.163	-6.552	1.519
2.162	-6.543	1.520
2.156	-6.536	1.519
2.147	-6.534	1.517
2.139	-6.537	1.513
2.135	-6.545	1.510
2.137	-6.554	1.509
2.143	-6.561	1.510
2.151	-6.563	1.513
0.389	-5.117	0.214
0.393	-5.109	0.215
0.392	-5.100	0.216
0.386	-5.093	0.216
0.377	-5.091	0.214
0.369	-5.095	0.212
0.364	-5.103	0.210
0.366	-5.112	0.210
0.372	-5.119	0.210
0.381	-5.121	0.211
0.251	-5.202	0.927
0.256	-5.194	0.929
0.254	-5.185	0.930
0.248	-5.178	0.929
0.239	-5.176	0.928
0.231	-5.180	0.926
0.227	-5.188	0.924
0.228	-5.197	0.923
0.234	-5.204	0.923
0.243	-5.206	0.925
2.374	-6.605	1.224
2.379	-6.597	1.227
2.377	-6.588	1.228
2.371	-6.581	1.228
2.362	-6.579	1.225
2.354	-6.583	1.222
2.350	-6.590	1.219
2.352	-6.600	1.218
2.358	-6.606	1.218
2.367	-6.608	1.221
2.262	-6.667	1.552
2.262	-6.659	1.557
2.262	-6.649	1.555
2.262	-6.643	1.549
2.262	-6.641	1.539
2.262	-6.646	1.531
2.262	-6.654	1.527
2.262	-6.663	1.528
2.262	-6.670	1.535
2.262	-6.671	1.544
2.462	-6.696	1.256
2.460	-6.689	1.262
2.456	-6.688	1.271
2.453	-6.693	1.278
2.452	-6.701	1.282
2.452	-6.710	1.280
2.454	-6.716	1.274
2.457	-6.718	1.265
2.460	-6.713	1.258
2.462	-6.705	1.254
2.749	-6.716	1.393
2.758	-6.716	1.397
2.767	-6.716	1.396
2.773	-6.716	1.389
2.775	-6.716	1.380
2.771	-6.716	1.372
2.762	-6.716	1.368
2.753	-6.716	1.369
2.747	-6.716	1.376
2.745	-6.716	1.385
2.556	-6.807	1.300
2.553	-6.800	1.305
2.549	-6.798	1.313
2.544	-6.801	1.321
2.542	-6.809	1.325
2.542	-6.818	1.325
2.545	-6.825	1.320
2.549	-6.828	1.312
2.553	-6.824	1.304
2.556	-6.817	1.300
2.817	-6.813	1.445
2.815	-6.806	1.450
2.810	-6.803	1.458
2.806	-6.807	1.465
2.803	-6.814	1.470
2.804	-6.824	1.469
2.806	-6.831	1.464
2.811	-6.833	1.456
2.815	-6.830	1.449
2.817	-6.822	1.444
2.635	-6.910	1.350
2.642	-6.908	1.355
2.649	-6.911	1.361
2.653	-6.919	1.365
2.651	-6.928	1.366
2.646	-6.935	1.364
2.639	-6.938	1.359
2.632	-6.934	1.353
2.629	-6.927	1.349
2.630	-6.918	1.348
2.834	-6.966	1.086
2.842	-6.963	1.091
2.848	-6.966	1.096
2.852	-6.974	1.100
2.851	-6.983	1.101
2.845	-6.990	1.099
2.838	-6.993	1.094
2.831	-6.990	1.088
2.828	-6.982	1.084
2.829	-6.973	1.083
2.743	-7.044	1.402
2.747	-7.036	1.404
2.746	-7.026	1.405
2.739	-7.020	1.405
2.730	-7.018	1.403
2.722	-7.022	1.401
2.718	-7.030	1.399
2.719	-7.039	1.398
2.726	-7.046	1.398
2.735	-7.047	1.400
2.677	-7.086	1.701
2.681	-7.078	1.703
2.680	-7.069	1.704
2.674	-7.062	1.704
2.665	-7.060	1.702
2.657	-7.064	1.699
2.652	-7.072	1.697
2.654	-7.081	1.696
2.660	-7.088	1.697
2.669	-7.090	1.699
2.824	-7.144	1.431
2.822	-7.137	1.437
2.818	-7.134	1.445
2.813	-7.137	1.452
2.811	-7.145	1.457
2.810	-7.154	1.456
2.812	-7.162	1.450
2.816	-7.164	1.442
2.821	-7.161	1.435
2.824	-7.153	1.431
3.015	-7.160	1.532
3.013	-7.152	1.538
3.009	-7.150	1.546
3.005	-7.153	1.553
3.002	-7.161	1.557
3.001	-7.170	1.557
3.004	-7.178	1.551
3.008	-7.180	1.543
3.012	-7.177	1.536
3.015	-7.169	1.532
2.911	-7.277	1.485
2.915	-7.269	1.488
2.913	-7.260	1.490
2.906	-7.254	1.491
2.898	-7.252	1.489
2.890	-7.256	1.486
2.886	-7.264	1.482
2.888	-7.273	1.480
2.894	-7.279	1.480
2.903	-7.281	1.482
2.862	-7.329	1.674
2.866	-7.321	1.678
2.864	-7.313	1.680
2.858	-7.306	1.680
2.849	-7.304	1.678
2.841	-7.308	1.675
2.837	-7.316	1.672
2.839	-7.325	1.670
2.845	-7.331	1.670
2.854	-7.333	1.671
2.990	-7.378	1.515
2.988	-7.371	1.520
2.983	-7.369	1.528
2.979	-7.373	1.536
2.977	-7.380	1.540
2.977	-7.390	1.540
2.980	-7.397	1.534
2.984	-7.399	1.526
2.988	-7.396	1.519
2.990	-7.388	1.514
3.181	-7.382	1.616
3.178	-7.375	1.621
3.174	-7.373	1.629
3.170	-7.377	1.637
3.168	-7.384	1.641
3.168	-7.394	1.640
3.170	-7.401	1.635
3.175	-7.403	1.627
3.179	-7.400	1.620
3.181	-7.392	1.615
3.073	-7.496	1.557
3.071	-7.489	1.562
3.067	-7.487	1.570
3.063	-7.490	1.578
3.060	-7.498	1.582
3.061	-7.507	1.581
3.063	-7.514	1.576
3.068	-7.517	1.568
3.071	-7.513	1.560
3.074	-7.505	1.556
3.232	-7.497	1.640
3.229	-7.490	1.645
3.225	-7.488	1.653
3.221	-7.492	1.660
3.219	-7.500	1.665
3.219	-7.509	1.664
3.222	-7.516	1.659
3.226	-7.518	1.651
3.230	-7.514	1.643
3.232	-7.506	1.639
3.156	-7.633	1.613
3.160	-7.625	1.616
3.158	-7.616	1.618
3.152	-7.609	1.618
3.144	-7.607	1.615
3.136	-7.611	1.611
3.132	-7.618	1.607
3.134	-7.627	1.605
3.140	-7.634	1.605
3.148	-7.636	1.608
3.101	-7.671	1.745
3.105	-7.663	1.749
3.103	-7.654	1.751
3.097	-7.647	1.750
3.088	-7.645	1.747
3.081	-7.648	1.743
3.077	-7.656	1.739
3.079	-7.665	1.737
3.085	-7.672	1.738
3.093	-7.674	1.741
0.498	-5.146	0.272
0.504	-5.143	0.278
0.510	-5.146	0.285
0.513	-5.154	0.289
0.512	-5.163	0.290
0.508	-5.171	0.286
0.501	-5.173	0.280
0.496	-5.170	0.274
0.492	-5.163	0.269
0.493	-5.153	0.269
1.056	-5.225	-0.279
1.062	-5.222	-0.273
1.068	-5.225	-0.266
1.071	-5.232	-0.262
1.070	-5.242	-0.261
1.066	-5.249	-0.265
1.060	-5.252	-0.271
1.054	-5.249	-0.277
1.050	-5.241	-0.282
1.051	-5.232	-0.282
3.227	-7.739	1.642
3.225	-7.732	1.648
3.221	-7.730	1.656
3.217	-7.733	1.663
3.214	-7.741	1.667
3.214	-7.750	1.667
3.217	-7.757	1.661
3.221	-7.759	1.653
3.225	-7.756	1.646
3.227	-7.748	1.641
3.334	-7.744	1.698
3.332	-7.737	1.703
3.328	-7.734	1.711
3.324	-7.738	1.719
3.321	-7.746	1.723
3.321	-7.755	1.722
3.323	-7.762	1.717
3.328	-7.764	1.709
3.332	-7.761	1.701
3.334	-7.753	1.697
[...]
         <CellData>
           <DataArray type="Float32" Name="combinedRootClassID" NumberOfComponents="1" format="ascii">
 -1.300e+01 -1.300e+01 -1.300e+01 -1.300e+01 -1.300e+01 -1.300e+01 -1.300e+01 -1.300e+01 -1.300e+01 -1.300e+01 -1.300e+01 -1.300e+01 -1.300e+01 -1.300e+01 -1.300e+01 -1.300e+01 -1.300e+01 -1.300e+01 -1.300e+01 -1.300e+01 -1.300e+01 -1.300e+01 -1.300e+01 -1.300e+01 -1.300e+01 -1.300e+01 -1.300e+01 -1.300e+01 -1.300e+01 -1.300e+01 -1.300e+01 -1.300e+01 -1.300e+01 -1.300e+01 -1.300e+01 -1.300e+01 -1.300e+01 -5.000e+00 -5.000e+00 -5.000e+00 -5.000e+00 -5.000e+00 -5.000e+00 -5.000e+00 -5.000e+00 -5.000e+00 -5.000e+00 -5.000e+00 -5.000e+00 -5.000e+00 -5.000e+00 -5.000e+00 -5.000e+00 -5.000e+00 -5.000e+00 -1.300e+01 -1.300e+01 -1.300e+01 -1.300e+01 -1.300e+01 -1.300e+01 -1.300e+01 -1.300e+01 -1.300e+01 -1.300e+01 -1.300e+01 -1.300e+01 -1.300e+01 -1.300e+01 -1.300e+01 -1.300e+01 -1.300e+01 -1.300e+01 -1.300e+01 -1.300e+01 -1.300e+01 -1.300e+01 -1.300e+01 -1.300e+01 -1.300e+01 -1.300e+01 -1.300e+01 -1.300e+01 -1.300e+01 -1.300e+01 -1.300e+01 -1.300e+01 -1.300e+01 -1.300e+01 -1.300e+01 -1.300e+01 -1.300e+01 -5.000e+00 -5.000e+00 -5.000e+00 -5.000e+00 -5.000e+00 -5.000e+00 -5.000e+00 -5.000e+00 -5.000e+00 -5.000e+00 -5.000e+00 -5.000e+00 -5.000e+00 -5.000e+00 -5.000e+00 -5.000e+00 -5.000e+00 -5.000e+00 -1.300e+01 -1.300e+01 -1.300e+01 -1.300e+01 -1.300e+01 -1.300e+01 -1.300e+01 -1.300e+01 -1.300e+01 -1.300e+01 -1.300e+01 -1.300e+01 -1.300e+01 -1.300e+01 -1.300e+01 -1.300e+01 -1.300e+01 -1.300e+01 -1.300e+01 -1.300e+01 -1.300e+01 -1.300e+01 -1.300e+01 -1.300e+01 -1.300e+01 -1.300e+01 -1.300e+01 -1.300e+01 -1.300e+01 -1.300e+01 -1.300e+01 -1.300e+01 -1.300e+01 -1.300e+01 -1.300e+01 -1.300e+01 -1.300e+01 -5.000e+00 -5.000e+00 -5.000e+00 -5.000e+00 -5.000e+00 -5.000e+00 -5.000e+00 -5.000e+00 -5.000e+00 -5.000e+00 -5.000e+00 -5.000e+00 -5.000e+00 -5.000e+00 -5.000e+00 -5.000e+00 -5.000e+00 -5.000e+00 -1.300e+01 -1.300e+01 -1.300e+01 -1.300e+01 -1.300e+01 -1.300e+01 -1.300e+01 -1.300e+01 -1.300e+01 -1.300e+01 -1.300e+01 -1.300e+01 -1.300e+01 -1.300e+01 -1.300e+01 -1.300e+01 -1.300e+01 -1.300e+01 -1.300e+01 -1.300e+01 -1.300e+01 -1.300e+01 -1.300e+01 -1.300e+01 -1.300e+01 -1.300e+01 -1.300e+01 -1.300e+01 -1.300e+01 -1.300e+01 -1.300e+01 -1.300e+01 -1.300e+01 -1.300e+01 -1.300e+01 -1.300e+01 -1.300e+01 -5.000e+00 -5.000e+00 -5.000e+00 -5.000e+00 -5.000e+00 -5.000e+00 -5.000e+00 -5.000e+00 -5.000e+00 -5.000e+00 -5.000e+00 -5.000e+00 -5.000e+00 -5.000e+00 -5.000e+00 -5.000e+00 -5.000e+00 -5.000e+00 -1.100e+01 -1.100e+01 -1.100e+01 -1.100e+01 -1.100e+01 -1.100e+01 -1.100e+01 -1.100e+01 -1.100e+01 -1.100e+01 -1.100e+01 -1.100e+01 -1.100e+01 -1.100e+01 -1.100e+01 -1.100e+01 -1.100e+01 -1.100e+01 -1.100e+01 -1.100e+01 -1.100e+01 -1.100e+01 -1.100e+01 -1.100e+01 -1.100e+01 -1.100e+01 -1.100e+01 -1.100e+01 -1.100e+01 -1.100e+01 -1.100e+01 -1.100e+01 -2.000e+00 -2.000e+00 -2.000e+00 -2.000e+00 -2.000e+00 -2.000e+00 -2.000e+00 -2.000e+00 -2.000e+00 -2.000e+00 -2.000e+00 -2.000e+00 -7.000e+00 -7.000e+00 -7.000e+00 -7.000e+00 -7.000e+00 -7.000e+00 -7.000e+00 -7.000e+00 -7.000e+00 -7.000e+00 -7.000e+00 -7.000e+00 -7.000e+00 -7.000e+00 -7.000e+00 -7.000e+00 -7.000e+00 -7.000e+00 -7.000e+00 -7.000e+00 -7.000e+00 -7.000e+00 -7.000e+00 -7.000e+00 -7.000e+00 -7.000e+00 -7.000e+00 -7.000e+00 -7.000e+00 -7.000e+00 -7.000e+00 -7.000e+00 -7.000e+00 -7.000e+00 -7.000e+00 -7.000e+00 -7.000e+00 -7.000e+00 -7.000e+00 -7.000e+00 -7.000e+00 -7.000e+00 -7.000e+00 -7.000e+00 -7.000e+00 -7.000e+00 -7.000e+00 -7.000e+00 -7.000e+00 -7.000e+00 -7.000e+00 -7.000e+00 -7.000e+00 -7.000e+00 -7.000e+00 -7.000e+00 -7.000e+00 -7.000e+00 -7.000e+00 -7.000e+00 -7.000e+00 -7.000e+00 -7.000e+00 -7.000e+00 -7.000e+00 -7.000e+00 -7.000e+00 -7.000e+00 -7.000e+00 -7.000e+00 -7.000e+00 -7.000e+00 -7.000e+00 -7.000e+00 -7.000e+00 -7.000e+00 -7.000e+00 -7.000e+00 -7.000e+00 -7.000e+00 -7.000e+00 -7.000e+00 -7.000e+00 -7.000e+00 -7.000e+00 -7.000e+00 -7.000e+00 -7.000e+00 -7.000e+00 -7.000e+00 -7.000e+00 -7.000e+00 -7.000e+00 -7.000e+00 -7.000e+00 -7.000e+00 -7.000e+00 -7.000e+00 -7.000e+00 -7.000e+00 -7.000e+00 -7.000e+00 -7.000e+00 -7.000e+00 -7.000e+00 -7.000e+00 -7.000e+00 -7.000e+00 -7.000e+00 -7.000e+00 -7.000e+00 -7.000e+00 -7.000e+00 -7.000e+00 -7.000e+00 -7.000e+00 -7.000e+00 -7.000e+00 -7.000e+00 -7.000e+00 -7.000e+00 -7.000e+00 -7.000e+00 -7.000e+00 -7.000e+00 -7.000e+00 -7.000e+00 -7.000e+00 -7.000e+00 -7.000e+00 -7.000e+00 -7.000e+00 -7.000e+00 -7.000e+00 -7.000e+00 -7.000e+00 -7.000e+00 -7.000e+00 -7.000e+00 -7.000e+00 -7.000e+00 -7.000e+00 -7.000e+00 -7.000e+00 -7.000e+00 -7.000e+00 -7.000e+00 -7.000e+00 -7.000e+00 -7.000e+00 -7.000e+00 -7.000e+00 -7.000e+00 -7.000e+00 -7.000e+00 -7.000e+00 -7.000e+00 -7.000e+00 -7.000e+00 -7.000e+00 -7.000e+00 -7.000e+00 -7.000e+00 -7.000e+00 -7.000e+00 -7.000e+00 -7.000e+00 -7.000e+00 -7.000e+00 -7.000e+00 -7.000e+00 -7.000e+00 -7.000e+00 -7.000e+00 -7.000e+00 -7.000e+00 -7.000e+00 -7.000e+00 -7.000e+00 -7.000e+00 -7.000e+00 -7.000e+00 -7.000e+00 -7.000e+00 -7.000e+00 -7.000e+00 -7.000e+00 -7.000e+00 -7.000e+00 -7.000e+00 -7.000e+00 -7.000e+00 -7.000e+00 -7.000e+00 -7.000e+00 -7.000e+00 -7.000e+00 -7.000e+00 -7.000e+00 -7.000e+00 -7.000e+00 -7.000e+00 -7.000e+00 -7.000e+00 -7.000e+00 -7.000e+00 -7.000e+00 -7.000e+00 -7.000e+00 -7.000e+00 -7.000e+00 -7.000e+00 -7.000e+00 -7.000e+00 -7.000e+00 -7.000e+00 -7.000e+00 -7.000e+00 -7.000e+00 -7.000e+00 -7.000e+00 -7.000e+00 -7.000e+00 -7.000e+00 -7.000e+00 -7.000e+00 -7.000e+00 -7.000e+00 -7.000e+00 -7.000e+00 -7.000e+00 -7.000e+00 -7.000e+00 -7.000e+00 -7.000e+00 -7.000e+00 -7.000e+00 -7.000e+00 -7.000e+00 -7.000e+00 -7.000e+00 -7.000e+00 -7.000e+00 -7.000e+00 -7.000e+00 -7.000e+00 -7.000e+00 -7.000e+00 -7.000e+00 -7.000e+00 -7.000e+00 -7.000e+00 -7.000e+00 -7.000e+00 -7.000e+00 -7.000e+00 -7.000e+00 -7.000e+00 -7.000e+00 -7.000e+00 -7.000e+00 -7.000e+00 -7.000e+00 -7.000e+00 -7.000e+00 -7.000e+00 -7.000e+00 -7.000e+00 -7.000e+00 -7.000e+00 -7.000e+00 -7.000e+00 -7.000e+00 -7.000e+00 -7.000e+00 -7.000e+00 -7.000e+00 -7.000e+00 -7.000e+00 -7.000e+00 -7.000e+00 -7.000e+00 -7.000e+00 -7.000e+00 -7.000e+00 -7.000e+00 -7.000e+00 -7.000e+00 -7.000e+00 -7.000e+00 -7.000e+00 -7.000e+00 -7.000e+00 -7.000e+00 -7.000e+00 -7.000e+00 -7.000e+00 -7.000e+00 -1.500e+01 -1.500e+01 -9.000e+00 -9.000e+00 -9.000e+00 -9.000e+00 -9.000e+00 -9.000e+00 -9.000e+00 -9.000e+00 -9.000e+00 -9.000e+00 -9.000e+00 -9.000e+00 -9.000e+00 -4.000e+00 -4.000e+00 -4.000e+00 -4.000e+00 -4.000e+00 -4.000e+00 -4.000e+00 -4.000e+00 -4.000e+00 -4.000e+00 -4.000e+00 -4.000e+00 -4.000e+00 -4.000e+00 -4.000e+00 -4.000e+00 -4.000e+00 -4.000e+00 -4.000e+00 -4.000e+00 -4.000e+00 -4.000e+00 -4.000e+00 -4.000e+00 -4.000e+00 -4.000e+00 -4.000e+00 -4.000e+00 -4.000e+00 -4.000e+00 -4.000e+00 -4.000e+00 -4.000e+00 -4.000e+00 -4.000e+00 -4.000e+00 -4.000e+00 -4.000e+00 -4.000e+00 -4.000e+00 -4.000e+00 -4.000e+00 -4.000e+00 -4.000e+00
           </DataArray>
           <DataArray type="Float32" Name="nitrate/minimalNutrientConcentration" NumberOfComponents="1" format="ascii">
 6.000e+02 6.000e+02 6.000e+02 6.000e+02 6.000e+02 6.000e+02 6.000e+02 6.000e+02 6.000e+02 6.000e+02 6.000e+02 6.000e+02 6.000e+02 6.000e+02 6.000e+02 6.000e+02 6.000e+02 6.000e+02 6.000e+02 6.000e+02 6.000e+02 6.000e+02 6.000e+02 6.000e+02 6.000e+02 6.000e+02 6.000e+02 6.000e+02 6.000e+02 6.000e+02 6.000e+02 6.000e+02 6.000e+02 6.000e+02 6.000e+02 6.000e+02 6.000e+02 6.000e+02 6.000e+02 6.000e+02 6.000e+02 6.000e+02 6.000e+02 6.000e+02 6.000e+02 6.000e+02 6.000e+02 6.000e+02 6.000e+02 6.000e+02 6.000e+02 6.000e+02 6.000e+02 6.000e+02 6.000e+02 6.000e+02 6.000e+02 6.000e+02 6.000e+02 6.000e+02 6.000e+02 6.000e+02 6.000e+02 6.000e+02 6.000e+02 6.000e+02 6.000e+02 6.000e+02 6.000e+02 6.000e+02 6.000e+02 6.000e+02 6.000e+02 6.000e+02 6.000e+02 6.000e+02 6.000e+02 6.000e+02 6.000e+02 6.000e+02 6.000e+02 6.000e+02 6.000e+02 6.000e+02 6.000e+02 6.000e+02 6.000e+02 6.000e+02 6.000e+02 6.000e+02 6.000e+02 6.000e+02 6.000e+02 6.000e+02 6.000e+02 6.000e+02 6.000e+02 6.000e+02 6.000e+02 6.000e+02 6.000e+02 6.000e+02 6.000e+02 6.000e+02 6.000e+02 6.000e+02 6.000e+02 6.000e+02 6.000e+02 6.000e+02 6.000e+02 6.000e+02 6.000e+02 6.000e+02 6.000e+02 6.000e+02 6.000e+02 6.000e+02 6.000e+02 6.000e+02 6.000e+02 6.000e+02 6.000e+02 6.000e+02 6.000e+02 6.000e+02 6.000e+02 6.000e+02 6.000e+02 6.000e+02 6.000e+02 6.000e+02 6.000e+02 6.000e+02 6.000e+02 6.000e+02 6.000e+02 6.000e+02 6.000e+02 6.000e+02 6.000e+02 6.000e+02 6.000e+02 6.000e+02 6.000e+02 6.000e+02 6.000e+02 6.000e+02 6.000e+02 6.000e+02 6.000e+02 6.000e+02 6.000e+02 6.000e+02 6.000e+02 6.000e+02 6.000e+02 6.000e+02 6.000e+02 6.000e+02 6.000e+02 6.000e+02 6.000e+02 6.000e+02 6.000e+02 6.000e+02 6.000e+02 6.000e+02 6.000e+02 6.000e+02 6.000e+02 6.000e+02 6.000e+02 6.000e+02 6.000e+02 6.000e+02 6.000e+02 6.000e+02 6.000e+02 6.000e+02 6.000e+02 6.000e+02 6.000e+02 6.000e+02 6.000e+02 6.000e+02 6.000e+02 6.000e+02 6.000e+02 6.000e+02 6.000e+02 6.000e+02 6.000e+02 6.000e+02 6.000e+02 6.000e+02 6.000e+02 6.000e+02 6.000e+02 6.000e+02 6.000e+02 6.000e+02 6.000e+02 6.000e+02 6.000e+02 6.000e+02 6.000e+02 6.000e+02 6.000e+02 6.000e+02 6.000e+02 6.000e+02 6.000e+02 6.000e+02 6.000e+02 6.000e+02 6.000e+02 6.000e+02 6.000e+02 6.000e+02 6.000e+02 6.000e+02 6.000e+02 6.000e+02 6.000e+02 6.000e+02 6.000e+02 6.000e+02 6.000e+02 6.000e+02 6.000e+02 6.000e+02 6.000e+02 6.000e+02 6.000e+02 6.000e+02 6.000e+02 6.000e+02 6.000e+02 6.000e+02 6.000e+02 6.000e+02 6.000e+02 6.000e+02 6.000e+02 6.000e+02 6.000e+02 6.000e+02 6.000e+02 6.000e+02 6.000e+02 6.000e+02 6.000e+02 6.000e+02 6.000e+02 6.000e+02 6.000e+02 6.000e+02 6.000e+02 6.000e+02 6.000e+02 6.000e+02 6.000e+02 6.000e+02 6.000e+02 6.000e+02 6.000e+02 6.000e+02 6.000e+02 6.000e+02 6.000e+02 6.000e+02 6.000e+02 6.000e+02 6.000e+02 6.000e+02 6.000e+02 6.000e+02 6.000e+02 6.000e+02 6.000e+02 6.000e+02 6.000e+02 6.000e+02 6.000e+02 6.000e+02 6.000e+02 6.000e+02 6.000e+02 6.000e+02 6.000e+02 6.000e+02 6.000e+02 6.000e+02 6.000e+02 6.000e+02 6.000e+02 6.000e+02 6.000e+02 6.000e+02 6.000e+02 6.000e+02 6.000e+02 6.000e+02 6.000e+02 6.000e+02 6.000e+02 6.000e+02 6.000e+02 6.000e+02 6.000e+02 6.000e+02 6.000e+02 6.000e+02 6.000e+02 6.000e+02 6.000e+02 6.000e+02 6.000e+02 6.000e+02 6.000e+02 6.000e+02 6.000e+02 6.000e+02 6.000e+02 6.000e+02 6.000e+02 6.000e+02 6.000e+02 6.000e+02 6.000e+02 6.000e+02 6.000e+02 6.000e+02 6.000e+02 6.000e+02 6.000e+02 6.000e+02 6.000e+02 6.000e+02 6.000e+02 6.000e+02 6.000e+02 6.000e+02 6.000e+02 6.000e+02 6.000e+02 6.000e+02 6.000e+02 6.000e+02 6.000e+02 6.000e+02 6.000e+02 6.000e+02 6.000e+02 6.000e+02 6.000e+02 6.000e+02 6.000e+02 6.000e+02 6.000e+02 6.000e+02 6.000e+02 6.000e+02 6.000e+02 6.000e+02 6.000e+02 6.000e+02 6.000e+02 6.000e+02 6.000e+02 6.000e+02 6.000e+02 6.000e+02 6.000e+02 6.000e+02 6.000e+02 6.000e+02 6.000e+02 6.000e+02 6.000e+02 6.000e+02 6.000e+02 6.000e+02 6.000e+02 6.000e+02 6.000e+02 6.000e+02 6.000e+02 6.000e+02 6.000e+02 6.000e+02 6.000e+02 6.000e+02 6.000e+02 6.000e+02 6.000e+02 6.000e+02 6.000e+02 6.000e+02 6.000e+02 6.000e+02 6.000e+02 6.000e+02 6.000e+02 6.000e+02 6.000e+02 6.000e+02 6.000e+02 6.000e+02 6.000e+02 6.000e+02 6.000e+02 6.000e+02 6.000e+02 6.000e+02 6.000e+02 6.000e+02 6.000e+02 6.000e+02 6.000e+02 6.000e+02 6.000e+02 6.000e+02 6.000e+02 6.000e+02 6.000e+02 6.000e+02 6.000e+02 6.000e+02 6.000e+02 6.000e+02 6.000e+02 6.000e+02 6.000e+02 6.000e+02 6.000e+02 6.000e+02 6.000e+02 6.000e+02 6.000e+02 6.000e+02 6.000e+02 6.000e+02 6.000e+02 6.000e+02 6.000e+02 6.000e+02 6.000e+02 6.000e+02 6.000e+02 6.000e+02 6.000e+02 6.000e+02 6.000e+02 6.000e+02 6.000e+02 6.000e+02 6.000e+02 6.000e+02 6.000e+02 6.000e+02 6.000e+02 6.000e+02 6.000e+02 6.000e+02 6.000e+02 6.000e+02 6.000e+02 6.000e+02 6.000e+02 6.000e+02 6.000e+02 6.000e+02 6.000e+02 6.000e+02 6.000e+02 6.000e+02 6.000e+02 6.000e+02 6.000e+02 6.000e+02 6.000e+02 6.000e+02 6.000e+02 6.000e+02 6.000e+02 6.000e+02 6.000e+02 6.000e+02 6.000e+02 6.000e+02 6.000e+02 6.000e+02 6.000e+02 6.000e+02 6.000e+02 6.000e+02 6.000e+02 6.000e+02 6.000e+02 6.000e+02 6.000e+02 6.000e+02 6.000e+02 6.000e+02 6.000e+02 6.000e+02 6.000e+02 6.000e+02 6.000e+02 6.000e+02 6.000e+02 6.000e+02 6.000e+02 6.000e+02 6.000e+02 6.000e+02 6.000e+02 6.000e+02 6.000e+02 6.000e+02 6.000e+02 6.000e+02 6.000e+02 6.000e+02 6.000e+02 6.000e+02 6.000e+02 6.000e+02 6.000e+02 6.000e+02 6.000e+02 6.000e+02 6.000e+02 6.000e+02 6.000e+02 6.000e+02 6.000e+02 6.000e+02 6.000e+02 6.000e+02 6.000e+02 6.000e+02 6.000e+02 6.000e+02 6.000e+02 6.000e+02 6.000e+02 6.000e+02 6.000e+02 6.000e+02 6.000e+02 6.000e+02 6.000e+02 6.000e+02 6.000e+02 6.000e+02 6.000e+02 6.000e+02 6.000e+02 6.000e+02 6.000e+02 6.000e+02 6.000e+02 6.000e+02 6.000e+02 6.000e+02 6.000e+02 6.000e+02 6.000e+02 6.000e+02 6.000e+02 6.000e+02 6.000e+02 6.000e+02 6.000e+02 6.000e+02 6.000e+02 6.000e+02 6.000e+02 6.000e+02 6.000e+02 6.000e+02 6.000e+02 6.000e+02 6.000e+02 6.000e+02 6.000e+02 6.000e+02 6.000e+02 6.000e+02 6.000e+02 6.000e+02 6.000e+02 6.000e+02 6.000e+02 6.000e+02 6.000e+02 6.000e+02 6.000e+02 6.000e+02 6.000e+02 6.000e+02 6.000e+02 6.000e+02 6.000e+02 6.000e+02 6.000e+02 6.000e+02 6.000e+02 6.000e+02 6.000e+02 6.000e+02 6.000e+02 6.000e+02 6.000e+02 6.000e+02 6.000e+02 6.000e+02 6.000e+02
           </DataArray>
           <DataArray type="Float32" Name="nitrate/optimalNutrientConcentration" NumberOfComponents="1" format="ascii">
 1.200e+03 1.200e+03 1.200e+03 1.200e+03 1.200e+03 1.200e+03 1.200e+03 1.200e+03 1.200e+03 1.200e+03 1.200e+03 1.200e+03 1.200e+03 1.200e+03 1.200e+03 1.200e+03 1.200e+03 1.200e+03 1.200e+03 1.200e+03 1.200e+03 1.200e+03 1.200e+03 1.200e+03 1.200e+03 1.200e+03 1.200e+03 1.200e+03 1.200e+03 1.200e+03 1.200e+03 1.200e+03 1.200e+03 1.200e+03 1.200e+03 1.200e+03 1.200e+03 1.200e+03 1.200e+03 1.200e+03 1.200e+03 1.200e+03 1.200e+03 1.200e+03 1.200e+03 1.200e+03 1.200e+03 1.200e+03 1.200e+03 1.200e+03 1.200e+03 1.200e+03 1.200e+03 1.200e+03 1.200e+03 1.200e+03 1.200e+03 1.200e+03 1.200e+03 1.200e+03 1.200e+03 1.200e+03 1.200e+03 1.200e+03 1.200e+03 1.200e+03 1.200e+03 1.200e+03 1.200e+03 1.200e+03 1.200e+03 1.200e+03 1.200e+03 1.200e+03 1.200e+03 1.200e+03 1.200e+03 1.200e+03 1.200e+03 1.200e+03 1.200e+03 1.200e+03 1.200e+03 1.200e+03 1.200e+03 1.200e+03 1.200e+03 1.200e+03 1.200e+03 1.200e+03 1.200e+03 1.200e+03 1.200e+03 1.200e+03 1.200e+03 1.200e+03 1.200e+03 1.200e+03 1.200e+03 1.200e+03 1.200e+03 1.200e+03 1.200e+03 1.200e+03 1.200e+03 1.200e+03 1.200e+03 1.200e+03 1.200e+03 1.200e+03 1.200e+03 1.200e+03 1.200e+03 1.200e+03 1.200e+03 1.200e+03 1.200e+03 1.200e+03 1.200e+03 1.200e+03 1.200e+03 1.200e+03 1.200e+03 1.200e+03 1.200e+03 1.200e+03 1.200e+03 1.200e+03 1.200e+03 1.200e+03 1.200e+03 1.200e+03 1.200e+03 1.200e+03 1.200e+03 1.200e+03 1.200e+03 1.200e+03 1.200e+03 1.200e+03 1.200e+03 1.200e+03 1.200e+03 1.200e+03 1.200e+03 1.200e+03 1.200e+03 1.200e+03 1.200e+03 1.200e+03 1.200e+03 1.200e+03 1.200e+03 1.200e+03 1.200e+03 1.200e+03 1.200e+03 1.200e+03 1.200e+03 1.200e+03 1.200e+03 1.200e+03 1.200e+03 1.200e+03 1.200e+03 1.200e+03 1.200e+03 1.200e+03 1.200e+03 1.200e+03 1.200e+03 1.200e+03 1.200e+03 1.200e+03 1.200e+03 1.200e+03 1.200e+03 1.200e+03 1.200e+03 1.200e+03 1.200e+03 1.200e+03 1.200e+03 1.200e+03 1.200e+03 1.200e+03 1.200e+03 1.200e+03 1.200e+03 1.200e+03 1.200e+03 1.200e+03 1.200e+03 1.200e+03 1.200e+03 1.200e+03 1.200e+03 1.200e+03 1.200e+03 1.200e+03 1.200e+03 1.200e+03 1.200e+03 1.200e+03 1.200e+03 1.200e+03 1.200e+03 1.200e+03 1.200e+03 1.200e+03 1.200e+03 1.200e+03 1.200e+03 1.200e+03 1.200e+03 1.200e+03 1.200e+03 1.200e+03 1.200e+03 1.200e+03 1.200e+03 1.200e+03 1.200e+03 1.200e+03 1.200e+03 1.200e+03 1.200e+03 1.200e+03 1.200e+03 1.200e+03 1.200e+03 1.200e+03 1.200e+03 1.200e+03 1.200e+03 1.200e+03 1.200e+03 1.200e+03 1.200e+03 1.200e+03 1.200e+03 1.200e+03 1.200e+03 1.200e+03 1.200e+03 1.200e+03 1.200e+03 1.200e+03 1.200e+03 1.200e+03 1.200e+03 1.200e+03 1.200e+03 1.200e+03 1.200e+03 1.200e+03 1.200e+03 1.200e+03 1.200e+03 1.200e+03 1.200e+03 1.200e+03 1.200e+03 1.200e+03 1.200e+03 1.200e+03 1.200e+03 1.200e+03 1.200e+03 1.200e+03 1.200e+03 1.200e+03 1.200e+03 1.200e+03 1.200e+03 1.200e+03 1.200e+03 1.200e+03 1.200e+03 1.200e+03 1.200e+03 1.200e+03 1.200e+03 1.200e+03 1.200e+03 1.200e+03 1.200e+03 1.200e+03 1.200e+03 1.200e+03 1.200e+03 1.200e+03 1.200e+03 1.200e+03 1.200e+03 1.200e+03 1.200e+03 1.200e+03 1.200e+03 1.200e+03 1.200e+03 1.200e+03 1.200e+03 1.200e+03 1.200e+03 1.200e+03 1.200e+03 1.200e+03 1.200e+03 1.200e+03 1.200e+03 1.200e+03 1.200e+03 1.200e+03 1.200e+03 1.200e+03 1.200e+03 1.200e+03 1.200e+03 1.200e+03 1.200e+03 1.200e+03 1.200e+03 1.200e+03 1.200e+03 1.200e+03 1.200e+03 1.200e+03 1.200e+03 1.200e+03 1.200e+03 1.200e+03 1.200e+03 1.200e+03 1.200e+03 1.200e+03 1.200e+03 1.200e+03 1.200e+03 1.200e+03 1.200e+03 1.200e+03 1.200e+03 1.200e+03 1.200e+03 1.200e+03 1.200e+03 1.200e+03 1.200e+03 1.200e+03 1.200e+03 1.200e+03 1.200e+03 1.200e+03 1.200e+03 1.200e+03 1.200e+03 1.200e+03 1.200e+03 1.200e+03 1.200e+03 1.200e+03 1.200e+03 1.200e+03 1.200e+03 1.200e+03 1.200e+03 1.200e+03 1.200e+03 1.200e+03 1.200e+03 1.200e+03 1.200e+03 1.200e+03 1.200e+03 1.200e+03 1.200e+03 1.200e+03 1.200e+03 1.200e+03 1.200e+03 1.200e+03 1.200e+03 1.200e+03 1.200e+03 1.200e+03 1.200e+03 1.200e+03 1.200e+03 1.200e+03 1.200e+03 1.200e+03 1.200e+03 1.200e+03 1.200e+03 1.200e+03 1.200e+03 1.200e+03 1.200e+03 1.200e+03 1.200e+03 1.200e+03 1.200e+03 1.200e+03 1.200e+03 1.200e+03 1.200e+03 1.200e+03 1.200e+03 1.200e+03 1.200e+03 1.200e+03 1.200e+03 1.200e+03 1.200e+03 1.200e+03 1.200e+03 1.200e+03 1.200e+03 1.200e+03 1.200e+03 1.200e+03 1.200e+03 1.200e+03 1.200e+03 1.200e+03 1.200e+03 1.200e+03 1.200e+03 1.200e+03 1.200e+03 1.200e+03 1.200e+03 1.200e+03 1.200e+03 1.200e+03 1.200e+03 1.200e+03 1.200e+03 1.200e+03 1.200e+03 1.200e+03 1.200e+03 1.200e+03 1.200e+03 1.200e+03 1.200e+03 1.200e+03 1.200e+03 1.200e+03 1.200e+03 1.200e+03 1.200e+03 1.200e+03 1.200e+03 1.200e+03 1.200e+03 1.200e+03 1.200e+03 1.200e+03 1.200e+03 1.200e+03 1.200e+03 1.200e+03 1.200e+03 1.200e+03 1.200e+03 1.200e+03 1.200e+03 1.200e+03 1.200e+03 1.200e+03 1.200e+03 1.200e+03 1.200e+03 1.200e+03 1.200e+03 1.200e+03 1.200e+03 1.200e+03 1.200e+03 1.200e+03 1.200e+03 1.200e+03 1.200e+03 1.200e+03 1.200e+03 1.200e+03 1.200e+03 1.200e+03 1.200e+03 1.200e+03 1.200e+03 1.200e+03 1.200e+03 1.200e+03 1.200e+03 1.200e+03 1.200e+03 1.200e+03 1.200e+03 1.200e+03 1.200e+03 1.200e+03 1.200e+03 1.200e+03 1.200e+03 1.200e+03 1.200e+03 1.200e+03 1.200e+03 1.200e+03 1.200e+03 1.200e+03 1.200e+03 1.200e+03 1.200e+03 1.200e+03 1.200e+03 1.200e+03 1.200e+03 1.200e+03 1.200e+03 1.200e+03 1.200e+03 1.200e+03 1.200e+03 1.200e+03 1.200e+03 1.200e+03 1.200e+03 1.200e+03 1.200e+03 1.200e+03 1.200e+03 1.200e+03 1.200e+03 1.200e+03 1.200e+03 1.200e+03 1.200e+03 1.200e+03 1.200e+03 1.200e+03 1.200e+03 1.200e+03 1.200e+03 1.200e+03 1.200e+03 1.200e+03 1.200e+03 1.200e+03 1.200e+03 1.200e+03 1.200e+03 1.200e+03 1.200e+03 1.200e+03 1.200e+03 1.200e+03 1.200e+03 1.200e+03 1.200e+03 1.200e+03 1.200e+03 1.200e+03 1.200e+03 1.200e+03 1.200e+03 1.200e+03 1.200e+03 1.200e+03 1.200e+03 1.200e+03 1.200e+03 1.200e+03 1.200e+03 1.200e+03 1.200e+03 1.200e+03 1.200e+03 1.200e+03 1.200e+03 1.200e+03 1.200e+03 1.200e+03 1.200e+03 1.200e+03 1.200e+03 1.200e+03 1.200e+03 1.200e+03 1.200e+03 1.200e+03 1.200e+03 1.200e+03 1.200e+03 1.200e+03 1.200e+03 1.200e+03 1.200e+03 1.200e+03 1.200e+03 1.200e+03 1.200e+03 1.200e+03 1.200e+03 1.200e+03 1.200e+03 1.200e+03 1.200e+03 1.200e+03 1.200e+03 1.200e+03 1.200e+03 1.200e+03 1.200e+03 1.200e+03 1.200e+03 1.200e+03 1.200e+03
           </DataArray>
           <DataArray type="Float32" Name="nitrate/radiusDepletionZone" NumberOfComponents="1" format="ascii">