<?xml version="1.0"?>
<VTKFile type="UnstructuredGrid" version="0.1" byte_order="LittleEndian">
   <UnstructuredGrid>
      <Piece NumberOfPoints="46480" NumberOfCells="3357">
         <Points>
            <DataArray type="Float32" Name="Position" NumberOfComponents="3" format="ascii">
0.138	-5.019	0.063
0.142	-5.018	0.071
0.141	-5.018	0.080
0.134	-5.018	0.087
0.125	-5.019	0.089
0.117	-5.019	0.084
0.113	-5.020	0.076
0.114	-5.021	0.067
0.121	-5.021	0.060
0.130	-5.020	0.059
0.202	-5.871	0.125
0.206	-5.870	0.133
0.205	-5.869	0.142
0.199	-5.870	0.149
0.190	-5.872	0.151
0.182	-5.874	0.147
0.178	-5.875	0.139
0.179	-5.876	0.130
0.185	-5.875	0.123
0.194	-5.873	0.121
0.484	-6.719	0.181
0.489	-6.717	0.189
0.488	-6.716	0.198
0.482	-6.718	0.205
0.473	-6.720	0.207
0.465	-6.724	0.204
0.461	-6.726	0.196
0.462	-6.727	0.187
0.468	-6.725	0.180
0.476	-6.723	0.178
0.777	-7.489	0.301
0.781	-7.486	0.309
0.780	-7.484	0.318
0.774	-7.486	0.325
0.765	-7.489	0.327
0.758	-7.493	0.324
0.754	-7.496	0.316
0.755	-7.497	0.307
0.761	-7.496	0.300
0.769	-7.493	0.298
0.866	-7.672	0.345
0.870	-7.668	0.352
0.868	-7.667	0.361
0.862	-7.668	0.368
0.854	-7.671	0.371
0.847	-7.676	0.367
0.843	-7.680	0.360
0.844	-7.681	0.351
0.850	-7.680	0.344
0.858	-7.676	0.341
0.260	-5.055	0.132
0.258	-5.048	0.137
0.254	-5.046	0.146
0.250	-5.049	0.153
0.247	-5.057	0.157
0.247	-5.066	0.156
0.249	-5.073	0.151
0.253	-5.075	0.143
0.257	-5.072	0.135
0.260	-5.064	0.131
0.961	-5.105	0.485
0.958	-5.098	0.490
0.955	-5.096	0.499
0.951	-5.099	0.506
0.948	-5.107	0.510
0.948	-5.116	0.509
0.950	-5.123	0.504
0.954	-5.126	0.495
0.958	-5.122	0.488
0.960	-5.114	0.484
1.794	-5.187	0.875
1.792	-5.180	0.880
1.788	-5.177	0.888
1.784	-5.180	0.895
1.780	-5.188	0.900
1.779	-5.197	0.899
1.781	-5.204	0.894
1.785	-5.207	0.886
1.790	-5.204	0.878
1.793	-5.197	0.874
2.451	-5.320	1.298
2.450	-5.312	1.303
2.445	-5.308	1.310
2.440	-5.310	1.317
2.436	-5.317	1.322
2.434	-5.326	1.322
2.435	-5.334	1.317
2.440	-5.338	1.310
2.445	-5.336	1.303
2.450	-5.329	1.298
3.048	-5.438	1.792
3.056	-5.438	1.796
3.065	-5.438	1.794
3.071	-5.438	1.788
3.073	-5.438	1.779
3.069	-5.438	1.770
3.060	-5.438	1.766
3.051	-5.438	1.768
3.045	-5.438	1.774
3.043	-5.438	1.783
1.335	-5.666	0.701
1.339	-5.657	0.702
1.338	-5.648	0.703
1.331	-5.642	0.704
1.322	-5.641	0.703
1.314	-5.645	0.702
1.310	-5.653	0.700
1.311	-5.662	0.699
1.318	-5.669	0.699
1.327	-5.670	0.700
1.255	-5.776	1.529
1.259	-5.768	1.530
1.257	-5.759	1.531
1.251	-5.752	1.532
1.242	-5.751	1.531
1.233	-5.755	1.530
1.229	-5.763	1.529
1.231	-5.773	1.528
1.238	-5.779	1.528
1.247	-5.780	1.528
1.222	-5.865	2.387
1.227	-5.857	2.388
1.225	-5.848	2.388
1.219	-5.841	2.388
1.210	-5.840	2.388
1.201	-5.844	2.386
1.197	-5.852	2.386
1.199	-5.861	2.385
1.205	-5.868	2.385
1.214	-5.870	2.386
1.109	-5.908	3.259
1.113	-5.900	3.260
1.112	-5.891	3.260
1.106	-5.884	3.260
1.097	-5.882	3.259
1.089	-5.886	3.257
1.084	-5.894	3.256
1.085	-5.903	3.256
1.092	-5.910	3.257
1.101	-5.912	3.258
7.085	-17.272	3.633
7.080	-17.269	3.640
7.074	-17.262	3.643
7.069	-17.255	3.641
7.067	-17.249	3.634
7.069	-17.248	3.625
7.073	-17.250	3.618
7.079	-17.257	3.614
7.084	-17.264	3.617
7.086	-17.270	3.624
6.461	-17.756	3.444
6.457	-17.754	3.451
6.451	-17.747	3.455
6.446	-17.740	3.452
6.444	-17.734	3.445
6.445	-17.732	3.436
6.450	-17.735	3.429
6.456	-17.742	3.426
6.461	-17.749	3.428
6.463	-17.755	3.435
7.115	-17.390	3.638
7.123	-17.388	3.641
7.131	-17.391	3.645
7.135	-17.399	3.649
7.133	-17.408	3.652
7.126	-17.414	3.651
7.118	-17.416	3.649
7.110	-17.413	3.645
7.106	-17.405	3.641
7.108	-17.396	3.638
7.394	-17.658	2.889
7.402	-17.657	2.892
7.410	-17.660	2.896
7.413	-17.668	2.900
7.412	-17.676	2.902
7.405	-17.683	2.902
7.396	-17.685	2.900
7.389	-17.681	2.895
7.385	-17.674	2.891
7.387	-17.665	2.889
7.172	-17.557	3.665
7.167	-17.554	3.672
7.161	-17.548	3.675
7.156	-17.540	3.673
7.154	-17.535	3.666
7.156	-17.533	3.657
7.161	-17.535	3.650
7.167	-17.542	3.647
7.172	-17.549	3.649
7.174	-17.555	3.656
6.578	-18.032	3.441
6.574	-18.029	3.449
6.568	-18.023	3.452
6.563	-18.015	3.449
6.561	-18.010	3.442
6.562	-18.008	3.433
6.567	-18.011	3.426
6.573	-18.017	3.422
6.578	-18.025	3.425
6.580	-18.030	3.432
6.352	-18.199	3.383
6.348	-18.196	3.390
6.342	-18.189	3.393
6.337	-18.182	3.391
6.335	-18.176	3.383
6.336	-18.175	3.374
6.341	-18.178	3.367
6.347	-18.185	3.364
6.351	-18.193	3.366
6.354	-18.198	3.374
7.212	-17.681	3.661
7.209	-17.675	3.668
7.206	-17.673	3.676
7.203	-17.678	3.684
7.201	-17.686	3.687
7.202	-17.695	3.686
7.204	-17.701	3.680
7.208	-17.703	3.671
7.211	-17.698	3.664
7.212	-17.690	3.660
7.931	-17.693	3.957
7.928	-17.686	3.963
7.924	-17.684	3.971
7.920	-17.688	3.979
7.918	-17.696	3.983
7.918	-17.705	3.982
7.921	-17.712	3.976
7.925	-17.714	3.968
7.929	-17.710	3.961
7.931	-17.702	3.956
8.086	-17.698	4.072
8.094	-17.693	4.072
8.103	-17.695	4.072
8.110	-17.701	4.072
8.111	-17.710	4.072
8.107	-17.719	4.072
8.099	-17.723	4.072
8.089	-17.722	4.072
8.083	-17.715	4.072
8.081	-17.706	4.072
7.243	-17.819	3.679
7.251	-17.817	3.683
7.259	-17.820	3.687
7.262	-17.828	3.691
7.261	-17.837	3.693
7.255	-17.844	3.692
7.247	-17.846	3.688
7.239	-17.843	3.684
7.236	-17.835	3.680
7.237	-17.826	3.678
7.620	-18.022	2.952
7.628	-18.020	2.956
7.635	-18.023	2.962
7.638	-18.031	2.966
7.636	-18.040	2.968
7.630	-18.047	2.967
7.622	-18.049	2.962
7.615	-18.046	2.957
7.612	-18.038	2.952
7.614	-18.029	2.950
7.659	-18.042	2.904
7.667	-18.039	2.909
7.673	-18.042	2.915
7.675	-18.050	2.920
7.673	-18.059	2.922
7.667	-18.066	2.920
7.660	-18.068	2.915
7.654	-18.065	2.909
7.651	-18.057	2.904
7.653	-18.048	2.902
7.302	-17.986	3.698
7.306	-17.978	3.699
7.305	-17.968	3.700
7.298	-17.962	3.699
7.289	-17.960	3.698
7.281	-17.964	3.697
7.277	-17.972	3.696
7.278	-17.981	3.695
7.284	-17.988	3.695
7.293	-17.990	3.696
7.205	-18.051	4.425
7.209	-18.042	4.426
7.208	-18.033	4.427
7.201	-18.027	4.427
7.192	-18.025	4.426
7.184	-18.029	4.424
7.180	-18.037	4.423
7.181	-18.046	4.422
7.187	-18.053	4.422
7.196	-18.055	4.423
7.341	-18.130	3.713
7.337	-18.128	3.721
7.331	-18.121	3.724
7.326	-18.114	3.721
7.324	-18.108	3.714
7.325	-18.106	3.705
7.330	-18.109	3.698
7.336	-18.116	3.695
7.341	-18.123	3.697
7.343	-18.129	3.704
6.680	-18.647	3.490
6.675	-18.645	3.497
6.669	-18.638	3.500
6.664	-18.631	3.498
6.662	-18.625	3.491
6.664	-18.623	3.482
6.668	-18.626	3.474
6.674	-18.633	3.471
6.679	-18.640	3.474
6.681	-18.646	3.481
7.384	-18.274	3.725
7.380	-18.271	3.732
7.374	-18.264	3.736
7.369	-18.257	3.733
7.366	-18.251	3.726
7.367	-18.250	3.717
7.372	-18.253	3.710
7.377	-18.259	3.706
7.383	-18.267	3.709
7.385	-18.272	3.716
6.719	-18.779	3.564
6.715	-18.776	3.571
6.709	-18.769	3.575
6.704	-18.762	3.572
6.701	-18.756	3.565
6.703	-18.755	3.556
6.707	-18.758	3.548
6.713	-18.764	3.545
6.718	-18.772	3.547
6.720	-18.777	3.555
7.421	-18.418	3.739
7.416	-18.415	3.746
7.410	-18.408	3.748
7.406	-18.401	3.745
7.405	-18.395	3.737
7.407	-18.394	3.728
7.413	-18.397	3.721
7.418	-18.404	3.719
7.423	-18.412	3.723
7.424	-18.417	3.730
6.814	-18.868	3.495
6.809	-18.865	3.502
6.803	-18.859	3.505
6.799	-18.851	3.502
6.797	-18.846	3.495
6.799	-18.844	3.486
6.804	-18.847	3.479
6.810	-18.854	3.476
6.815	-18.861	3.479
6.816	-18.867	3.486
6.763	-18.909	3.479
6.759	-18.906	3.487
6.753	-18.899	3.490
6.748	-18.892	3.487
6.745	-18.886	3.480
6.747	-18.885	3.471
6.751	-18.888	3.464
6.757	-18.894	3.461
6.762	-18.901	3.463
6.764	-18.907	3.470
7.445	-18.540	3.739
7.454	-18.538	3.742
7.461	-18.542	3.747
7.463	-18.550	3.752
7.460	-18.558	3.755
7.453	-18.563	3.755
7.444	-18.565	3.752
7.437	-18.561	3.747
7.435	-18.553	3.742
7.438	-18.545	3.739
7.726	-18.900	3.100
7.735	-18.899	3.103
7.742	-18.902	3.108
7.744	-18.910	3.113
7.741	-18.918	3.117
7.734	-18.924	3.117
7.725	-18.925	3.113
7.718	-18.921	3.108
7.716	-18.914	3.103
7.719	-18.906	3.100
1.430	-5.725	0.753
1.437	-5.722	0.758
1.444	-5.725	0.763
1.448	-5.733	0.767
1.448	-5.742	0.767
1.443	-5.749	0.764
1.436	-5.752	0.759
1.429	-5.749	0.753
1.425	-5.741	0.750
1.425	-5.732	0.749
1.968	-5.765	0.055
1.975	-5.762	0.061
1.981	-5.765	0.067
1.985	-5.772	0.070
1.985	-5.782	0.071
1.980	-5.789	0.067
1.974	-5.792	0.061
1.967	-5.789	0.055
1.964	-5.781	0.052
1.964	-5.772	0.051
2.549	-5.804	-0.500
2.555	-5.801	-0.494
2.561	-5.804	-0.487
2.563	-5.812	-0.482
2.563	-5.821	-0.482
2.558	-5.828	-0.485
2.552	-5.831	-0.492
2.547	-5.828	-0.499
2.544	-5.820	-0.503
2.545	-5.811	-0.504
3.165	-5.962	-0.991
3.171	-5.959	-0.984
3.175	-5.962	-0.976
3.178	-5.969	-0.971
3.177	-5.979	-0.970
3.173	-5.986	-0.974
3.167	-5.989	-0.981
3.162	-5.986	-0.989
3.160	-5.979	-0.994
3.161	-5.970	-0.995
3.753	-6.024	-1.355
3.758	-6.021	-1.347
3.762	-6.024	-1.340
3.764	-6.032	-1.335
3.764	-6.041	-1.334
3.760	-6.048	-1.338
3.756	-6.051	-1.346
3.751	-6.049	-1.353
3.749	-6.041	-1.358
3.749	-6.032	-1.359
7.476	-18.685	3.755
7.485	-18.682	3.759
7.492	-18.685	3.763
7.497	-18.692	3.766
7.496	-18.702	3.767
7.491	-18.709	3.765
7.483	-18.712	3.762
7.475	-18.709	3.758
7.470	-18.701	3.755
7.471	-18.692	3.754
7.740	-18.760	3.167
7.749	-18.757	3.170
7.756	-18.760	3.174
7.761	-18.768	3.177
7.760	-18.777	3.178
7.755	-18.784	3.177
7.747	-18.787	3.173
7.739	-18.784	3.170
7.734	-18.776	3.167
7.735	-18.767	3.166
7.529	-18.852	3.773
7.533	-18.845	3.776
7.531	-18.836	3.779
7.524	-18.829	3.779
7.515	-18.828	3.777
7.507	-18.832	3.774
7.504	-18.840	3.771
7.506	-18.848	3.768
7.513	-18.855	3.768
7.522	-18.856	3.770
7.409	-19.016	4.281
7.412	-19.008	4.284
7.410	-19.000	4.286
7.404	-18.993	4.287
7.395	-18.992	4.285
7.387	-18.996	4.282
7.383	-19.004	4.279
7.385	-19.012	4.276
7.392	-19.019	4.276
7.401	-19.020	4.278
7.556	-18.979	3.775
7.555	-18.973	3.782
7.553	-18.973	3.791
7.551	-18.978	3.799
7.550	-18.987	3.801
7.550	-18.996	3.799
7.551	-19.002	3.791
7.553	-19.002	3.782
7.555	-18.996	3.775
7.556	-18.988	3.772
8.305	-19.033	3.941
8.304	-19.028	3.948
8.302	-19.028	3.957
8.300	-19.033	3.965
8.299	-19.042	3.968
8.299	-19.050	3.965
8.300	-19.056	3.957
8.302	-19.056	3.948
8.304	-19.051	3.941
8.305	-19.042	3.938
7.593	-19.126	3.788
7.591	-19.120	3.795
7.587	-19.118	3.803
[...]
         <CellData>
           <DataArray type="Float32" Name="combinedRootClassID" NumberOfComponents="1" format="ascii">
 -1.300e+01 -1.300e+01 -1.300e+01 -1.300e+01 -1.300e+01 -1.300e+01 -1.300e+01 -1.300e+01 -1.300e+01 -1.300e+01 -1.300e+01 -1.300e+01 -1.300e+01 -1.300e+01 -1.300e+01 -1.300e+01 -1.300e+01 -1.300e+01 -1.300e+01 -1.300e+01 -1.300e+01 -1.300e+01 -1.300e+01 -1.300e+01 -1.300e+01 -1.300e+01 -1.300e+01 -1.300e+01 -1.300e+01 -1.300e+01 -1.300e+01 -1.300e+01 -1.300e+01 -1.300e+01 -1.300e+01 -1.300e+01 -1.300e+01 -1.300e+01 -1.300e+01 -1.300e+01 -1.300e+01 -1.300e+01 -1.300e+01 -1.300e+01 -1.300e+01 -1.300e+01 -1.300e+01 -1.300e+01 -1.300e+01 -1.300e+01 -1.300e+01 -1.300e+01 -1.300e+01 -1.300e+01 -1.300e+01 -1.300e+01 -1.300e+01 -1.300e+01 -1.300e+01 -1.300e+01 -1.300e+01 -1.300e+01 -1.300e+01 -1.300e+01 -1.300e+01 -1.300e+01 -1.300e+01 -1.300e+01 -1.300e+01 -1.300e+01 -1.300e+01 -1.300e+01 -1.300e+01 -1.300e+01 -1.300e+01 -1.300e+01 -1.300e+01 -1.300e+01 -1.300e+01 -1.300e+01 -1.300e+01 -1.300e+01 -1.300e+01 -1.300e+01 -1.300e+01 -1.300e+01 -1.300e+01 -1.300e+01 -1.300e+01 -1.300e+01 -1.300e+01 -1.300e+01 -1.300e+01 -1.300e+01 -1.300e+01 -1.300e+01 -1.300e+01 -1.300e+01 -1.300e+01 -1.300e+01 -1.300e+01 -1.300e+01 -1.300e+01 -1.300e+01 -1.300e+01 -1.300e+01 -1.300e+01 -1.300e+01 -1.300e+01 -1.300e+01 -1.300e+01 -1.300e+01 -1.300e+01 -1.300e+01 -1.300e+01 -1.300e+01 -1.300e+01 -1.300e+01 -1.300e+01 -1.300e+01 -1.300e+01 -1.300e+01 -1.300e+01 -1.300e+01 -1.300e+01 -1.300e+01 -1.300e+01 -1.300e+01 -1.300e+01 -1.300e+01 -1.300e+01 -1.300e+01 -1.300e+01 -1.300e+01 -1.300e+01 -1.300e+01 -1.300e+01 -1.300e+01 -1.300e+01 -1.300e+01 -1.300e+01 -1.300e+01 -1.300e+01 -1.300e+01 -1.300e+01 -1.300e+01 -1.300e+01 -1.300e+01 -1.300e+01 -1.300e+01 -1.300e+01 -1.300e+01 -1.300e+01 -1.300e+01 -1.300e+01 -1.300e+01 -1.300e+01 -1.300e+01 -1.300e+01 -1.300e+01 -1.300e+01 -1.300e+01 -1.300e+01 -1.300e+01 -1.300e+01 -1.300e+01 -1.300e+01 -1.300e+01 -1.300e+01 -1.300e+01 -1.300e+01 -1.300e+01 -1.300e+01 -1.300e+01 -1.300e+01 -1.300e+01 -1.300e+01 -1.300e+01 -1.300e+01 -1.300e+01 -1.300e+01 -1.300e+01 -1.300e+01 -1.300e+01 -1.300e+01 -1.300e+01 -1.300e+01 -1.300e+01 -1.300e+01 -1.300e+01 -1.300e+01 -1.300e+01 -1.300e+01 -1.300e+01 -1.300e+01 -1.300e+01 -1.300e+01 -1.300e+01 -1.300e+01 -1.300e+01 -1.300e+01 -1.300e+01 -1.300e+01 -1.300e+01 -1.300e+01 -1.300e+01 -1.300e+01 -1.300e+01 -1.300e+01 -1.300e+01 -1.300e+01 -1.300e+01 -1.300e+01 -1.300e+01 -1.300e+01 -1.300e+01 -1.300e+01 -1.300e+01 -1.300e+01 -1.300e+01 -1.300e+01 -1.300e+01 -1.300e+01 -1.300e+01 -1.300e+01 -1.300e+01 -1.300e+01 -1.300e+01 -1.300e+01 -1.300e+01 -1.300e+01 -1.300e+01 -1.300e+01 -1.300e+01 -1.300e+01 -1.300e+01 -1.300e+01 -1.300e+01 -1.300e+01 -1.300e+01 -1.300e+01 -1.300e+01 -1.300e+01 -1.300e+01 -1.300e+01 -1.300e+01 -1.300e+01 -1.300e+01 -1.300e+01 -1.300e+01 -1.300e+01 -1.300e+01 -1.300e+01 -1.300e+01 -1.300e+01 -1.300e+01 -1.300e+01 -1.300e+01 -1.300e+01 -1.300e+01 -1.300e+01 -1.300e+01 -1.300e+01 -1.300e+01 -1.300e+01 -1.300e+01 -1.300e+01 -1.300e+01 -1.300e+01 -1.300e+01 -1.300e+01 -1.300e+01 -1.300e+01 -1.300e+01 -1.300e+01 -1.300e+01 -1.300e+01 -1.300e+01 -1.300e+01 -1.300e+01 -1.300e+01 -1.300e+01 -1.300e+01 -1.300e+01 -1.300e+01 -1.300e+01 -1.300e+01 -1.300e+01 -1.300e+01 -1.300e+01 -1.300e+01 -1.300e+01 -1.300e+01 -1.300e+01 -1.300e+01 -1.300e+01 -1.300e+01 -1.300e+01 -1.300e+01 -1.300e+01 -1.300e+01 -1.300e+01 -1.300e+01 -1.300e+01 -1.300e+01 -1.300e+01 -1.300e+01 -1.300e+01 -1.300e+01 -1.300e+01 -1.300e+01 -1.300e+01 -1.300e+01 -1.300e+01 -1.300e+01 -1.300e+01 -1.300e+01 -1.300e+01 -1.300e+01 -1.300e+01 -1.300e+01 -1.300e+01 -1.300e+01 -1.300e+01 -1.300e+01 -1.300e+01 -1.300e+01 -1.300e+01 -1.300e+01 -1.300e+01 -1.300e+01 -1.300e+01 -1.300e+01 -1.300e+01 -1.300e+01 -1.300e+01 -1.300e+01 -1.300e+01 -1.300e+01 -1.300e+01 -1.300e+01 -1.300e+01 -1.300e+01 -5.000e+00 -5.000e+00 -5.000e+00 -5.000e+00 -5.000e+00 -5.000e+00 -5.000e+00 -5.000e+00 -5.000e+00 -5.000e+00 -5.000e+00 -5.000e+00 -5.000e+00 -5.000e+00 -5.000e+00 -5.000e+00 -5.000e+00 -5.000e+00 -5.000e+00 -5.000e+00 -5.000e+00 -5.000e+00 -5.000e+00 -5.000e+00 -5.000e+00 -5.000e+00 -5.000e+00 -5.000e+00 -5.000e+00 -5.000e+00 -5.000e+00 -5.000e+00 -5.000e+00 -5.000e+00 -5.000e+00 -5.000e+00 -5.000e+00 -5.000e+00 -1.300e+01 -1.300e+01 -1.300e+01 -1.300e+01 -1.300e+01 -1.300e+01 -1.300e+01 -1.300e+01 -1.300e+01 -1.300e+01 -1.300e+01 -1.300e+01 -1.300e+01 -1.300e+01 -1.300e+01 -1.300e+01 -1.300e+01 -1.300e+01 -1.300e+01 -1.300e+01 -1.300e+01 -1.300e+01 -1.300e+01 -1.300e+01 -1.300e+01 -1.300e+01 -1.300e+01 -1.300e+01 -1.300e+01 -1.300e+01 -1.300e+01 -1.300e+01 -1.300e+01 -1.300e+01 -1.300e+01 -1.300e+01 -1.300e+01 -1.300e+01 -1.300e+01 -1.300e+01 -1.300e+01 -1.300e+01 -1.300e+01 -1.300e+01 -1.300e+01 -1.300e+01 -1.300e+01 -1.300e+01 -1.300e+01 -1.300e+01 -1.300e+01 -1.300e+01 -1.300e+01 -1.300e+01 -1.300e+01 -1.300e+01 -1.300e+01 -1.300e+01 -1.300e+01 -1.300e+01 -1.300e+01 -1.300e+01 -1.300e+01 -1.300e+01 -1.300e+01 -1.300e+01 -1.300e+01 -1.300e+01 -1.300e+01 -1.300e+01 -1.300e+01 -1.300e+01 -1.300e+01 -1.300e+01 -1.300e+01 -1.300e+01 -1.300e+01 -1.300e+01 -1.300e+01 -1.300e+01 -1.300e+01 -1.300e+01 -1.300e+01 -1.300e+01 -1.300e+01 -1.300e+01 -1.300e+01 -1.300e+01 -1.300e+01 -1.300e+01 -1.300e+01 -1.300e+01 -1.300e+01 -1.300e+01 -1.300e+01 -1.300e+01 -1.300e+01 -1.300e+01 -1.300e+01 -1.300e+01 -1.300e+01 -1.300e+01 -1.300e+01 -1.300e+01 -1.300e+01 -1.300e+01 -1.300e+01 -1.300e+01 -1.300e+01 -1.300e+01 -1.300e+01 -1.300e+01 -1.300e+01 -1.300e+01 -1.300e+01 -1.300e+01 -1.300e+01 -1.300e+01 -1.300e+01 -1.300e+01 -1.300e+01 -1.300e+01 -1.300e+01 -1.300e+01 -1.300e+01 -1.300e+01 -1.300e+01 -1.300e+01 -1.300e+01 -1.300e+01 -1.300e+01 -1.300e+01 -1.300e+01 -1.300e+01 -1.300e+01 -1.300e+01 -1.300e+01 -1.300e+01 -1.300e+01 -1.300e+01 -1.300e+01 -1.300e+01 -1.300e+01 -1.300e+01 -1.300e+01 -1.300e+01 -1.300e+01 -1.300e+01 -1.300e+01 -1.300e+01 -1.300e+01 -1.300e+01 -1.300e+01 -1.300e+01 -1.300e+01 -1.300e+01 -1.300e+01 -1.300e+01 -1.300e+01 -1.300e+01 -1.300e+01 -1.300e+01 -1.300e+01 -1.300e+01 -1.300e+01 -1.300e+01 -1.300e+01 -1.300e+01 -1.300e+01 -1.300e+01 -1.300e+01 -1.300e+01 -1.300e+01 -1.300e+01 -1.300e+01 -1.300e+01 -1.300e+01 -1.300e+01 -1.300e+01 -1.300e+01 -1.300e+01 -1.300e+01 -1.300e+01 -1.300e+01 -1.300e+01 -1.300e+01 -1.300e+01 -1.300e+01 -1.300e+01 -1.300e+01 -1.300e+01 -1.300e+01 -1.300e+01 -1.300e+01 -1.300e+01 -1.300e+01 -1.300e+01 -1.300e+01 -1.300e+01 -1.300e+01 -1.300e+01 -1.300e+01 -1.300e+01 -1.300e+01 -1.300e+01 -1.300e+01 -1.300e+01 -1.300e+01 -1.300e+01 -1.300e+01 -1.300e+01 -1.300e+01 -1.300e+01 -1.300e+01 -1.300e+01 -1.300e+01 -1.300e+01 -1.300e+01 -1.300e+01 -1.300e+01 -1.300e+01 -1.300e+01 -1.300e+01 -1.300e+01 -1.300e+01 -1.300e+01 -1.300e+01 -1.300e+01 -1.300e+01 -1.300e+01 -1.300e+01 -1.300e+01 -1.300e+01 -1.300e+01 -1.300e+01 -1.300e+01 -1.300e+01 -1.300e+01 -1.300e+01 -1.300e+01 -1.300e+01 -1.300e+01 -1.300e+01 -1.300e+01 -1.300e+01 -1.300e+01 -1.300e+01 -1.300e+01 -1.300e+01 -1.300e+01 -1.300e+01 -1.300e+01 -1.300e+01 -1.300e+01 -1.300e+01 -1.300e+01 -1.300e+01 -1.300e+01 -1.300e+01 -1.300e+01 -1.300e+01 -1.300e+01 -1.300e+01 -1.300e+01 -1.300e+01 -1.300e+01 -1.300e+01 -1.300e+01 -1.300e+01 -1.300e+01 -1.300e+01 -1.300e+01 -1.300e+01 -1.300e+01 -1.300e+01 -1.300e+01 -1.300e+01 -1.300e+01 -1.300e+01 -1.300e+01 -1.300e+01 -1.300e+01 -1.300e+01 -1.300e+01 -1.300e+01 -1.300e+01 -1.300e+01 -1.300e+01 -1.300e+01 -1.300e+01 -1.300e+01 -1.300e+01 -1.300e+01 -1.300e+01 -1.300e+01 -1.300e+01 -1.300e+01 -1.300e+01 -1.300e+01 -1.300e+01 -1.300e+01 -1.300e+01 -1.300e+01 -1.300e+01 -1.300e+01 -1.300e+01 -1.300e+01 -1.300e+01 -1.300e+01 -1.300e+01 -1.300e+01 -1.300e+01 -1.300e+01 -1.300e+01 -1.300e+01 -1.300e+01 -1.300e+01 -1.300e+01 -1.300e+01 -1.300e+01 -1.300e+01 -1.300e+01 -1.300e+01 -1.300e+01 -1.300e+01 -1.300e+01 -1.300e+01 -1.300e+01 -1.300e+01 -1.300e+01 -1.300e+01 -1.300e+01 -1.300e+01 -1.300e+01 -1.300e+01 -1.300e+01 -1.300e+01 -1.300e+01 -1.300e+01 -1.300e+01 -5.000e+00 -5.000e+00 -5.000e+00 -5.000e+00 -5.000e+00 -5.000e+00 -5.000e+00 -5.000e+00 -5.000e+00 -5.000e+00 -5.000e+00 -5.000e+00 -5.000e+00 -5.000e+00 -5.000e+00 -5.000e+00 -5.000e+00 -5.000e+00 -5.000e+00 -5.000e+00 -5.000e+00 -5.000e+00 -5.000e+00 -5.000e+00 -5.000e+00 -5.000e+00 -5.000e+00 -5.000e+00 -5.000e+00 -5.000e+00 -5.000e+00 -5.000e+00 -5.000e+00 -5.000e+00 -5.000e+00 -5.000e+00 -5.000e+00 -5.000e+00 -1.300e+01 -1.300e+01 -1.300e+01 -1.300e+01 -1.300e+01 -1.300e+01 -1.300e+01 -1.300e+01 -1.300e+01 -1.300e+01 -1.300e+01 -1.300e+01 -1.300e+01 -1.300e+01 -1.300e+01 -1.300e+01 -1.300e+01 -1.300e+01 -1.300e+01 -1.300e+01 -1.300e+01 -1.300e+01 -1.300e+01 -1.300e+01 -1.300e+01 -1.300e+01 -1.300e+01 -1.300e+01 -1.300e+01 -1.300e+01 -1.300e+01 -1.300e+01 -1.300e+01 -1.300e+01 -1.300e+01 -1.300e+01 -1.300e+01 -1.300e+01 -1.300e+01 -1.300e+01 -1.300e+01 -1.300e+01 -1.300e+01 -1.300e+01 -1.300e+01 -1.300e+01 -1.300e+01 -1.300e+01 -1.300e+01 -1.300e+01 -1.300e+01 -1.300e+01 -1.300e+01 -1.300e+01 -1.300e+01 -1.300e+01 -1.300e+01 -1.300e+01 -1.300e+01 -1.300e+01 -1.300e+01 -1.300e+01 -1.300e+01 -1.300e+01 -1.300e+01 -1.300e+01 -1.300e+01 -1.300e+01 -1.300e+01 -1.300e+01 -1.300e+01 -1.300e+01 -1.300e+01 -1.300e+01 -1.300e+01 -1.300e+01 -1.300e+01 -1.300e+01 -1.300e+01 -1.300e+01 -1.300e+01 -1.300e+01 -1.300e+01 -1.300e+01 -1.300e+01 -1.300e+01 -1.300e+01 -1.300e+01 -1.300e+01 -1.300e+01 -1.300e+01 -1.300e+01 -1.300e+01 -1.300e+01 -1.300e+01 -1.300e+01 -1.300e+01 -1.300e+01 -1.300e+01 -1.300e+01 -1.300e+01 -1.300e+01 -1.300e+01 -1.300e+01 -1.300e+01 -1.300e+01 -1.300e+01 -1.300e+01 -1.300e+01 -1.300e+01 -1.300e+01 -1.300e+01 -1.300e+01 -1.300e+01 -1.300e+01 -1.300e+01 -1.300e+01 -1.300e+01 -1.300e+01 -1.300e+01 -1.300e+01 -1.300e+01 -1.300e+01 -1.300e+01 -1.300e+01 -1.300e+01 -1.300e+01 -1.300e+01 -1.300e+01 -1.300e+01 -1.300e+01 -1.300e+01 -1.300e+01 -1.300e+01 -1.300e+01 -1.300e+01 -1.300e+01 -1.300e+01 -1.300e+01 -1.300e+01 -1.300e+01 -1.300e+01 -1.300e+01 -1.300e+01 -1.300e+01 -1.300e+01 -1.300e+01 -1.300e+01 -1.300e+01 -1.300e+01 -1.300e+01 -1.300e+01 -1.300e+01 -1.300e+01 -1.300e+01 -1.300e+01 -1.300e+01 -1.300e+01 -1.300e+01 -1.300e+01 -1.300e+01 -1.300e+01 -1.300e+01 -1.300e+01 -1.300e+01 -1.300e+01 -1.300e+01 -1.300e+01 -1.300e+01 -1.300e+01 -1.300e+01 -1.300e+01 -1.300e+01 -1.300e+01 -1.300e+01 -1.300e+01 -1.300e+01 -1.300e+01 -1.300e+01 -1.300e+01 -1.300e+01 -1.300e+01 -1.300e+01 -1.300e+01 -1.300e+01 -1.300e+01 -1.300e+01 -1.300e+01 -1.300e+01 -1.300e+01 -1.300e+01 -1.300e+01 -1.300e+01 -1.300e+01 -1.300e+01 -1.300e+01 -1.300e+01 -1.300e+01 -1.300e+01 -1.300e+01 -1.300e+01 -1.300e+01 -1.300e+01 -1.300e+01 -1.300e+01 -1.300e+01 -1.300e+01 -1.300e+01 -1.300e+01 -1.300e+01 -1.300e+01 -1.300e+01 -1.300e+01 -1.300e+01 -1.300e+01 -1.300e+01 -1.300e+01 -1.300e+01 -1.300e+01 -1.300e+01 -1.300e+01 -1.300e+01 -1.300e+01 -1.300e+01 -1.300e+01 -1.300e+01 -1.300e+01 -1.300e+01 -1.300e+01 -1.300e+01 -1.300e+01 -1.300e+01 -1.300e+01 -1.300e+01 -1.300e+01 -1.300e+01 -1.300e+01 -1.300e+01 -1.300e+01 -1.300e+01 -1.300e+01 -1.300e+01 -1.300e+01 -1.300e+01 -1.300e+01 -1.300e+01 -1.300e+01 -1.300e+01 -1.300e+01 -1.300e+01 -1.300e+01 -1.300e+01 -1.300e+01 -1.300e+01 -1.300e+01 -1.300e+01 -1.300e+01 -1.300e+01 -1.300e+01 -1.300e+01 -1.300e+01 -1.300e+01 -1.300e+01 -1.300e+01 -1.300e+01 -1.300e+01 -1.300e+01 -1.300e+01 -1.300e+01 -1.300e+01 -1.300e+01 -1.300e+01 -1.300e+01 -1.300e+01 -1.300e+01 -1.300e+01 -1.300e+01 -1.300e+01 -1.300e+01 -1.300e+01 -1.300e+01 -1.300e+01 -1.300e+01 -1.300e+01 -1.300e+01 -1.300e+01 -1.300e+01 -1.300e+01 -1.300e+01 -1.300e+01 -1.300e+01 -1.300e+01 -1.300e+01 -1.300e+01 -1.300e+01 -1.300e+01 -1.300e+01 -1.300e+01 -1.300e+01 -1.300e+01 -1.300e+01 -1.300e+01 -1.300e+01 -1.300e+01 -1.300e+01 -1.300e+01 -1.300e+01 -1.300e+01 -1.300e+01 -1.300e+01 -1.300e+01 -1.300e+01 -1.300e+01 -1.300e+01 -1.300e+01 -1.300e+01 -1.300e+01 -1.300e+01 -1.300e+01 -1.300e+01 -1.300e+01 -1.300e+01 -1.300e+01 -1.300e+01 -1.300e+01 -1.300e+01 -1.300e+01 -1.300e+01 -1.300e+01 -1.300e+01 -1.300e+01 -1.300e+01 -1.300e+01 -1.300e+01 -1.300e+01 -1.300e+01 -1.300e+01 -1.300e+01 -1.300e+01 -1.300e+01 -1.300e+01 -1.300e+01 -1.300e+01 -1.300e+01 -1.300e+01 -1.300e+01 -1.300e+01 -5.000e+00 -5.000e+00 -5.000e+00 -5.000e+00 -5.000e+00 -5.000e+00 -5.000e+00 -5.000e+00 -5.000e+00 -5.000e+00 -5.000e+00 -5.000e+00 -5.000e+00 -5.000e+00 -5.000e+00 -5.000e+00 -5.000e+00 -5.000e+00 -5.000e+00 -5.000e+00 -5.000e+00 -5.000e+00 -5.000e+00 -5.000e+00 -5.000e+00 -5.000e+00 -5.000e+00 -5.000e+00 -5.000e+00 -5.000e+00 -5.000e+00 -5.000e+00 -5.000e+00 -5.000e+00 -5.000e+00 -5.000e+00 -5.000e+00 -5.000e+00 -1.300e+01 -1.300e+01 -1.300e+01 -1.300e+01 -1.300e+01 -1.300e+01 -1.300e+01 -1.300e+01 -1.300e+01 -1.300e+01 -1.300e+01 -1.300e+01 -1.300e+01 -1.300e+01 -1.300e+01 -1.300e+01 -1.300e+01 -1.300e+01 -1.300e+01 -1.300e+01 -1.300e+01 -1.300e+01 -1.300e+01 -1.300e+01 -1.300e+01 -1.300e+01 -1.300e+01 -1.300e+01 -1.300e+01 -1.300e+01 -1.300e+01 -1.300e+01 -1.300e+01 -1.300e+01 -1.300e+01 -1.300e+01 -1.300e+01 -1.300e+01 -1.300e+01 -1.300e+01 -1.300e+01 -1.300e+01 -1.300e+01 -1.300e+01 -1.300e+01 -1.300e+01 -1.300e+01 -1.300e+01 -1.300e+01 -1.300e+01 -1.300e+01 -1.300e+01 -1.300e+01 -1.300e+01 -1.300e+01 -1.300e+01 -1.300e+01 -1.300e+01 -1.300e+01 -1.300e+01 -1.300e+01 -1.300e+01 -1.300e+01 -1.300e+01 -1.300e+01 -1.300e+01 -1.300e+01 -1.300e+01 -1.300e+01 -1.300e+01 -1.300e+01 -1.300e+01 -1.300e+01 -1.300e+01 -1.300e+01 -1.300e+01 -1.300e+01 -1.300e+01 -1.300e+01 -1.300e+01 -1.300e+01 -1.300e+01 -1.300e+01 -1.300e+01 -1.300e+01 -1.300e+01 -1.300e+01 -1.300e+01 -1.300e+01 -1.300e+01 -1.300e+01 -1.300e+01 -1.300e+01 -1.300e+01 -1.300e+01 -1.300e+01 -1.300e+01 -1.300e+01 -1.300e+01 -1.300e+01 -1.300e+01 -1.300e+01 -1.300e+01 -1.300e+01 -1.300e+01 -1.300e+01 -1.300e+01 -1.300e+01 -1.300e+01 -1.300e+01 -1.300e+01 -1.300e+01 -1.300e+01 -1.300e+01 -1.300e+01 -1.300e+01 -1.300e+01 -1.300e+01 -1.300e+01 -1.300e+01 -1.300e+01 -1.300e+01 -1.300e+01 -1.300e+01 -1.300e+01 -1.300e+01 -1.300e+01 -1.300e+01 -1.300e+01 -1.300e+01 -1.300e+01 -1.300e+01 -1.300e+01 -1.300e+01 -1.300e+01 -1.300e+01 -1.300e+01 -1.300e+01 -1.300e+01 -1.300e+01 -1.300e+01 -1.300e+01 -1.300e+01 -1.300e+01 -1.300e+01 -1.300e+01 -1.300e+01 -1.300e+01 -1.300e+01 -1.300e+01 -1.300e+01 -1.300e+01 -1.300e+01 -1.300e+01 -1.300e+01 -1.300e+01 -1.300e+01 -1.300e+01 -1.300e+01 -1.300e+01 -1.300e+01 -1.300e+01 -1.300e+01 -1.300e+01 -1.300e+01 -1.300e+01 -1.300e+01 -1.300e+01 -1.300e+01 -1.300e+01 -1.300e+01 -1.300e+01 -1.300e+01 -1.300e+01 -1.300e+01 -1.300e+01 -1.300e+01 -1.300e+01 -1.300e+01 -1.300e+01 -1.300e+01 -1.300e+01 -1.300e+01 -1.300e+01 -1.300e+01 -1.300e+01 -1.300e+01 -1.300e+01 -1.300e+01 -1.300e+01 -1.300e+01 -1.300e+01 -1.300e+01 -1.300e+01 -1.300e+01 -1.300e+01 -1.300e+01 -1.300e+01 -1.300e+01 -1.300e+01 -1.300e+01 -1.300e+01 -1.300e+01 -1.300e+01 -1.300e+01 -1.300e+01 -1.300e+01 -1.300e+01 -1.300e+01 -1.300e+01 -1.300e+01 -1.300e+01 -1.300e+01 -1.300e+01 -1.300e+01 -1.300e+01 -1.300e+01 -1.300e+01 -1.300e+01 -1.300e+01 -1.300e+01 -1.300e+01 -1.300e+01 -1.300e+01 -1.300e+01 -1.300e+01 -1.300e+01 -1.300e+01 -1.300e+01 -1.300e+01 -1.300e+01 -1.300e+01 -1.300e+01 -1.300e+01 -1.300e+01 -1.300e+01 -1.300e+01 -1.300e+01 -1.300e+01 -1.300e+01 -1.300e+01 -1.300e+01 -1.300e+01 -1.300e+01 -1.300e+01 -1.300e+01 -1.300e+01 -1.300e+01 -1.300e+01 -1.300e+01 -1.300e+01 -1.300e+01 -1.300e+01 -1.300e+01 -1.300e+01 -1.300e+01 -1.300e+01 -1.300e+01 -1.300e+01 -1.300e+01 -1.300e+01 -1.300e+01 -1.300e+01 -1.300e+01 -1.300e+01 -1.300e+01 -1.300e+01 -1.300e+01 -1.300e+01 -1.300e+01 -1.300e+01 -1.300e+01 -1.300e+01 -1.300e+01 -1.300e+01 -1.300e+01 -1.300e+01 -1.300e+01 -1.300e+01 -1.300e+01 -1.300e+01 -1.300e+01 -1.300e+01 -1.300e+01 -1.300e+01 -1.300e+01 -1.300e+01 -1.300e+01 -1.300e+01 -1.300e+01 -1.300e+01 -1.300e+01 -1.300e+01 -1.300e+01 -1.300e+01 -1.300e+01 -1.300e+01 -1.300e+01 -1.300e+01 -1.300e+01 -1.300e+01 -1.300e+01 -1.300e+01 -1.300e+01 -1.300e+01 -1.300e+01 -1.300e+01 -1.300e+01 -1.300e+01 -1.300e+01 -1.300e+01 -1.300e+01 -1.300e+01 -1.300e+01 -1.300e+01 -1.300e+01 -1.300e+01 -1.300e+01 -1.300e+01 -1.300e+01 -1.300e+01 -1.300e+01 -1.300e+01 -1.300e+01 -1.300e+01 -1.300e+01 -1.300e+01 -1.300e+01 -1.300e+01 -1.300e+01 -1.300e+01 -1.300e+01 -1.300e+01 -1.300e+01 -1.300e+01 -1.300e+01 -1.300e+01 -1.300e+01 -1.300e+01 -1.300e+01 -1.300e+01 -1.300e+01 -5.000e+00 -5.000e+00 -5.000e+00 -5.000e+00 -5.000e+00 -5.000e+00 -5.000e+00 -5.000e+00 -5.000e+00 -5.000e+00 -5.000e+00 -5.000e+00 -5.000e+00 -5.000e+00 -5.000e+00 -5.000e+00 -5.000e+00 -5.000e+00 -5.000e+00 -5.000e+00 -5.000e+00 -5.000e+00 -5.000e+00 -5.000e+00 -5.000e+00 -5.000e+00 -5.000e+00 -5.000e+00 -5.000e+00 -5.000e+00 -5.000e+00 -5.000e+00 -5.000e+00 -5.000e+00 -5.000e+00 -5.000e+00 -5.000e+00 -5.000e+00 -1.900e+01 -1.900e+01 -1.900e+01 -1.900e+01 -1.900e+01 -1.900e+01 -1.900e+01 -1.900e+01 -1.900e+01 -1.900e+01 -1.900e+01 -1.900e+01 -1.900e+01 -1.900e+01 -1.900e+01 -1.900e+01 -1.900e+01 -1.900e+01 -1.900e+01 -1.900e+01 -1.900e+01 -1.900e+01 -1.900e+01 -1.900e+01 -1.900e+01 -1.900e+01 -1.900e+01 -1.900e+01 -1.900e+01 -1.900e+01 -1.900e+01 -1.900e+01 -1.900e+01 -1.900e+01 -1.900e+01 -1.900e+01 -1.900e+01 -1.900e+01 -1.900e+01 -1.900e+01 -1.900e+01 -1.900e+01 -1.900e+01 -1.900e+01 -1.900e+01 -1.900e+01 -1.900e+01 -1.900e+01 -1.900e+01 -1.900e+01 -1.900e+01 -1.900e+01 -1.900e+01 -1.900e+01 -1.900e+01 -1.900e+01 -1.900e+01 -1.900e+01 -1.900e+01 -1.900e+01 -1.900e+01 -1.900e+01 -1.900e+01 -1.900e+01 -1.900e+01 -1.900e+01 -1.900e+01 -1.900e+01 -1.900e+01 -1.900e+01 -1.900e+01 -1.900e+01 -1.900e+01 -1.900e+01 -1.900e+01 -1.900e+01 -1.900e+01 -1.900e+01 -1.900e+01 -1.900e+01 -1.900e+01 -1.900e+01 -1.900e+01 -1.900e+01 -1.900e+01 -1.900e+01 -1.900e+01 -1.900e+01 -1.900e+01 -1.900e+01 -1.900e+01 -1.900e+01 -1.900e+01 -1.900e+01 -1.900e+01 -1.900e+01 -1.900e+01 -1.900e+01 -1.900e+01 -1.900e+01 -1.900e+01 -1.900e+01 -1.900e+01 -1.900e+01 -1.900e+01 -1.900e+01 -1.900e+01 -1.900e+01 -1.900e+01 -1.900e+01 -1.900e+01 -1.100e+01 -1.100e+01 -1.100e+01 -1.100e+01 -1.100e+01 -1.100e+01 -1.100e+01 -1.100e+01 -1.100e+01 -1.100e+01 -1.100e+01 -1.100e+01 -1.100e+01 -1.100e+01 -1.100e+01 -1.100e+01 -1.100e+01 -1.100e+01 -1.100e+01 -1.100e+01 -1.100e+01 -1.100e+01 -1.100e+01 -1.100e+01 -1.100e+01 -1.100e+01 -1.100e+01 -1.100e+01 -1.900e+01 -1.900e+01 -1.900e+01 -1.900e+01 -1.900e+01 -1.900e+01 -1.900e+01 -1.900e+01 -1.900e+01 -1.900e+01 -1.900e+01 -1.900e+01 -1.900e+01 -1.900e+01 -1.900e+01 -1.900e+01 -1.900e+01 -1.900e+01 -1.900e+01 -1.900e+01 -1.900e+01 -1.900e+01 -1.900e+01 -1.900e+01 -1.900e+01 -1.900e+01 -1.900e+01 -1.900e+01 -1.900e+01 -1.900e+01 -1.900e+01 -1.900e+01 -1.900e+01 -1.900e+01 -1.900e+01 -1.900e+01 -1.900e+01 -1.900e+01 -1.900e+01 -1.900e+01 -1.900e+01 -1.900e+01 -1.900e+01 -1.900e+01 -1.900e+01 -1.900e+01 -1.900e+01 -1.900e+01 -1.900e+01 -1.900e+01 -1.900e+01 -1.900e+01 -1.900e+01 -1.900e+01 -1.900e+01 -1.900e+01 -1.900e+01 -1.900e+01 -1.900e+01 -1.900e+01 -1.900e+01 -1.900e+01 -1.900e+01 -1.900e+01 -1.900e+01 -1.900e+01 -1.900e+01 -1.900e+01 -1.900e+01 -1.900e+01 -1.900e+01 -1.900e+01 -1.900e+01 -1.900e+01 -1.900e+01 -1.900e+01 -1.900e+01 -1.900e+01 -1.900e+01 -1.900e+01 -1.900e+01 -1.900e+01 -1.900e+01 -1.900e+01 -1.900e+01 -1.900e+01 -1.900e+01 -1.900e+01 -1.900e+01 -1.900e+01 -1.900e+01 -1.900e+01 -1.900e+01 -1.900e+01 -1.900e+01 -1.900e+01 -1.900e+01 -1.900e+01 -1.900e+01 -1.900e+01 -1.900e+01 -1.900e+01 -1.900e+01 -1.900e+01 -1.900e+01 -1.900e+01 -1.900e+01 -1.900e+01 -1.900e+01 -1.900e+01 -1.900e+01 -1.900e+01 -1.900e+01 -1.900e+01 -1.100e+01 -1.100e+01 -1.100e+01 -1.100e+01 -1.100e+01 -1.100e+01 -1.100e+01 -1.100e+01 -1.100e+01 -1.100e+01 -1.100e+01 -1.100e+01 -1.100e+01 -1.100e+01 -1.100e+01 -1.100e+01 -1.100e+01 -1.100e+01 -1.100e+01 -1.100e+01 -1.100e+01 -1.100e+01 -1.100e+01 -1.100e+01 -1.100e+01 -1.100e+01 -1.100e+01 -1.100e+01 -1.900e+01 -1.900e+01