<?xml version="1.0"?>
<VTKFile type="UnstructuredGrid" version="0.1" byte_order="LittleEndian">
   <UnstructuredGrid>
      <Piece NumberOfPoints="32480" NumberOfCells="2290">
         <Points>
            <DataArray type="Float32" Name="Position" NumberOfComponents="3" format="ascii">
0.118	-5.061	0.060
0.116	-5.053	0.064
0.111	-5.049	0.071
0.106	-5.050	0.078
0.101	-5.056	0.083
0.099	-5.065	0.083
0.101	-5.074	0.080
0.105	-5.078	0.073
0.111	-5.077	0.066
0.116	-5.070	0.061
0.788	-5.158	0.599
0.786	-5.150	0.603
0.781	-5.147	0.610
0.776	-5.149	0.618
0.772	-5.156	0.622
0.771	-5.165	0.623
0.773	-5.173	0.618
0.777	-5.176	0.611
0.783	-5.174	0.603
0.787	-5.167	0.599
1.553	-5.232	1.023
1.551	-5.225	1.028
1.547	-5.222	1.036
1.542	-5.224	1.043
1.539	-5.232	1.047
1.538	-5.241	1.047
1.540	-5.248	1.042
1.544	-5.252	1.034
1.549	-5.249	1.027
1.552	-5.241	1.022
2.285	-5.354	1.489
2.284	-5.346	1.493
2.280	-5.342	1.500
2.274	-5.344	1.508
2.269	-5.351	1.512
2.267	-5.360	1.512
2.269	-5.368	1.508
2.273	-5.372	1.500
2.279	-5.370	1.493
2.283	-5.363	1.489
2.405	-5.386	1.611
2.414	-5.381	1.611
2.423	-5.383	1.611
2.429	-5.389	1.611
2.431	-5.399	1.611
2.427	-5.407	1.611
2.418	-5.411	1.611
2.409	-5.410	1.611
2.403	-5.403	1.611
2.401	-5.394	1.611
0.193	-5.154	0.126
0.199	-5.151	0.133
0.205	-5.154	0.139
0.208	-5.162	0.144
0.207	-5.171	0.144
0.203	-5.178	0.140
0.197	-5.181	0.134
0.192	-5.178	0.127
0.189	-5.171	0.123
0.189	-5.162	0.122
0.851	-5.216	-0.454
0.857	-5.213	-0.447
0.862	-5.216	-0.439
0.865	-5.224	-0.435
0.864	-5.233	-0.434
0.860	-5.241	-0.438
0.855	-5.243	-0.445
0.850	-5.241	-0.453
0.847	-5.233	-0.457
0.848	-5.224	-0.458
1.598	-5.285	-0.902
1.602	-5.282	-0.894
1.606	-5.285	-0.886
1.607	-5.292	-0.881
1.606	-5.301	-0.880
1.603	-5.309	-0.884
1.599	-5.312	-0.891
1.595	-5.309	-0.899
1.594	-5.302	-0.905
1.595	-5.293	-0.906
2.401	-5.483	-1.212
2.405	-5.480	-1.204
2.408	-5.482	-1.196
2.408	-5.488	-1.189
2.405	-5.497	-1.187
2.401	-5.505	-1.191
2.398	-5.508	-1.199
2.395	-5.506	-1.207
2.395	-5.500	-1.214
2.398	-5.491	-1.216
2.645	-5.592	-1.282
2.649	-5.592	-1.274
2.647	-5.592	-1.265
2.641	-5.592	-1.258
2.632	-5.592	-1.257
2.623	-5.592	-1.261
2.619	-5.592	-1.269
2.621	-5.592	-1.278
2.627	-5.592	-1.285
2.636	-5.592	-1.286
0.759	-6.295	0.578
0.766	-6.300	0.581
0.769	-6.306	0.588
0.766	-6.311	0.596
0.759	-6.312	0.601
0.750	-6.310	0.602
0.743	-6.305	0.599
0.740	-6.299	0.593
0.743	-6.295	0.585
0.750	-6.293	0.580
0.525	-6.972	0.073
0.532	-6.977	0.077
0.534	-6.982	0.085
0.530	-6.986	0.092
0.522	-6.987	0.097
0.513	-6.984	0.098
0.507	-6.979	0.094
0.505	-6.973	0.086
0.509	-6.969	0.079
0.517	-6.969	0.074
0.269	-7.681	-0.361
0.278	-7.683	-0.357
0.282	-7.686	-0.350
0.282	-7.688	-0.341
0.275	-7.689	-0.334
0.267	-7.688	-0.331
0.258	-7.686	-0.335
0.253	-7.684	-0.342
0.254	-7.682	-0.351
0.260	-7.681	-0.358
0.300	-8.463	-0.324
0.304	-8.463	-0.316
0.302	-8.463	-0.307
0.296	-8.462	-0.301
0.287	-8.463	-0.299
0.278	-8.463	-0.303
0.274	-8.464	-0.312
0.276	-8.464	-0.321
0.282	-8.464	-0.327
0.292	-8.464	-0.329
2.039	-19.608	1.606
2.040	-19.602	1.614
2.038	-19.601	1.623
2.035	-19.606	1.630
2.032	-19.614	1.633
2.030	-19.622	1.631
2.029	-19.628	1.624
2.031	-19.629	1.614
2.034	-19.624	1.607
2.037	-19.616	1.604
2.289	-19.686	1.658
2.289	-19.680	1.665
2.287	-19.679	1.674
2.284	-19.684	1.682
2.281	-19.692	1.685
2.279	-19.700	1.682
2.279	-19.706	1.675
2.280	-19.707	1.666
2.283	-19.702	1.658
2.286	-19.694	1.655
2.041	-19.757	1.601
2.039	-19.751	1.608
2.037	-19.750	1.617
2.034	-19.755	1.624
2.033	-19.764	1.627
2.032	-19.773	1.625
2.033	-19.779	1.618
2.036	-19.779	1.609
2.038	-19.775	1.601
2.040	-19.766	1.598
2.394	-19.798	1.698
2.393	-19.792	1.705
2.391	-19.791	1.714
2.388	-19.796	1.722
2.386	-19.804	1.725
2.386	-19.813	1.723
2.387	-19.819	1.716
2.390	-19.820	1.707
2.392	-19.815	1.699
2.394	-19.807	1.696
2.050	-19.925	1.606
2.053	-19.917	1.610
2.051	-19.909	1.613
2.044	-19.903	1.614
2.035	-19.901	1.612
2.027	-19.905	1.608
2.024	-19.912	1.604
2.026	-19.921	1.601
2.033	-19.927	1.600
2.042	-19.928	1.602
1.962	-20.052	1.895
1.965	-20.044	1.899
1.963	-20.036	1.902
1.956	-20.030	1.903
1.947	-20.028	1.901
1.940	-20.032	1.897
1.936	-20.039	1.893
1.938	-20.048	1.890
1.945	-20.054	1.889
1.954	-20.056	1.891
2.026	-20.054	1.601
2.034	-20.051	1.597
2.043	-20.052	1.595
2.049	-20.059	1.595
2.051	-20.068	1.597
2.047	-20.075	1.602
2.040	-20.079	1.606
2.031	-20.077	1.608
2.025	-20.070	1.608
2.023	-20.061	1.605
1.935	-20.159	1.306
1.935	-20.155	1.314
1.935	-20.157	1.323
1.935	-20.163	1.330
1.935	-20.172	1.331
1.935	-20.181	1.327
1.935	-20.185	1.318
1.935	-20.183	1.309
1.935	-20.177	1.303
1.935	-20.168	1.301
2.033	-20.203	1.586
2.039	-20.200	1.593
2.042	-20.203	1.601
2.043	-20.210	1.607
2.040	-20.218	1.609
2.036	-20.226	1.606
2.030	-20.229	1.599
2.027	-20.226	1.591
2.026	-20.219	1.585
2.028	-20.211	1.583
2.251	-20.294	1.462
2.256	-20.291	1.469
2.260	-20.293	1.477
2.261	-20.300	1.483
2.258	-20.309	1.485
2.253	-20.316	1.482
2.248	-20.319	1.475
2.244	-20.317	1.466
2.244	-20.310	1.460
2.246	-20.301	1.458
2.030	-20.353	1.582
2.035	-20.350	1.589
2.039	-20.352	1.597
2.040	-20.360	1.602
2.039	-20.369	1.604
2.034	-20.376	1.600
2.029	-20.379	1.593
2.025	-20.376	1.585
2.024	-20.369	1.579
2.025	-20.360	1.578
2.205	-20.402	1.475
2.211	-20.399	1.482
2.215	-20.402	1.490
2.216	-20.409	1.496
2.214	-20.418	1.497
2.210	-20.425	1.493
2.205	-20.428	1.486
2.201	-20.426	1.478
2.199	-20.419	1.473
2.201	-20.410	1.471
2.039	-20.526	1.590
2.041	-20.520	1.596
2.038	-20.511	1.599
2.033	-20.504	1.598
2.026	-20.501	1.592
2.021	-20.503	1.585
2.019	-20.509	1.579
2.021	-20.518	1.576
2.027	-20.525	1.577
2.034	-20.528	1.583
1.902	-20.607	1.710
1.903	-20.600	1.717
1.901	-20.592	1.720
1.895	-20.585	1.718
1.889	-20.582	1.713
1.883	-20.584	1.705
1.882	-20.590	1.699
1.884	-20.599	1.696
1.890	-20.606	1.698
1.896	-20.609	1.703
2.037	-20.662	1.573
2.037	-20.654	1.578
2.033	-20.650	1.585
2.027	-20.652	1.592
2.022	-20.658	1.596
2.018	-20.666	1.596
2.018	-20.674	1.591
2.022	-20.678	1.583
2.028	-20.677	1.576
2.033	-20.671	1.572
2.181	-20.727	1.678
2.181	-20.719	1.683
2.177	-20.715	1.690
2.171	-20.716	1.697
2.166	-20.723	1.701
2.162	-20.731	1.701
2.163	-20.739	1.696
2.166	-20.743	1.688
2.172	-20.742	1.681
2.178	-20.735	1.677
2.027	-20.804	1.570
2.028	-20.800	1.578
2.029	-20.801	1.587
2.029	-20.807	1.594
2.027	-20.816	1.596
2.026	-20.824	1.592
2.024	-20.829	1.584
2.024	-20.828	1.575
2.024	-20.821	1.568
2.025	-20.812	1.566
2.192	-20.831	1.556
2.193	-20.827	1.564
2.194	-20.828	1.573
2.194	-20.834	1.580
2.192	-20.843	1.582
2.191	-20.851	1.578
2.189	-20.856	1.570
2.189	-20.854	1.561
2.189	-20.848	1.554
2.190	-20.839	1.552
2.030	-20.976	1.587
2.028	-20.969	1.593
2.026	-20.960	1.593
2.023	-20.953	1.588
2.022	-20.950	1.579
2.022	-20.952	1.570
2.024	-20.959	1.565
2.027	-20.968	1.564
2.029	-20.975	1.569
2.031	-20.979	1.578
1.871	-21.024	1.592
1.869	-21.017	1.598
1.866	-21.008	1.599
1.864	-21.001	1.594
1.863	-20.998	1.585
1.863	-21.000	1.576
1.865	-21.007	1.570
1.867	-21.016	1.570
1.870	-21.023	1.575
1.871	-21.026	1.583
0.813	-6.443	0.628
0.813	-6.448	0.636
0.808	-6.449	0.644
0.800	-6.446	0.648
0.793	-6.440	0.648
0.789	-6.433	0.643
0.790	-6.428	0.635
0.795	-6.427	0.627
0.802	-6.430	0.623
0.810	-6.436	0.623
0.335	-7.030	0.222
0.335	-7.034	0.230
0.329	-7.036	0.237
0.321	-7.034	0.241
0.313	-7.029	0.239
0.309	-7.023	0.234
0.309	-7.019	0.226
0.315	-7.017	0.218
0.323	-7.019	0.215
0.331	-7.024	0.216
0.148	-7.783	-0.185
0.145	-7.787	-0.178
0.137	-7.789	-0.173
0.128	-7.786	-0.172
0.121	-7.782	-0.176
0.119	-7.776	-0.184
0.123	-7.772	-0.191
0.130	-7.771	-0.196
0.139	-7.773	-0.197
0.146	-7.778	-0.192
-0.047	-8.465	-0.716
-0.053	-8.468	-0.710
-0.062	-8.467	-0.707
-0.070	-8.463	-0.708
-0.074	-8.457	-0.713
-0.073	-8.451	-0.720
-0.067	-8.447	-0.726
-0.059	-8.448	-0.729
-0.051	-8.452	-0.728
-0.046	-8.459	-0.723
-0.074	-8.468	-0.751
-0.066	-8.471	-0.752
-0.060	-8.478	-0.750
-0.058	-8.485	-0.744
-0.063	-8.490	-0.737
-0.070	-8.491	-0.732
-0.079	-8.487	-0.731
-0.085	-8.481	-0.734
-0.086	-8.474	-0.740
-0.082	-8.469	-0.746
2.019	-21.102	1.572
2.028	-21.100	1.572
2.036	-21.103	1.574
2.041	-21.110	1.577
2.040	-21.119	1.579
2.034	-21.126	1.580
2.025	-21.129	1.580
2.017	-21.125	1.578
2.012	-21.118	1.575
2.013	-21.109	1.573
2.033	-21.135	1.455
2.042	-21.133	1.456
2.050	-21.136	1.458
2.055	-21.144	1.460
2.054	-21.152	1.463
2.048	-21.159	1.464
2.039	-21.162	1.464
2.031	-21.159	1.462
2.026	-21.151	1.459
2.027	-21.142	1.457
2.032	-21.276	1.577
2.035	-21.269	1.582
2.033	-21.260	1.584
2.028	-21.253	1.581
2.022	-21.250	1.576
2.016	-21.252	1.569
2.013	-21.259	1.564
2.014	-21.268	1.562
2.019	-21.276	1.565
2.026	-21.279	1.570
1.958	-21.301	1.651
1.961	-21.294	1.657
1.960	-21.285	1.658
1.955	-21.278	1.656
1.948	-21.275	1.650
1.942	-21.277	1.643
1.939	-21.284	1.638
1.941	-21.293	1.637
1.946	-21.301	1.639
1.952	-21.304	1.645
2.029	-21.426	1.573
2.032	-21.419	1.578
2.031	-21.410	1.580
2.025	-21.402	1.578
2.018	-21.400	1.573
2.012	-21.402	1.567
2.009	-21.409	1.562
2.010	-21.418	1.560
2.016	-21.426	1.562
2.023	-21.429	1.567
1.977	-21.448	1.636
1.980	-21.441	1.641
1.979	-21.432	1.643
1.973	-21.424	1.641
1.966	-21.422	1.636
1.960	-21.424	1.630
1.957	-21.431	1.625
1.958	-21.440	1.623
1.963	-21.448	1.625
1.971	-21.451	1.630
2.016	-21.574	1.579
2.012	-21.566	1.581
2.010	-21.557	1.579
2.011	-21.551	1.572
2.015	-21.550	1.563
2.019	-21.554	1.556
2.022	-21.562	1.553
2.024	-21.571	1.556
2.023	-21.577	1.563
2.020	-21.578	1.572
1.963	-21.590	1.557
1.959	-21.582	1.560
1.958	-21.573	1.557
1.959	-21.567	1.550
1.962	-21.566	1.541
1.966	-21.571	1.534
1.970	-21.579	1.532
1.971	-21.587	1.534
1.970	-21.593	1.541
1.967	-21.594	1.550
2.008	-21.702	1.558
2.017	-21.700	1.562
2.024	-21.703	1.566
2.027	-21.711	1.571
2.025	-21.720	1.573
2.019	-21.726	1.572
2.010	-21.728	1.569
2.003	-21.725	1.564
2.000	-21.717	1.560
2.002	-21.708	1.558
2.024	-21.714	1.526
2.032	-21.712	1.529
2.040	-21.715	1.534
2.043	-21.723	1.538
2.041	-21.732	1.540
2.034	-21.738	1.540
2.026	-21.740	1.536
2.019	-21.737	1.532
2.016	-21.729	1.527
[...]
         <CellData>
           <DataArray type="Float32" Name="combinedRootClassID" NumberOfComponents="1" format="ascii">
 -1.300e+01 -1.300e+01 -1.300e+01 -1.300e+01 -1.300e+01 -1.300e+01 -1.300e+01 -1.300e+01 -1.300e+01 -1.300e+01 -1.300e+01 -1.300e+01 -1.300e+01 -1.300e+01 -1.300e+01 -1.300e+01 -1.300e+01 -1.300e+01 -1.300e+01 -1.300e+01 -1.300e+01 -1.300e+01 -1.300e+01 -1.300e+01 -1.300e+01 -1.300e+01 -1.300e+01 -1.300e+01 -1.300e+01 -1.300e+01 -1.300e+01 -1.300e+01 -1.300e+01 -1.300e+01 -1.300e+01 -1.300e+01 -1.300e+01 -1.300e+01 -1.300e+01 -1.300e+01 -1.300e+01 -1.300e+01 -1.300e+01 -1.300e+01 -1.300e+01 -1.300e+01 -1.300e+01 -1.300e+01 -1.300e+01 -1.300e+01 -1.300e+01 -1.300e+01 -1.300e+01 -1.300e+01 -1.300e+01 -1.300e+01 -1.300e+01 -1.300e+01 -1.300e+01 -1.300e+01 -1.300e+01 -1.300e+01 -1.300e+01 -1.300e+01 -1.300e+01 -1.300e+01 -1.300e+01 -1.300e+01 -1.300e+01 -1.300e+01 -1.300e+01 -1.300e+01 -1.300e+01 -1.300e+01 -1.300e+01 -1.300e+01 -1.300e+01 -1.300e+01 -1.300e+01 -1.300e+01 -1.300e+01 -1.300e+01 -1.300e+01 -1.300e+01 -1.300e+01 -1.300e+01 -1.300e+01 -1.300e+01 -1.300e+01 -1.300e+01 -1.300e+01 -1.300e+01 -1.300e+01 -1.300e+01 -1.300e+01 -1.300e+01 -1.300e+01 -1.300e+01 -1.300e+01 -1.300e+01 -1.300e+01 -1.300e+01 -1.300e+01 -1.300e+01 -1.300e+01 -1.300e+01 -1.300e+01 -1.300e+01 -1.300e+01 -1.300e+01 -1.300e+01 -1.300e+01 -1.300e+01 -1.300e+01 -1.300e+01 -1.300e+01 -1.300e+01 -1.300e+01 -1.300e+01 -1.300e+01 -1.300e+01 -1.300e+01 -1.300e+01 -1.300e+01 -1.300e+01 -1.300e+01 -1.300e+01 -1.300e+01 -1.300e+01 -1.300e+01 -1.300e+01 -1.300e+01 -1.300e+01 -1.300e+01 -1.300e+01 -1.300e+01 -1.300e+01 -1.300e+01 -1.300e+01 -1.300e+01 -1.300e+01 -1.300e+01 -1.300e+01 -1.300e+01 -1.300e+01 -1.300e+01 -1.300e+01 -1.300e+01 -1.300e+01 -1.300e+01 -1.300e+01 -1.300e+01 -1.300e+01 -1.300e+01 -1.300e+01 -1.300e+01 -1.300e+01 -1.300e+01 -1.300e+01 -1.300e+01 -1.300e+01 -1.300e+01 -1.300e+01 -1.300e+01 -1.300e+01 -1.300e+01 -1.300e+01 -1.300e+01 -1.300e+01 -1.300e+01 -1.300e+01 -1.300e+01 -1.300e+01 -1.300e+01 -1.300e+01 -1.300e+01 -1.300e+01 -1.300e+01 -1.300e+01 -1.300e+01 -1.300e+01 -1.300e+01 -1.300e+01 -1.300e+01 -1.300e+01 -1.300e+01 -1.300e+01 -1.300e+01 -1.300e+01 -1.300e+01 -1.300e+01 -1.300e+01 -1.300e+01 -1.300e+01 -1.300e+01 -1.300e+01 -1.300e+01 -1.300e+01 -1.300e+01 -1.300e+01 -1.300e+01 -1.300e+01 -1.300e+01 -1.300e+01 -1.300e+01 -1.300e+01 -1.300e+01 -1.300e+01 -1.300e+01 -1.300e+01 -1.300e+01 -1.300e+01 -1.300e+01 -1.300e+01 -1.300e+01 -1.300e+01 -1.300e+01 -1.300e+01 -1.300e+01 -1.300e+01 -1.300e+01 -1.300e+01 -1.300e+01 -1.300e+01 -1.300e+01 -1.300e+01 -1.300e+01 -1.300e+01 -1.300e+01 -1.300e+01 -1.300e+01 -1.300e+01 -1.300e+01 -1.300e+01 -1.300e+01 -1.300e+01 -1.300e+01 -1.300e+01 -1.300e+01 -1.300e+01 -5.000e+00 -5.000e+00 -5.000e+00 -5.000e+00 -5.000e+00 -5.000e+00 -5.000e+00 -5.000e+00 -5.000e+00 -5.000e+00 -5.000e+00 -5.000e+00 -5.000e+00 -5.000e+00 -5.000e+00 -5.000e+00 -5.000e+00 -5.000e+00 -5.000e+00 -5.000e+00 -5.000e+00 -5.000e+00 -5.000e+00 -5.000e+00 -5.000e+00 -5.000e+00 -5.000e+00 -5.000e+00 -5.000e+00 -5.000e+00 -5.000e+00 -5.000e+00 -5.000e+00 -1.300e+01 -1.300e+01 -1.300e+01 -1.300e+01 -1.300e+01 -1.300e+01 -1.300e+01 -1.300e+01 -1.300e+01 -1.300e+01 -1.300e+01 -1.300e+01 -1.300e+01 -1.300e+01 -1.300e+01 -1.300e+01 -1.300e+01 -1.300e+01 -1.300e+01 -1.300e+01 -1.300e+01 -1.300e+01 -1.300e+01 -1.300e+01 -1.300e+01 -1.300e+01 -1.300e+01 -1.300e+01 -1.300e+01 -1.300e+01 -1.300e+01 -1.300e+01 -1.300e+01 -1.300e+01 -1.300e+01 -1.300e+01 -1.300e+01 -1.300e+01 -1.300e+01 -1.300e+01 -1.300e+01 -1.300e+01 -1.300e+01 -1.300e+01 -1.300e+01 -1.300e+01 -1.300e+01 -1.300e+01 -1.300e+01 -1.300e+01 -1.300e+01 -1.300e+01 -1.300e+01 -1.300e+01 -1.300e+01 -1.300e+01 -1.300e+01 -1.300e+01 -1.300e+01 -1.300e+01 -1.300e+01 -1.300e+01 -1.300e+01 -1.300e+01 -1.300e+01 -1.300e+01 -1.300e+01 -1.300e+01 -1.300e+01 -1.300e+01 -1.300e+01 -1.300e+01 -1.300e+01 -1.300e+01 -1.300e+01 -1.300e+01 -1.300e+01 -1.300e+01 -1.300e+01 -1.300e+01 -1.300e+01 -1.300e+01 -1.300e+01 -1.300e+01 -1.300e+01 -1.300e+01 -1.300e+01 -1.300e+01 -1.300e+01 -1.300e+01 -1.300e+01 -1.300e+01 -1.300e+01 -1.300e+01 -1.300e+01 -1.300e+01 -1.300e+01 -1.300e+01 -1.300e+01 -1.300e+01 -1.300e+01 -1.300e+01 -1.300e+01 -1.300e+01 -1.300e+01 -1.300e+01 -1.300e+01 -1.300e+01 -1.300e+01 -1.300e+01 -1.300e+01 -1.300e+01 -1.300e+01 -1.300e+01 -1.300e+01 -1.300e+01 -1.300e+01 -1.300e+01 -1.300e+01 -1.300e+01 -1.300e+01 -1.300e+01 -1.300e+01 -1.300e+01 -1.300e+01 -1.300e+01 -1.300e+01 -1.300e+01 -1.300e+01 -1.300e+01 -1.300e+01 -1.300e+01 -1.300e+01 -1.300e+01 -1.300e+01 -1.300e+01 -1.300e+01 -1.300e+01 -1.300e+01 -1.300e+01 -1.300e+01 -1.300e+01 -1.300e+01 -1.300e+01 -1.300e+01 -1.300e+01 -1.300e+01 -1.300e+01 -1.300e+01 -1.300e+01 -1.300e+01 -1.300e+01 -1.300e+01 -1.300e+01 -1.300e+01 -1.300e+01 -1.300e+01 -1.300e+01 -1.300e+01 -1.300e+01 -1.300e+01 -1.300e+01 -1.300e+01 -1.300e+01 -1.300e+01 -1.300e+01 -1.300e+01 -1.300e+01 -1.300e+01 -1.300e+01 -1.300e+01 -1.300e+01 -1.300e+01 -1.300e+01 -1.300e+01 -1.300e+01 -1.300e+01 -1.300e+01 -1.300e+01 -1.300e+01 -1.300e+01 -1.300e+01 -1.300e+01 -1.300e+01 -1.300e+01 -1.300e+01 -1.300e+01 -1.300e+01 -1.300e+01 -1.300e+01 -1.300e+01 -1.300e+01 -1.300e+01 -1.300e+01 -1.300e+01 -1.300e+01 -1.300e+01 -1.300e+01 -1.300e+01 -1.300e+01 -1.300e+01 -1.300e+01 -1.300e+01 -1.300e+01 -1.300e+01 -1.300e+01 -1.300e+01 -1.300e+01 -1.300e+01 -1.300e+01 -1.300e+01 -1.300e+01 -1.300e+01 -1.300e+01 -1.300e+01 -1.300e+01 -1.300e+01 -1.300e+01 -1.300e+01 -1.300e+01 -1.300e+01 -1.300e+01 -1.300e+01 -1.300e+01 -1.300e+01 -1.300e+01 -1.300e+01 -1.300e+01 -1.300e+01 -1.300e+01 -1.300e+01 -1.300e+01 -1.300e+01 -1.300e+01 -5.000e+00 -5.000e+00 -5.000e+00 -5.000e+00 -5.000e+00 -5.000e+00 -5.000e+00 -5.000e+00 -5.000e+00 -5.000e+00 -5.000e+00 -5.000e+00 -5.000e+00 -5.000e+00 -5.000e+00 -5.000e+00 -5.000e+00 -5.000e+00 -5.000e+00 -5.000e+00 -5.000e+00 -5.000e+00 -5.000e+00 -5.000e+00 -5.000e+00 -5.000e+00 -5.000e+00 -5.000e+00 -5.000e+00 -5.000e+00 -5.000e+00 -5.000e+00 -5.000e+00 -1.300e+01 -1.300e+01 -1.300e+01 -1.300e+01 -1.300e+01 -1.300e+01 -1.300e+01 -1.300e+01 -1.300e+01 -1.300e+01 -1.300e+01 -1.300e+01 -1.300e+01 -1.300e+01 -1.300e+01 -1.300e+01 -1.300e+01 -1.300e+01 -1.300e+01 -1.300e+01 -1.300e+01 -1.300e+01 -1.300e+01 -1.300e+01 -1.300e+01 -1.300e+01 -1.300e+01 -1.300e+01 -1.300e+01 -1.300e+01 -1.300e+01 -1.300e+01 -1.300e+01 -1.300e+01 -1.300e+01 -1.300e+01 -1.300e+01 -1.300e+01 -1.300e+01 -1.300e+01 -1.300e+01 -1.300e+01 -1.300e+01 -1.300e+01 -1.300e+01 -1.300e+01 -1.300e+01 -1.300e+01 -1.300e+01 -1.300e+01 -1.300e+01 -1.300e+01 -1.300e+01 -1.300e+01 -1.300e+01 -1.300e+01 -1.300e+01 -1.300e+01 -1.300e+01 -1.300e+01 -1.300e+01 -1.300e+01 -1.300e+01 -1.300e+01 -1.300e+01 -1.300e+01 -1.300e+01 -1.300e+01 -1.300e+01 -1.300e+01 -1.300e+01 -1.300e+01 -1.300e+01 -1.300e+01 -1.300e+01 -1.300e+01 -1.300e+01 -1.300e+01 -1.300e+01 -1.300e+01 -1.300e+01 -1.300e+01 -1.300e+01 -1.300e+01 -1.300e+01 -1.300e+01 -1.300e+01 -1.300e+01 -1.300e+01 -1.300e+01 -1.300e+01 -1.300e+01 -1.300e+01 -1.300e+01 -1.300e+01 -1.300e+01 -1.300e+01 -1.300e+01 -1.300e+01 -1.300e+01 -1.300e+01 -1.300e+01 -1.300e+01 -1.300e+01 -1.300e+01 -1.300e+01 -1.300e+01 -1.300e+01 -1.300e+01 -1.300e+01 -1.300e+01 -1.300e+01 -1.300e+01 -1.300e+01 -1.300e+01 -1.300e+01 -1.300e+01 -1.300e+01 -1.300e+01 -1.300e+01 -1.300e+01 -1.300e+01 -1.300e+01 -1.300e+01 -1.300e+01 -1.300e+01 -1.300e+01 -1.300e+01 -1.300e+01 -1.300e+01 -1.300e+01 -1.300e+01 -1.300e+01 -1.300e+01 -1.300e+01 -1.300e+01 -1.300e+01 -1.300e+01 -1.300e+01 -1.300e+01 -1.300e+01 -1.300e+01 -1.300e+01 -1.300e+01 -1.300e+01 -1.300e+01 -1.300e+01 -1.300e+01 -1.300e+01 -1.300e+01 -1.300e+01 -1.300e+01 -1.300e+01 -1.300e+01 -1.300e+01 -1.300e+01 -1.300e+01 -1.300e+01 -1.300e+01 -1.300e+01 -1.300e+01 -1.300e+01 -1.300e+01 -1.300e+01 -1.300e+01 -1.300e+01 -1.300e+01 -1.300e+01 -1.300e+01 -1.300e+01 -1.300e+01 -1.300e+01 -1.300e+01 -1.300e+01 -1.300e+01 -1.300e+01 -1.300e+01 -1.300e+01 -1.300e+01 -1.300e+01 -1.300e+01 -1.300e+01 -1.300e+01 -1.300e+01 -1.300e+01 -1.300e+01 -1.300e+01 -1.300e+01 -1.300e+01 -1.300e+01 -1.300e+01 -1.300e+01 -1.300e+01 -1.300e+01 -1.300e+01 -1.300e+01 -1.300e+01 -1.300e+01 -1.300e+01 -1.300e+01 -1.300e+01 -1.300e+01 -1.300e+01 -1.300e+01 -1.300e+01 -1.300e+01 -1.300e+01 -1.300e+01 -1.300e+01 -1.300e+01 -1.300e+01 -1.300e+01 -1.300e+01 -1.300e+01 -1.300e+01 -1.300e+01 -1.300e+01 -1.300e+01 -1.300e+01 -1.300e+01 -1.300e+01 -1.300e+01 -1.300e+01 -1.300e+01 -1.300e+01 -1.300e+01 -1.300e+01 -1.300e+01 -1.300e+01 -1.300e+01 -1.300e+01 -1.300e+01 -1.300e+01 -1.300e+01 -1.300e+01 -1.300e+01 -1.300e+01 -5.000e+00 -5.000e+00 -5.000e+00 -5.000e+00 -5.000e+00 -5.000e+00 -5.000e+00 -5.000e+00 -5.000e+00 -5.000e+00 -5.000e+00 -5.000e+00 -5.000e+00 -5.000e+00 -5.000e+00 -5.000e+00 -5.000e+00 -5.000e+00 -5.000e+00 -5.000e+00 -5.000e+00 -5.000e+00 -5.000e+00 -5.000e+00 -5.000e+00 -5.000e+00 -5.000e+00 -5.000e+00 -5.000e+00 -5.000e+00 -5.000e+00 -5.000e+00 -5.000e+00 -1.300e+01 -1.300e+01 -1.300e+01 -1.300e+01 -1.300e+01 -1.300e+01 -1.300e+01 -1.300e+01 -1.300e+01 -1.300e+01 -1.300e+01 -1.300e+01 -1.300e+01 -1.300e+01 -1.300e+01 -1.300e+01 -1.300e+01 -1.300e+01 -1.300e+01 -1.300e+01 -1.300e+01 -1.300e+01 -1.300e+01 -1.300e+01 -1.300e+01 -1.300e+01 -1.300e+01 -1.300e+01 -1.300e+01 -1.300e+01 -1.300e+01 -1.300e+01 -1.300e+01 -1.300e+01 -1.300e+01 -1.300e+01 -1.300e+01 -1.300e+01 -1.300e+01 -1.300e+01 -1.300e+01 -1.300e+01 -1.300e+01 -1.300e+01 -1.300e+01 -1.300e+01 -1.300e+01 -1.300e+01 -1.300e+01 -1.300e+01 -1.300e+01 -1.300e+01 -1.300e+01 -1.300e+01 -1.300e+01 -1.300e+01 -1.300e+01 -1.300e+01 -1.300e+01 -1.300e+01 -1.300e+01 -1.300e+01 -1.300e+01 -1.300e+01 -1.300e+01 -1.300e+01 -1.300e+01 -1.300e+01 -1.300e+01 -1.300e+01 -1.300e+01 -1.300e+01 -1.300e+01 -1.300e+01 -1.300e+01 -1.300e+01 -1.300e+01 -1.300e+01 -1.300e+01 -1.300e+01 -1.300e+01 -1.300e+01 -1.300e+01 -1.300e+01 -1.300e+01 -1.300e+01 -1.300e+01 -1.300e+01 -1.300e+01 -1.300e+01 -1.300e+01 -1.300e+01 -1.300e+01 -1.300e+01 -1.300e+01 -1.300e+01 -1.300e+01 -1.300e+01 -1.300e+01 -1.300e+01 -1.300e+01 -1.300e+01 -1.300e+01 -1.300e+01 -1.300e+01 -1.300e+01 -1.300e+01 -1.300e+01 -1.300e+01 -1.300e+01 -1.300e+01 -1.300e+01 -1.300e+01 -1.300e+01 -1.300e+01 -1.300e+01 -1.300e+01 -1.300e+01 -1.300e+01 -1.300e+01 -1.300e+01 -1.300e+01 -1.300e+01 -1.300e+01 -1.300e+01 -1.300e+01 -1.300e+01 -1.300e+01 -1.300e+01 -1.300e+01 -1.300e+01 -1.300e+01 -1.300e+01 -1.300e+01 -1.300e+01 -1.300e+01 -1.300e+01 -1.300e+01 -1.300e+01 -1.300e+01 -1.300e+01 -1.300e+01 -1.300e+01 -1.300e+01 -1.300e+01 -1.300e+01 -1.300e+01 -1.300e+01 -1.300e+01 -1.300e+01 -1.300e+01 -1.300e+01 -1.300e+01 -1.300e+01 -1.300e+01 -1.300e+01 -1.300e+01 -1.300e+01 -1.300e+01 -1.300e+01 -1.300e+01 -1.300e+01 -1.300e+01 -1.300e+01 -1.300e+01 -1.300e+01 -1.300e+01 -1.300e+01 -1.300e+01 -1.300e+01 -1.300e+01 -1.300e+01 -1.300e+01 -1.300e+01 -1.300e+01 -1.300e+01 -1.300e+01 -1.300e+01 -1.300e+01 -1.300e+01 -1.300e+01 -1.300e+01 -1.300e+01 -1.300e+01 -1.300e+01 -1.300e+01 -1.300e+01 -1.300e+01 -1.300e+01 -1.300e+01 -1.300e+01 -1.300e+01 -1.300e+01 -1.300e+01 -1.300e+01 -1.300e+01 -1.300e+01 -1.300e+01 -1.300e+01 -1.300e+01 -1.300e+01 -1.300e+01 -1.300e+01 -1.300e+01 -1.300e+01 -1.300e+01 -1.300e+01 -1.300e+01 -1.300e+01 -1.300e+01 -1.300e+01 -1.300e+01 -1.300e+01 -1.300e+01 -1.300e+01 -1.300e+01 -1.300e+01 -1.300e+01 -1.300e+01 -1.300e+01 -1.300e+01 -1.300e+01 -1.300e+01 -1.300e+01 -1.300e+01 -1.300e+01 -1.300e+01 -1.300e+01 -1.300e+01 -1.300e+01 -1.300e+01 -1.300e+01 -1.300e+01 -1.300e+01 -1.300e+01 -1.300e+01 -1.300e+01 -5.000e+00 -5.000e+00 -5.000e+00 -5.000e+00 -5.000e+00 -5.000e+00 -5.000e+00 -5.000e+00 -5.000e+00 -5.000e+00 -5.000e+00 -5.000e+00 -5.000e+00 -5.000e+00 -5.000e+00 -5.000e+00 -5.000e+00 -5.000e+00 -5.000e+00 -5.000e+00 -5.000e+00 -5.000e+00 -5.000e+00 -5.000e+00 -5.000e+00 -5.000e+00 -5.000e+00 -5.000e+00 -5.000e+00 -5.000e+00 -5.000e+00 -5.000e+00 -5.000e+00 -1.900e+01 -1.900e+01 -1.900e+01 -1.900e+01 -1.900e+01 -1.900e+01 -1.900e+01 -1.900e+01 -1.900e+01 -1.900e+01 -1.900e+01 -1.900e+01 -1.900e+01 -1.900e+01 -1.900e+01 -1.900e+01 -1.900e+01 -1.900e+01 -1.900e+01 -1.900e+01 -1.900e+01 -1.900e+01 -1.900e+01 -1.900e+01 -1.900e+01 -1.900e+01 -1.900e+01 -1.900e+01 -1.900e+01 -1.900e+01 -1.900e+01 -1.900e+01 -1.900e+01 -1.900e+01 -1.900e+01 -1.900e+01 -1.900e+01 -1.900e+01 -1.900e+01 -1.900e+01 -1.900e+01 -1.900e+01 -1.900e+01 -1.900e+01 -1.900e+01 -1.900e+01 -1.900e+01 -1.900e+01 -1.900e+01 -1.900e+01 -1.900e+01 -1.900e+01 -1.900e+01 -1.900e+01 -1.900e+01 -1.100e+01 -1.100e+01 -1.100e+01 -1.100e+01 -1.100e+01 -1.100e+01 -1.100e+01 -1.100e+01 -1.100e+01 -1.100e+01 -1.100e+01 -1.100e+01 -1.100e+01 -1.100e+01 -1.100e+01 -1.100e+01 -1.100e+01 -1.100e+01 -1.100e+01 -1.100e+01 -1.100e+01 -1.100e+01 -1.900e+01 -1.900e+01 -1.900e+01 -1.900e+01 -1.900e+01 -1.900e+01 -1.900e+01 -1.900e+01 -1.900e+01 -1.900e+01 -1.900e+01 -1.900e+01 -1.900e+01 -1.900e+01 -1.900e+01 -1.900e+01 -1.900e+01 -1.900e+01 -1.900e+01 -1.900e+01 -1.900e+01 -1.900e+01 -1.900e+01 -1.900e+01 -1.900e+01 -1.900e+01 -1.900e+01 -1.900e+01 -1.900e+01 -1.900e+01 -1.900e+01 -1.900e+01 -1.900e+01 -1.900e+01 -1.900e+01 -1.900e+01 -1.900e+01 -1.900e+01 -1.900e+01 -1.900e+01 -1.900e+01 -1.900e+01 -1.900e+01 -1.900e+01 -1.900e+01 -1.900e+01 -1.900e+01 -1.900e+01 -1.900e+01 -1.900e+01 -1.900e+01 -1.900e+01 -1.900e+01 -1.100e+01 -1.100e+01 -1.100e+01 -1.100e+01 -1.100e+01 -1.100e+01 -1.100e+01 -1.100e+01 -1.100e+01 -1.100e+01 -1.100e+01 -1.100e+01 -1.100e+01 -1.100e+01 -1.100e+01 -1.100e+01 -1.100e+01 -1.100e+01 -1.100e+01 -1.100e+01 -1.100e+01 -1.100e+01 -1.900e+01 -1.900e+01 -1.900e+01 -1.900e+01 -1.900e+01 -1.900e+01 -1.900e+01 -1.900e+01 -1.900e+01 -1.900e+01 -1.900e+01 -1.900e+01 -1.900e+01 -1.900e+01 -1.900e+01 -1.900e+01 -1.900e+01 -1.900e+01 -1.900e+01 -1.900e+01 -1.900e+01 -1.900e+01 -1.900e+01 -1.900e+01 -1.900e+01 -1.900e+01 -1.900e+01 -1.900e+01 -1.900e+01 -1.900e+01 -1.900e+01 -1.900e+01 -1.900e+01 -1.900e+01 -1.900e+01 -1.900e+01 -1.900e+01 -1.900e+01 -1.900e+01 -1.900e+01 -1.900e+01 -1.900e+01 -1.900e+01 -1.900e+01 -1.900e+01 -1.900e+01 -1.900e+01 -1.900e+01 -1.900e+01 -1.900e+01 -1.900e+01 -1.900e+01 -1.900e+01 -1.100e+01 -1.100e+01 -1.100e+01 -1.100e+01 -1.100e+01 -1.100e+01 -1.100e+01 -1.100e+01 -1.100e+01 -1.100e+01 -1.100e+01 -1.100e+01 -1.100e+01 -1.100e+01 -1.100e+01 -1.100e+01 -1.100e+01 -1.100e+01 -1.100e+01 -1.100e+01 -1.100e+01 -1.100e+01 -1.900e+01 -1.900e+01 -1.900e+01 -1.900e+01 -1.900e+01 -1.900e+01 -1.900e+01 -1.900e+01 -1.900e+01 -1.900e+01 -1.900e+01 -1.900e+01 -1.900e+01 -1.900e+01 -1.900e+01 -1.900e+01 -1.900e+01 -1.900e+01 -1.900e+01 -1.900e+01 -1.900e+01 -1.900e+01 -1.900e+01 -1.900e+01 -1.900e+01 -1.900e+01 -1.900e+01 -1.900e+01 -1.900e+01 -1.900e+01 -1.900e+01 -1.900e+01 -1.900e+01 -1.900e+01 -1.900e+01 -1.900e+01 -1.900e+01 -1.900e+01 -1.900e+01 -1.900e+01 -1.900e+01 -1.900e+01 -1.900e+01 -1.900e+01 -1.900e+01 -1.900e+01 -1.900e+01 -1.900e+01 -1.900e+01 -1.900e+01 -1.900e+01 -1.900e+01 -1.900e+01 -1.900e+01 -1.100e+01 -1.100e+01 -1.100e+01 -1.100e+01 -1.100e+01 -1.100e+01 -1.100e+01 -1.100e+01 -1.100e+01 -1.100e+01 -1.100e+01 -1.100e+01 -1.100e+01 -1.100e+01 -1.100e+01 -1.100e+01 -1.100e+01 -1.100e+01 -1.100e+01 -1.100e+01 -1.100e+01 -1.100e+01 -2.000e+01 -2.000e+01 -2.000e+01 -2.000e+01 -2.000e+01 -2.000e+01 -2.000e+01 -2.000e+01 -2.000e+01 -2.000e+01 -2.000e+01 -2.000e+01 -2.000e+01 -2.000e+01 -2.000e+01 -2.000e+01 -2.000e+01 -2.000e+01 -2.000e+01 -2.000e+01 -2.000e+01 -2.000e+01 -2.000e+01 -2.000e+01 -2.000e+01 -2.000e+01 -2.000e+01 -2.000e+01 -2.000e+01 -2.000e+00 -2.000e+00 -2.000e+00 -2.000e+00 -2.000e+00 -2.000e+00 -2.000e+00 -2.000e+00 -2.000e+00 -2.000e+00 -1.500e+01 -1.500e+01 -1.500e+01 -7.000e+00 -7.000e+00 -7.000e+00 -7.000e+00 -7.000e+00 -7.000e+00 -7.000e+00 -1.500e+01 -1.500e+01 -7.000e+00 -7.000e+00 -7.000e+00 -7.000e+00 -7.000e+00 -7.000e+00 -7.000e+00 -1.500e+01 -1.500e+01 -1.500e+01 -1.500e+01 -7.000e+00 -7.000e+00 -7.000e+00 -7.000e+00 -7.000e+00 -7.000e+00 -7.000e+00 -7.000e+00 -7.000e+00 -7.000e+00 -7.000e+00 -7.000e+00 -7.000e+00 -7.000e+00 -7.000e+00 -7.000e+00 -7.000e+00 -7.000e+00 -7.000e+00 -7.000e+00 -7.000e+00 -7.000e+00 -7.000e+00 -7.000e+00 -7.000e+00 -7.000e+00 -7.000e+00 -7.000e+00 -7.000e+00 -7.000e+00 -7.000e+00 -7.000e+00 -7.000e+00 -7.000e+00 -7.000e+00 -7.000e+00 -7.000e+00 -7.000e+00 -7.000e+00 -7.000e+00 -7.000e+00 -1.500e+01 -1.500e+01 -1.500e+01 -7.000e+00 -7.000e+00 -7.000e+00 -7.000e+00 -7.000e+00 -7.000e+00 -7.000e+00 -7.000e+00 -7.000e+00 -7.000e+00 -7.000e+00 -7.000e+00 -7.000e+00 -7.000e+00 -7.000e+00 -7.000e+00 -7.000e+00 -7.000e+00 -7.000e+00 -7.000e+00 -7.000e+00 -7.000e+00 -7.000e+00 -7.000e+00 -7.000e+00 -7.000e+00 -7.000e+00 -7.000e+00 -7.000e+00 -7.000e+00 -7.000e+00 -7.000e+00 -7.000e+00 -7.000e+00 -7.000e+00 -7.000e+00 -1.500e+01 -1.500e+01 -1.500e+01 -7.000e+00 -7.000e+00 -7.000e+00 -7.000e+00 -7.000e+00 -7.000e+00 -7.000e+00 -7.000e+00 -7.000e+00 -7.000e+00 -7.000e+00 -7.000e+00 -7.000e+00 -7.000e+00 -7.000e+00 -7.000e+00 -7.000e+00 -7.000e+00 -7.000e+00 -7.000e+00 -7.000e+00 -7.000e+00 -7.000e+00 -7.000e+00 -7.000e+00 -7.000e+00 -7.000e+00 -7.000e+00 -7.000e+00 -7.000e+00 -7.000e+00 -7.000e+00 -7.000e+00 -1.500e+01 -1.500e+01 -7.000e+00 -7.000e+00 -7.000e+00 -7.000e+00 -7.000e+00 -7.000e+00 -7.000e+00 -7.000e+00 -7.000e+00 -7.000e+00 -7.000e+00 -7.000e+00 -7.000e+00 -7.000e+00 -7.000e+00 -7.000e+00 -7.000e+00 -7.000e+00 -7.000e+00 -7.000e+00 -7.000e+00 -7.000e+00 -7.000e+00 -7.000e+00 -7.000e+00 -7.000e+00 -7.000e+00 -1.500e+01 -1.500e+01 -1.500e+01 -7.000e+00 -7.000e+00 -7.000e+00 -7.000e+00 -7.000e+00 -7.000e+00 -7.000e+00 -7.000e+00 -7.000e+00 -7.000e+00 -7.000e+00 -7.000e+00 -7.000e+00 -7.000e+00 -7.000e+00 -7.000e+00 -7.000e+00 -7.000e+00 -7.000e+00 -7.000e+00 -7.000e+00 -7.000e+00 -7.000e+00 -7.000e+00 -7.000e+00 -7.000e+00 -7.000e+00 -1.500e+01 -1.500e+01 -1.500e+01 -7.000e+00 -7.000e+00 -7.000e+00 -7.000e+00 -7.000e+00 -7.000e+00 -7.000e+00 -7.000e+00 -7.000e+00 -7.000e+00 -7.000e+00 -7.000e+00 -7.000e+00 -7.000e+00 -7.000e+00 -7.000e+00 -7.000e+00 -7.000e+00 -7.000e+00 -7.000e+00 -7.000e+00 -1.500e+01 -1.500e+01 -7.000e+00 -7.000e+00 -7.000e+00 -7.000e+00 -7.000e+00 -7.000e+00 -7.000e+00 -7.000e+00 -7.000e+00 -7.000e+00 -7.000e+00 -7.000e+00 -7.000e+00 -7.000e+00 -7.000e+00 -7.000e+00 -1.500e+01 -1.500e+01 -1.500e+01 -7.000e+00 -7.000e+00 -7.000e+00 -7.000e+00 -7.000e+00 -7.000e+00 -7.000e+00 -7.000e+00 -7.000e+00 -7.000e+00 -7.000e+00 -7.000e+00 -7.000e+00 -7.000e+00 -7.000e+00 -7.000e+00 -7.000e+00 -1.500e+01 -7.000e+00 -7.000e+00 -7.000e+00 -7.000e+00 -7.000e+00 -7.000e+00 -7.000e+00 -7.000e+00 -1.500e+01 -1.500e+01 -7.000e+00 -7.000e+00 -7.000e+00 -7.000e+00 -7.000e+00 -7.000e+00 -1.500e+01 -1.500e+01 -1.500e+01 -7.000e+00 -7.000e+00 -7.000e+00 -7.000e+00 -7.000e+00 -7.000e+00 -7.000e+00 -1.500e+01 -1.500e+01 -7.000e+00 -7.000e+00 -7.000e+00 -7.000e+00 -7.000e+00 -7.000e+00 -1.500e+01 -1.500e+01 -1.500e+01 -7.000e+00 -7.000e+00 -7.000e+00 -7.000e+00 -7.000e+00 -7.000e+00 -7.000e+00 -1.500e+01 -1.500e+01 -7.000e+00 -7.000e+00 -7.000e+00 -7.000e+00 -7.000e+00 -7.000e+00 -1.500e+01 -1.500e+01 -7.000e+00 -7.000e+00 -7.000e+00 -7.000e+00 -7.000e+00 -7.000e+00 -7.000e+00 -1.500e+01 -1.500e+01 -1.500e+01 -1.500e+01 -7.000e+00 -7.000e+00 -7.000e+00 -7.000e+00 -7.000e+00 -7.000e+00 -7.000e+00 -1.500e+01 -1.500e+01 -1.500e+01 -7.000e+00 -7.000e+00 -7.000e+00 -7.000e+00 -7.000e+00 -7.000e+00 -7.000e+00 -1.500e+01 -7.000e+00 -7.000e+00 -7.000e+00 -7.000e+00 -7.000e+00 -7.000e+00 -7.000e+00 -7.000e+00 -7.000e+00 -7.000e+00 -7.000e+00 -1.500e+01 -1.500e+01 -7.000e+00 -7.000e+00 -7.000e+00 -7.000e+00 -7.000e+00 -7.000e+00 -1.500e+01 -1.500e+01 -7.000e+00 -7.000e+00 -7.000e+00 -7.000e+00 -7.000e+00 -7.000e+00 -1.500e+01 -1.500e+01 -1.500e+01 -1.500e+01 -7.000e+00 -7.000e+00 -7.000e+00 -7.000e+00 -7.000e+00 -7.000e+00 -7.000e+00 -7.000e+00 -7.000e+00 -7.000e+00