<?xml version="1.0"?>
<VTKFile type="UnstructuredGrid" version="0.1" byte_order="LittleEndian">
   <UnstructuredGrid>
      <Piece NumberOfPoints="1460" NumberOfCells="98">
         <Points>
            <DataArray type="Float32" Name="Position" NumberOfComponents="3" format="ascii">
0.023	-4.987	-0.025
0.029	-4.974	-0.010
0.024	-4.967	0.010
0.010	-4.969	0.025
-0.007	-4.979	0.031
-0.022	-4.993	0.026
-0.028	-5.006	0.010
-0.023	-5.013	-0.009
-0.009	-5.011	-0.025
0.008	-5.001	-0.031
0.462	-5.559	0.288
0.469	-5.548	0.304
0.464	-5.542	0.324
0.450	-5.543	0.339
0.432	-5.551	0.345
0.416	-5.563	0.338
0.409	-5.575	0.322
0.413	-5.581	0.302
0.427	-5.580	0.287
0.446	-5.571	0.281
0.789	-6.330	0.576
0.797	-6.321	0.593
0.793	-6.316	0.613
0.778	-6.316	0.628
0.758	-6.322	0.633
0.741	-6.331	0.625
0.733	-6.339	0.607
0.737	-6.345	0.588
0.752	-6.344	0.572
0.771	-6.339	0.568
0.948	-6.932	0.775
0.962	-6.926	0.789
0.976	-6.932	0.803
0.985	-6.950	0.812
0.985	-6.971	0.812
0.976	-6.987	0.803
0.962	-6.994	0.789
0.948	-6.987	0.775
0.939	-6.970	0.766
0.939	-6.949	0.766
-0.002	-4.965	-0.022
0.017	-4.964	-0.014
0.030	-4.973	0.000
0.032	-4.988	0.014
0.022	-5.005	0.023
0.004	-5.015	0.023
-0.016	-5.016	0.014
-0.029	-5.007	0.000
-0.030	-4.992	-0.013
-0.020	-4.975	-0.022
0.279	-5.437	-0.595
0.298	-5.437	-0.586
0.310	-5.447	-0.572
0.310	-5.462	-0.557
0.298	-5.476	-0.547
0.279	-5.485	-0.547
0.260	-5.484	-0.555
0.248	-5.475	-0.570
0.248	-5.460	-0.585
0.260	-5.445	-0.594
0.471	-6.107	-1.144
0.490	-6.110	-1.134
0.499	-6.120	-1.118
0.496	-6.133	-1.102
0.481	-6.144	-1.092
0.461	-6.149	-1.091
0.443	-6.146	-1.101
0.433	-6.136	-1.117
0.436	-6.123	-1.133
0.451	-6.112	-1.143
0.577	-6.666	-1.530
0.595	-6.670	-1.520
0.604	-6.680	-1.503
0.599	-6.692	-1.487
0.584	-6.702	-1.477
0.563	-6.706	-1.477
0.545	-6.702	-1.487
0.537	-6.692	-1.503
0.541	-6.680	-1.520
0.557	-6.670	-1.530
0.016	-5.018	0.013
0.003	-5.010	0.028
-0.010	-4.995	0.032
-0.020	-4.978	0.025
-0.022	-4.965	0.008
-0.015	-4.962	-0.012
-0.002	-4.970	-0.027
0.011	-4.985	-0.032
0.021	-5.002	-0.024
0.023	-5.015	-0.007
-0.577	-5.463	-0.251
-0.591	-5.455	-0.238
-0.607	-5.440	-0.237
-0.616	-5.425	-0.249
-0.617	-5.416	-0.267
-0.609	-5.415	-0.286
-0.594	-5.424	-0.299
-0.579	-5.438	-0.300
-0.569	-5.453	-0.288
-0.568	-5.463	-0.270
-1.067	-6.143	-0.499
-1.084	-6.137	-0.489
-1.102	-6.127	-0.490
-1.115	-6.116	-0.502
-1.116	-6.108	-0.522
-1.107	-6.107	-0.541
-1.090	-6.113	-0.552
-1.072	-6.124	-0.551
-1.060	-6.135	-0.538
-1.058	-6.142	-0.518
-1.324	-6.737	-0.721
-1.319	-6.745	-0.702
-1.326	-6.748	-0.683
-1.342	-6.745	-0.670
-1.361	-6.737	-0.668
-1.376	-6.727	-0.679
-1.382	-6.719	-0.698
-1.375	-6.717	-0.717
-1.359	-6.720	-0.731
-1.339	-6.728	-0.732
0.026	-5.012	-0.003
0.032	-4.997	0.010
0.026	-4.980	0.020
0.010	-4.966	0.022
-0.009	-4.961	0.016
-0.025	-4.968	0.003
-0.031	-4.983	-0.010
-0.025	-5.001	-0.019
-0.009	-5.014	-0.021
0.010	-5.019	-0.015
-0.264	-5.430	0.598
-0.259	-5.416	0.613
-0.266	-5.400	0.624
-0.282	-5.388	0.628
-0.302	-5.383	0.622
-0.317	-5.389	0.610
-0.323	-5.402	0.594
-0.316	-5.419	0.583
-0.300	-5.431	0.579
-0.280	-5.436	0.585
-0.530	-6.070	1.138
-0.525	-6.059	1.155
-0.532	-6.045	1.169
-0.549	-6.035	1.175
-0.569	-6.031	1.171
-0.585	-6.035	1.158
-0.590	-6.046	1.141
-0.583	-6.059	1.126
-0.566	-6.070	1.120
-0.545	-6.074	1.124
-0.753	-6.586	1.509
-0.734	-6.576	1.509
-0.713	-6.580	1.509
-0.698	-6.594	1.509
-0.695	-6.615	1.509
-0.705	-6.634	1.509
-0.723	-6.643	1.509
-0.744	-6.640	1.509
-0.759	-6.625	1.509
-0.762	-6.604	1.509
-0.149	-4.999	0.148
-0.034	-5.002	0.207
0.094	-5.004	0.188
0.187	-5.005	0.096
0.208	-5.004	-0.032
0.149	-5.001	-0.148
0.034	-4.998	-0.207
-0.094	-4.996	-0.188
-0.187	-4.995	-0.096
-0.208	-4.996	0.032
-0.131	-4.250	0.157
-0.017	-4.252	0.215
0.110	-4.253	0.195
0.201	-4.253	0.104
0.222	-4.253	-0.022
0.163	-4.251	-0.137
0.049	-4.249	-0.196
-0.078	-4.248	-0.176
-0.169	-4.247	-0.085
-0.189	-4.248	0.042
-0.128	-3.561	0.159
-0.014	-3.561	0.217
0.112	-3.561	0.196
0.202	-3.561	0.106
0.222	-3.560	-0.020
0.163	-3.560	-0.134
0.049	-3.559	-0.192
-0.077	-3.560	-0.172
-0.167	-3.560	-0.081
-0.187	-3.560	0.045
-0.128	-2.701	0.163
-0.015	-2.702	0.221
0.111	-2.701	0.200
0.200	-2.701	0.110
0.220	-2.700	-0.016
0.162	-2.699	-0.129
0.048	-2.699	-0.186
-0.077	-2.700	-0.166
-0.167	-2.700	-0.076
-0.187	-2.701	0.050
-0.129	-2.101	0.166
-0.016	-2.101	0.223
0.109	-2.101	0.203
0.199	-2.100	0.113
0.218	-2.100	-0.013
0.160	-2.100	-0.125
0.047	-2.100	-0.183
-0.078	-2.100	-0.162
-0.167	-2.101	-0.072
-0.187	-2.101	0.053
-0.131	-1.201	0.167
-0.019	-1.201	0.224
0.106	-1.201	0.204
0.195	-1.201	0.114
0.215	-1.201	-0.010
0.157	-1.200	-0.123
0.045	-1.200	-0.180
-0.080	-1.200	-0.160
-0.169	-1.200	-0.071
-0.189	-1.200	0.054
-0.126	-0.301	0.171
-0.014	-0.301	0.228
0.110	-0.301	0.208
0.199	-0.301	0.119
0.219	-0.301	-0.005
0.162	-0.300	-0.117
0.050	-0.300	-0.174
-0.075	-0.299	-0.154
-0.164	-0.300	-0.065
-0.183	-0.300	0.059
-0.126	0.560	0.173
-0.014	0.560	0.230
0.110	0.560	0.210
0.199	0.560	0.121
0.219	0.560	-0.003
0.162	0.559	-0.115
0.050	0.559	-0.172
-0.074	0.559	-0.152
-0.163	0.559	-0.063
-0.183	0.559	0.061
-0.126	1.440	0.168
-0.015	1.441	0.225
0.109	1.441	0.206
0.198	1.440	0.118
0.217	1.440	-0.006
0.161	1.439	-0.117
0.049	1.438	-0.175
-0.074	1.438	-0.155
-0.163	1.439	-0.067
-0.183	1.439	0.057
-0.127	2.316	0.162
-0.016	2.316	0.218
0.107	2.316	0.199
0.195	2.316	0.111
0.214	2.316	-0.012
0.158	2.316	-0.123
0.047	2.316	-0.180
-0.076	2.315	-0.160
-0.164	2.315	-0.072
-0.184	2.316	0.051
-0.126	2.569	0.162
-0.016	2.569	0.218
0.106	2.569	0.198
0.194	2.569	0.111
0.213	2.570	-0.012
0.156	2.570	-0.122
0.046	2.570	-0.177
-0.076	2.570	-0.158
-0.163	2.570	-0.070
-0.182	2.569	0.052
0.004	-5.108	0.020
0.003	-5.099	0.022
0.004	-5.090	0.019
0.006	-5.085	0.012
0.008	-5.085	0.003
0.011	-5.091	-0.004
0.012	-5.100	-0.007
0.012	-5.108	-0.004
0.010	-5.114	0.004
0.007	-5.114	0.013
-0.811	-5.158	-0.241
-0.812	-5.150	-0.236
-0.810	-5.141	-0.235
-0.806	-5.134	-0.240
-0.801	-5.132	-0.247
-0.797	-5.135	-0.255
-0.795	-5.143	-0.260
-0.797	-5.152	-0.260
-0.802	-5.159	-0.256
-0.807	-5.161	-0.249
-1.068	-4.974	-0.518
-1.063	-4.966	-0.518
-1.056	-4.962	-0.521
-1.049	-4.962	-0.528
-1.045	-4.968	-0.534
-1.046	-4.976	-0.539
-1.051	-4.984	-0.539
-1.058	-4.988	-0.535
-1.065	-4.988	-0.529
-1.069	-4.982	-0.523
0.017	-5.210	0.025
0.020	-5.202	0.029
0.021	-5.193	0.028
0.020	-5.186	0.022
0.017	-5.184	0.014
0.014	-5.188	0.006
0.011	-5.195	0.001
0.010	-5.204	0.003
0.011	-5.211	0.009
0.013	-5.214	0.017
-0.777	-5.077	0.308
-0.773	-5.069	0.312
-0.771	-5.060	0.310
-0.772	-5.053	0.304
-0.776	-5.051	0.296
-0.782	-5.054	0.289
-0.786	-5.061	0.286
-0.788	-5.070	0.287
-0.787	-5.077	0.293
-0.782	-5.080	0.301
-0.990	-4.950	0.490
-0.988	-4.945	0.498
-0.988	-4.945	0.507
-0.990	-4.950	0.514
-0.994	-4.958	0.517
-0.998	-4.966	0.514
-1.000	-4.971	0.507
-1.000	-4.970	0.497
-0.998	-4.966	0.490
-0.994	-4.958	0.487
0.141	-6.072	0.097
0.145	-6.069	0.105
0.149	-6.072	0.112
0.153	-6.080	0.116
0.154	-6.089	0.115
0.153	-6.096	0.109
0.150	-6.099	0.101
0.145	-6.095	0.093
0.142	-6.088	0.089
0.140	-6.079	0.091
0.877	-5.896	-0.258
0.882	-5.894	-0.251
0.889	-5.897	-0.245
0.893	-5.904	-0.242
0.895	-5.913	-0.244
0.893	-5.920	-0.250
0.887	-5.923	-0.257
0.881	-5.920	-0.263
0.876	-5.912	-0.265
0.874	-5.903	-0.263
1.005	-5.821	-0.474
1.012	-5.818	-0.468
1.020	-5.820	-0.464
1.026	-5.827	-0.463
1.027	-5.836	-0.465
1.024	-5.843	-0.470
1.017	-5.846	-0.475
1.009	-5.844	-0.479
1.003	-5.837	-0.480
1.001	-5.828	-0.478
0.179	-6.191	0.113
0.181	-6.185	0.120
0.179	-6.177	0.124
0.172	-6.171	0.124
0.163	-6.168	0.121
0.156	-6.171	0.116
0.154	-6.178	0.110
0.157	-6.185	0.105
0.163	-6.192	0.105
0.172	-6.194	0.108
-0.168	-6.650	0.743
-0.166	-6.644	0.750
-0.168	-6.637	0.755
-0.176	-6.631	0.756
-0.185	-6.630	0.754
-0.192	-6.633	0.749
-0.194	-6.639	0.743
-0.191	-6.646	0.738
-0.184	-6.652	0.736
-0.175	-6.653	0.738
-0.186	-6.728	0.827
-0.184	-6.722	0.833
-0.187	-6.715	0.839
-0.194	-6.711	0.842
-0.203	-6.710	0.841
-0.211	-6.713	0.836
-0.213	-6.719	0.830
-0.210	-6.726	0.824
-0.203	-6.731	0.821
-0.194	-6.732	0.823
0.193	-6.289	0.131
0.191	-6.281	0.136
0.189	-6.272	0.135
0.188	-6.265	0.129
0.189	-6.263	0.120
0.190	-6.267	0.112
0.193	-6.274	0.107
0.195	-6.283	0.108
0.195	-6.290	0.114
0.195	-6.292	0.123
-0.639	-6.470	0.036
-0.641	-6.463	0.041
-0.644	-6.454	0.041
-0.646	-6.447	0.036
-0.647	-6.444	0.027
-0.645	-6.446	0.018
-0.643	-6.453	0.013
-0.640	-6.462	0.013
-0.638	-6.469	0.018
-0.637	-6.472	0.027
-0.752	-6.520	0.035
-0.754	-6.514	0.041
-0.758	-6.505	0.043
-0.761	-6.498	0.039
-0.763	-6.494	0.030
-0.762	-6.495	0.021
-0.760	-6.501	0.015
-0.756	-6.510	0.013
-0.753	-6.517	0.017
-0.751	-6.521	0.026
0.216	-6.385	0.139
0.210	-6.379	0.141
0.206	-6.371	0.139
0.206	-6.364	0.132
0.210	-6.362	0.124
0.216	-6.364	0.118
0.222	-6.371	0.115
0.226	-6.379	0.118
0.226	-6.385	0.124
0.222	-6.388	0.132
-0.402	-6.807	-0.282
-0.408	-6.801	-0.280
-0.412	-6.793	-0.282
-0.412	-6.786	-0.289
-0.408	-6.784	-0.297
-0.402	-6.786	-0.303
-0.396	-6.793	-0.306
-0.392	-6.801	-0.303
-0.392	-6.807	-0.297
-0.396	-6.810	-0.289
0.255	-6.477	0.130
0.258	-6.470	0.136
0.255	-6.464	0.142
0.247	-6.460	0.145
0.238	-6.460	0.145
0.230	-6.464	0.142
0.228	-6.471	0.136
0.231	-6.478	0.130
0.238	-6.481	0.126
0.247	-6.481	0.126
0.268	-7.007	0.714
0.271	-7.002	0.721
0.268	-6.996	0.728
0.260	-6.992	0.732
0.251	-6.992	0.731
0.244	-6.994	0.726
0.241	-6.999	0.718
0.244	-7.004	0.711
0.252	-7.008	0.708
0.261	-7.009	0.708
0.235	-7.026	0.735
0.243	-7.022	0.735
0.252	-7.023	0.735
0.259	-7.030	0.735
0.260	-7.039	0.735
0.256	-7.047	0.735
0.248	-7.051	0.735
0.239	-7.050	0.735
0.232	-7.043	0.735
0.231	-7.034	0.735
0.266	-6.555	0.135
0.273	-6.552	0.140
0.279	-6.556	0.147
0.281	-6.563	0.152
0.279	-6.572	0.154
0.273	-6.579	0.152
0.266	-6.581	0.146
0.260	-6.578	0.140
0.258	-6.570	0.135
0.260	-6.562	0.133
0.775	-6.799	-0.430
0.782	-6.797	-0.425
0.788	-6.800	-0.418
0.790	-6.807	-0.413
0.788	-6.816	-0.411
0.782	-6.823	-0.414
0.775	-6.825	-0.419
0.769	-6.822	-0.426
0.767	-6.815	-0.431
0.769	-6.806	-0.433
0.292	-6.650	0.143
[...]
         <CellData>
           <DataArray type="Float32" Name="combinedRootClassID" NumberOfComponents="1" format="ascii">
 -5.000e+00 -5.000e+00 -5.000e+00 -5.000e+00 -5.000e+00 -5.000e+00 -5.000e+00 -5.000e+00 -5.000e+00 -5.000e+00 -5.000e+00 -5.000e+00 -2.000e+00 -2.000e+00 -2.000e+00 -2.000e+00 -2.000e+00 -2.000e+00 -2.000e+00 -2.000e+00 -2.000e+00 -2.000e+00 -7.000e+00 -7.000e+00 -7.000e+00 -7.000e+00 -7.000e+00 -7.000e+00 -7.000e+00 -7.000e+00 -7.000e+00 -7.000e+00 -7.000e+00 -7.000e+00 -7.000e+00 -7.000e+00 -7.000e+00 -7.000e+00 -7.000e+00 -7.000e+00 -7.000e+00 -7.000e+00 -7.000e+00 -7.000e+00 -7.000e+00 -7.000e+00 -7.000e+00 -7.000e+00 -7.000e+00 -7.000e+00 -7.000e+00 -7.000e+00 -7.000e+00 -7.000e+00 -7.000e+00 -7.000e+00 -7.000e+00 -7.000e+00 -7.000e+00 -7.000e+00 -7.000e+00 -7.000e+00 -7.000e+00 -7.000e+00 -7.000e+00 -7.000e+00 -7.000e+00 -7.000e+00 -7.000e+00 -7.000e+00 -7.000e+00 -7.000e+00 -7.000e+00 -7.000e+00 -7.000e+00 -7.000e+00 -7.000e+00 -9.000e+00 -4.000e+00 -4.000e+00 -4.000e+00 -4.000e+00 -4.000e+00 -4.000e+00 -4.000e+00 -4.000e+00 -4.000e+00 -4.000e+00 -4.000e+00 -4.000e+00 -4.000e+00 -4.000e+00 -4.000e+00 -4.000e+00 -4.000e+00 -4.000e+00 -4.000e+00 -4.000e+00
           </DataArray>
           <DataArray type="Float32" Name="nitrate/minimalNutrientConcentration" NumberOfComponents="1" format="ascii">
 6.000e+02 6.000e+02 6.000e+02 6.000e+02 6.000e+02 6.000e+02 6.000e+02 6.000e+02 6.000e+02 6.000e+02 6.000e+02 6.000e+02 6.000e+02 6.000e+02 6.000e+02 6.000e+02 6.000e+02 6.000e+02 6.000e+02 6.000e+02 6.000e+02 6.000e+02 6.000e+02 6.000e+02 6.000e+02 6.000e+02 6.000e+02 6.000e+02 6.000e+02 6.000e+02 6.000e+02 6.000e+02 6.000e+02 6.000e+02 6.000e+02 6.000e+02 6.000e+02 6.000e+02 6.000e+02 6.000e+02 6.000e+02 6.000e+02 6.000e+02 6.000e+02 6.000e+02 6.000e+02 6.000e+02 6.000e+02 6.000e+02 6.000e+02 6.000e+02 6.000e+02 6.000e+02 6.000e+02 6.000e+02 6.000e+02 6.000e+02 6.000e+02 6.000e+02 6.000e+02 6.000e+02 6.000e+02 6.000e+02 6.000e+02 6.000e+02 6.000e+02 6.000e+02 6.000e+02 6.000e+02 6.000e+02 6.000e+02 6.000e+02 6.000e+02 6.000e+02 6.000e+02 6.000e+02 6.000e+02 6.000e+02 6.000e+02 6.000e+02 6.000e+02 6.000e+02 6.000e+02 6.000e+02 6.000e+02 6.000e+02 6.000e+02 6.000e+02 6.000e+02 6.000e+02 6.000e+02 6.000e+02 6.000e+02 6.000e+02 6.000e+02 6.000e+02 6.000e+02 6.000e+02
           </DataArray>
           <DataArray type="Float32" Name="nitrate/optimalNutrientConcentration" NumberOfComponents="1" format="ascii">
 1.200e+03 1.200e+03 1.200e+03 1.200e+03 1.200e+03 1.200e+03 1.200e+03 1.200e+03 1.200e+03 1.200e+03 1.200e+03 1.200e+03 1.200e+03 1.200e+03 1.200e+03 1.200e+03 1.200e+03 1.200e+03 1.200e+03 1.200e+03 1.200e+03 1.200e+03 1.200e+03 1.200e+03 1.200e+03 1.200e+03 1.200e+03 1.200e+03 1.200e+03 1.200e+03 1.200e+03 1.200e+03 1.200e+03 1.200e+03 1.200e+03 1.200e+03 1.200e+03 1.200e+03 1.200e+03 1.200e+03 1.200e+03 1.200e+03 1.200e+03 1.200e+03 1.200e+03 1.200e+03 1.200e+03 1.200e+03 1.200e+03 1.200e+03 1.200e+03 1.200e+03 1.200e+03 1.200e+03 1.200e+03 1.200e+03 1.200e+03 1.200e+03 1.200e+03 1.200e+03 1.200e+03 1.200e+03 1.200e+03 1.200e+03 1.200e+03 1.200e+03 1.200e+03 1.200e+03 1.200e+03 1.200e+03 1.200e+03 1.200e+03 1.200e+03 1.200e+03 1.200e+03 1.200e+03 1.200e+03 1.200e+03 1.200e+03 1.200e+03 1.200e+03 1.200e+03 1.200e+03 1.200e+03 1.200e+03 1.200e+03 1.200e+03 1.200e+03 1.200e+03 1.200e+03 1.200e+03 1.200e+03 1.200e+03 1.200e+03 1.200e+03 1.200e+03 1.200e+03 1.200e+03
           </DataArray>
           <DataArray type="Float32" Name="nitrate/radiusDepletionZone" NumberOfComponents="1" format="ascii">
 3.400e-02 3.400e-02 3.400e-02 3.400e-02 3.400e-02 4.405e-01 3.400e-02 3.400e-02 4.433e-01 3.400e-02 3.400e-02 4.433e-01 2.532e+00 5.950e+00 1.800e+01 1.238e+01 1.047e+01 8.023e+00 6.755e+00 2.025e-01 2.020e-01 2.010e-01 1.501e-02 1.500e-02 1.501e-02 1.500e-02 1.500e-02 1.500e-02 1.500e-02 1.500e-02 1.500e-02 1.500e-02 1.500e-02 1.500e-02 1.500e-02 1.500e-02 1.500e-02 1.500e-02 1.500e-02 1.500e-02 1.500e-02 1.500e-02 1.500e-02 1.500e-02 1.500e-02 1.500e-02 1.500e-02 1.500e-02 1.500e-02 1.500e-02 1.500e-02 1.500e-02 1.500e-02 1.500e-02 1.500e-02 1.500e-02 1.500e-02 1.500e-02 1.500e-02 1.500e-02 1.500e-02 1.500e-02 1.500e-02 1.500e-02 1.500e-02 1.500e-02 1.500e-02 1.500e-02 1.500e-02 1.500e-02 1.500e-02 1.500e-02 1.500e-02 1.500e-02 1.500e-02 1.500e-02 1.500e-02 1.500e-02 1.986e+00 4.062e+01 1.856e+01 1.237e+01 8.627e+00 6.383e+00 5.318e+00 4.189e+00 3.665e+00 2.970e+00 2.415e+00 2.195e+00 1.797e+00 1.658e+00 1.355e+00 1.093e+00 1.024e+00 8.120e-01 6.235e-01 4.548e-01
           </DataArray>
           <DataArray type="Float32" Name="nitrate/rootSegmentMinimalNutrientContent" NumberOfComponents="1" format="ascii">
 1.632e-01 1.811e-01 1.406e-01 1.632e-01 1.811e-01 1.406e-01 1.632e-01 1.811e-01 1.406e-01 1.632e-01 1.811e-01 1.406e-01 5.806e+00 5.260e+00 6.486e+00 4.502e+00 6.712e+00 6.659e+00 6.322e+00 6.436e+00 6.333e+00 1.809e+00 3.563e-02 1.680e-02 3.523e-02 1.296e-02 3.532e-02 1.069e-02 3.488e-02 4.761e-03 3.522e-02 5.000e-03 3.527e-02 3.486e-02 1.627e-03 3.472e-02 2.994e-02 3.377e-02 2.590e-02 2.790e-02 3.483e-02 1.772e-02 2.638e-02 2.693e-02 2.419e-02 2.401e-02 2.560e-02 2.303e-02 1.766e-02 1.544e-02 1.622e-02 1.548e-02 3.428e-02 2.081e-02 1.083e-02 1.116e-02 1.199e-02 8.641e-03 8.046e-03 7.582e-03 5.755e-03 3.774e-03 2.713e-03 1.917e-03 3.498e-02 1.221e-02 4.365e-04 3.520e-02 1.504e-02 3.579e-02 7.385e-03 3.581e-02 1.406e-02 3.445e-02 5.856e-03 3.501e-02 4.435e-03 1.604e-02 3.227e-01 3.135e-01 3.050e-01 2.972e-01 2.901e-01 2.842e-01 2.794e-01 2.756e-01 2.723e-01 2.693e-01 2.666e-01 2.641e-01 2.619e-01 2.600e-01 2.583e-01 2.569e-01 2.557e-01 2.549e-01 2.542e-01 2.538e-01
           </DataArray>
           <DataArray type="Float32" Name="nitrate/rootSegmentNutrientUptake" NumberOfComponents="1" format="ascii">
 0.000e+00 0.000e+00 0.000e+00 0.000e+00 0.000e+00 3.528e-02 0.000e+00 0.000e+00 3.527e-02 0.000e+00 0.000e+00 3.526e-02 3.199e+00 2.418e+00 3.511e+00 2.492e+00 3.590e+00 3.501e+00 3.190e+00 0.000e+00 0.000e+00 0.000e+00 0.000e+00 0.000e+00 0.000e+00 0.000e+00 0.000e+00 0.000e+00 0.000e+00 0.000e+00 0.000e+00 0.000e+00 0.000e+00 0.000e+00 0.000e+00 0.000e+00 0.000e+00 0.000e+00 0.000e+00 0.000e+00 0.000e+00 0.000e+00 0.000e+00 0.000e+00 0.000e+00 0.000e+00 0.000e+00 0.000e+00 0.000e+00 0.000e+00 0.000e+00 0.000e+00 0.000e+00 0.000e+00 0.000e+00 0.000e+00 0.000e+00 0.000e+00 0.000e+00 0.000e+00 0.000e+00 0.000e+00 0.000e+00 0.000e+00 0.000e+00 0.000e+00 0.000e+00 0.000e+00 0.000e+00 0.000e+00 0.000e+00 0.000e+00 0.000e+00 0.000e+00 0.000e+00 0.000e+00 0.000e+00 0.000e+00 1.992e+00 1.543e+00 1.922e+00 1.856e+00 1.780e+00 1.685e+00 1.578e+00 1.467e+00 1.350e+00 1.231e+00 1.111e+00 9.897e-01 8.677e-01 7.451e-01 6.232e-01 5.039e-01 3.874e-01 2.739e-01 1.609e-01 4.821e-02
           </DataArray>
           <DataArray type="Float32" Name="nitrate/rootSegmentOptimalNutrientContent" NumberOfComponents="1" format="ascii">
 3.265e-01 3.621e-01 2.812e-01 3.265e-01 3.621e-01 2.812e-01 3.265e-01 3.621e-01 2.812e-01 3.265e-01 3.621e-01 2.812e-01 1.161e+01 1.052e+01 1.297e+01 9.004e+00 1.342e+01 1.332e+01 1.264e+01 1.287e+01 1.267e+01 3.619e+00 7.125e-02 3.360e-02 7.047e-02 2.591e-02 7.064e-02 2.138e-02 6.976e-02 9.522e-03 7.043e-02 1.000e-02 7.055e-02 6.972e-02 3.254e-03 6.944e-02 5.989e-02 6.755e-02 5.179e-02 5.580e-02 6.967e-02 3.544e-02 5.277e-02 5.386e-02 4.839e-02 4.803e-02 5.120e-02 4.606e-02 3.532e-02 3.089e-02 3.243e-02 3.096e-02 6.856e-02 4.161e-02 2.166e-02 2.231e-02 2.398e-02 1.728e-02 1.609e-02 1.516e-02 1.151e-02 7.549e-03 5.427e-03 3.834e-03 6.995e-02 2.441e-02 8.729e-04 7.041e-02 3.007e-02 7.157e-02 1.477e-02 7.162e-02 2.812e-02 6.889e-02 1.171e-02 7.002e-02 8.871e-03 3.208e-02 6.454e-01 6.270e-01 6.100e-01 5.944e-01 5.802e-01 5.683e-01 5.587e-01 5.512e-01 5.446e-01 5.386e-01 5.331e-01 5.282e-01 5.238e-01 5.199e-01 5.166e-01 5.138e-01 5.115e-01 5.097e-01 5.084e-01 5.077e-01
           </DataArray>
           <DataArray type="Float32" Name="parentRootClassID" NumberOfComponents="1" format="ascii">
 -2.000e+00 -2.000e+00 -2.000e+00 -2.000e+00 -2.000e+00 -2.000e+00 -2.000e+00 -2.000e+00 -2.000e+00 -2.000e+00 -2.000e+00 -2.000e+00 -3.000e+00 -3.000e+00 -3.000e+00 -3.000e+00 -3.000e+00 -3.000e+00 -3.000e+00 -3.000e+00 -3.000e+00 -3.000e+00 -4.000e+00 -4.000e+00 -4.000e+00 -4.000e+00 -4.000e+00 -4.000e+00 -4.000e+00 -4.000e+00 -4.000e+00 -4.000e+00 -4.000e+00 -4.000e+00 -4.000e+00 -4.000e+00 -4.000e+00 -4.000e+00 -4.000e+00 -4.000e+00 -4.000e+00 -4.000e+00 -4.000e+00 -4.000e+00 -4.000e+00 -4.000e+00 -4.000e+00 -4.000e+00 -4.000e+00 -4.000e+00 -4.000e+00 -4.000e+00 -4.000e+00 -4.000e+00 -4.000e+00 -4.000e+00 -4.000e+00 -4.000e+00 -4.000e+00 -4.000e+00 -4.000e+00 -4.000e+00 -4.000e+00 -4.000e+00 -4.000e+00 -4.000e+00 -4.000e+00 -4.000e+00 -4.000e+00 -4.000e+00 -4.000e+00 -4.000e+00 -4.000e+00 -4.000e+00 -4.000e+00 -4.000e+00 -4.000e+00 -4.000e+00 -3.000e+00 -3.000e+00 -3.000e+00 -3.000e+00 -3.000e+00 -3.000e+00 -3.000e+00 -3.000e+00 -3.000e+00 -3.000e+00 -3.000e+00 -3.000e+00 -3.000e+00 -3.000e+00 -3.000e+00 -3.000e+00 -3.000e+00 -3.000e+00 -3.000e+00 -3.000e+00
           </DataArray>
           <DataArray type="Float32" Name="plantID" NumberOfComponents="1" format="ascii">
 7.000e+00 7.000e+00 7.000e+00 7.000e+00 7.000e+00 7.000e+00 7.000e+00 7.000e+00 7.000e+00 7.000e+00 7.000e+00 7.000e+00 7.000e+00 7.000e+00 7.000e+00 7.000e+00 7.000e+00 7.000e+00 7.000e+00 7.000e+00 7.000e+00 7.000e+00 7.000e+00 7.000e+00 7.000e+00 7.000e+00 7.000e+00 7.000e+00 7.000e+00 7.000e+00 7.000e+00 7.000e+00 7.000e+00 7.000e+00 7.000e+00 7.000e+00 7.000e+00 7.000e+00 7.000e+00 7.000e+00 7.000e+00 7.000e+00 7.000e+00 7.000e+00 7.000e+00 7.000e+00 7.000e+00 7.000e+00 7.000e+00 7.000e+00 7.000e+00 7.000e+00 7.000e+00 7.000e+00 7.000e+00 7.000e+00 7.000e+00 7.000e+00 7.000e+00 7.000e+00 7.000e+00 7.000e+00 7.000e+00 7.000e+00 7.000e+00 7.000e+00 7.000e+00 7.000e+00 7.000e+00 7.000e+00 7.000e+00 7.000e+00 7.000e+00 7.000e+00 7.000e+00 7.000e+00 7.000e+00 7.000e+00 7.000e+00 7.000e+00 7.000e+00 7.000e+00 7.000e+00 7.000e+00 7.000e+00 7.000e+00 7.000e+00 7.000e+00 7.000e+00 7.000e+00 7.000e+00 7.000e+00 7.000e+00 7.000e+00 7.000e+00 7.000e+00 7.000e+00 7.000e+00
           </DataArray>
           <DataArray type="Float32" Name="plantTypeID" NumberOfComponents="1" format="ascii">
 0.000e+00 0.000e+00 0.000e+00 0.000e+00 0.000e+00 0.000e+00 0.000e+00 0.000e+00 0.000e+00 0.000e+00 0.000e+00 0.000e+00 0.000e+00 0.000e+00 0.000e+00 0.000e+00 0.000e+00 0.000e+00 0.000e+00 0.000e+00 0.000e+00 0.000e+00 0.000e+00 0.000e+00 0.000e+00 0.000e+00 0.000e+00 0.000e+00 0.000e+00 0.000e+00 0.000e+00 0.000e+00 0.000e+00 0.000e+00 0.000e+00 0.000e+00 0.000e+00 0.000e+00 0.000e+00 0.000e+00 0.000e+00 0.000e+00 0.000e+00 0.000e+00 0.000e+00 0.000e+00 0.000e+00 0.000e+00 0.000e+00 0.000e+00 0.000e+00 0.000e+00 0.000e+00 0.000e+00 0.000e+00 0.000e+00 0.000e+00 0.000e+00 0.000e+00 0.000e+00 0.000e+00 0.000e+00 0.000e+00 0.000e+00 0.000e+00 0.000e+00 0.000e+00 0.000e+00 0.000e+00 0.000e+00 0.000e+00 0.000e+00 0.000e+00 0.000e+00 0.000e+00 0.000e+00 0.000e+00 0.000e+00 0.000e+00 0.000e+00 0.000e+00 0.000e+00 0.000e+00 0.000e+00 0.000e+00 0.000e+00 0.000e+00 0.000e+00 0.000e+00 0.000e+00 0.000e+00 0.000e+00 0.000e+00 0.000e+00 0.000e+00 0.000e+00 0.000e+00 0.000e+00
           </DataArray>
           <DataArray type="Float32" Name="rootCircumference" NumberOfComponents="1" format="ascii">
 2.136e-01 2.136e-01 2.136e-01 2.136e-01 2.136e-01 2.136e-01 2.136e-01 2.136e-01 2.136e-01 2.136e-01 2.136e-01 2.136e-01 1.320e+00 1.307e+00 1.300e+00 1.293e+00 1.289e+00 1.284e+00 1.280e+00 1.276e+00 1.273e+00 1.265e+00 9.431e-02 9.425e-02 9.430e-02 9.425e-02 9.428e-02 9.425e-02 9.428e-02 9.425e-02 9.428e-02 9.425e-02 9.427e-02 9.427e-02 9.425e-02 9.427e-02 9.427e-02 9.427e-02 9.427e-02 9.426e-02 9.430e-02 9.425e-02 9.426e-02 9.426e-02 9.426e-02 9.426e-02 9.426e-02 9.426e-02 9.426e-02 9.425e-02 9.425e-02 9.425e-02 9.430e-02 9.425e-02 9.425e-02 9.425e-02 9.425e-02 9.425e-02 9.425e-02 9.425e-02 9.425e-02 9.425e-02 9.425e-02 9.425e-02 9.429e-02 9.425e-02 9.425e-02 9.429e-02 9.425e-02 9.429e-02 9.425e-02 9.429e-02 9.425e-02 9.428e-02 9.425e-02 9.428e-02 9.425e-02 9.426e-02 3.189e-01 3.143e-01 3.100e-01 3.060e-01 3.023e-01 2.992e-01 2.967e-01 2.947e-01 2.929e-01 2.913e-01 2.898e-01 2.885e-01 2.873e-01 2.862e-01 2.853e-01 2.845e-01 2.839e-01 2.834e-01 2.830e-01 2.828e-01
           </DataArray>
           <DataArray type="Float32" Name="rootClassID" NumberOfComponents="1" format="ascii">
 9.900e+01 9.900e+01 9.900e+01 9.900e+01 9.900e+01 9.900e+01 9.900e+01 9.900e+01 9.900e+01 9.900e+01 9.900e+01 9.900e+01 -2.000e+00 -2.000e+00 -2.000e+00 -2.000e+00 -2.000e+00 -2.000e+00 -2.000e+00 -2.000e+00 -2.000e+00 -2.000e+00 9.700e+01 9.700e+01 9.700e+01 9.700e+01 9.700e+01 9.700e+01 9.700e+01 9.700e+01 9.700e+01 9.700e+01 9.700e+01 9.700e+01 9.700e+01 9.700e+01 9.700e+01 9.700e+01 9.700e+01 9.700e+01 9.700e+01 9.700e+01 9.700e+01 9.700e+01 9.700e+01 9.700e+01 9.700e+01 9.700e+01 9.700e+01 9.700e+01 9.700e+01 9.700e+01 9.700e+01 9.700e+01 9.700e+01 9.700e+01 9.700e+01 9.700e+01 9.700e+01 9.700e+01 9.700e+01 9.700e+01 9.700e+01 9.700e+01 9.700e+01 9.700e+01 9.700e+01 9.700e+01 9.700e+01 9.700e+01 9.700e+01 9.700e+01 9.700e+01 9.700e+01 9.700e+01 9.700e+01 9.700e+01 9.700e+01 -4.000e+00 -4.000e+00 -4.000e+00 -4.000e+00 -4.000e+00 -4.000e+00 -4.000e+00 -4.000e+00 -4.000e+00 -4.000e+00 -4.000e+00 -4.000e+00 -4.000e+00 -4.000e+00 -4.000e+00 -4.000e+00 -4.000e+00 -4.000e+00 -4.000e+00 -4.000e+00
           </DataArray>
           <DataArray type="Float32" Name="rootDiameter" NumberOfComponents="1" format="ascii">
 6.800e-02 6.800e-02 6.800e-02 6.800e-02 6.800e-02 6.800e-02 6.800e-02 6.800e-02 6.800e-02 6.800e-02 6.800e-02 6.800e-02 4.201e-01 4.160e-01 4.137e-01 4.116e-01 4.103e-01 4.087e-01 4.074e-01 4.063e-01 4.051e-01 4.027e-01 3.002e-02 3.000e-02 3.002e-02 3.000e-02 3.001e-02 3.000e-02 3.001e-02 3.000e-02 3.001e-02 3.000e-02 3.001e-02 3.001e-02 3.000e-02 3.001e-02 3.001e-02 3.001e-02 3.001e-02 3.001e-02 3.002e-02 3.000e-02 3.000e-02 3.000e-02 3.000e-02 3.000e-02 3.000e-02 3.000e-02 3.000e-02 3.000e-02 3.000e-02 3.000e-02 3.002e-02 3.000e-02 3.000e-02 3.000e-02 3.000e-02 3.000e-02 3.000e-02 3.000e-02 3.000e-02 3.000e-02 3.000e-02 3.000e-02 3.001e-02 3.000e-02 3.000e-02 3.001e-02 3.000e-02 3.001e-02 3.000e-02 3.001e-02 3.000e-02 3.001e-02 3.000e-02 3.001e-02 3.000e-02 3.000e-02 1.015e-01 1.000e-01 9.868e-02 9.741e-02 9.624e-02 9.525e-02 9.444e-02 9.380e-02 9.324e-02 9.272e-02 9.225e-02 9.182e-02 9.144e-02 9.110e-02 9.081e-02 9.056e-02 9.036e-02 9.020e-02 9.009e-02 9.002e-02
           </DataArray>
           <DataArray type="Float32" Name="rootHairDensity" NumberOfComponents="1" format="ascii">
 2.000e+03 2.000e+03 2.000e+03 2.000e+03 2.000e+03 2.000e+03 2.000e+03 2.000e+03 2.000e+03 2.000e+03 2.000e+03 2.000e+03 0.000e+00 0.000e+00 0.000e+00 0.000e+00 0.000e+00 0.000e+00 0.000e+00 0.000e+00 0.000e+00 0.000e+00 2.000e+03 2.000e+03 2.000e+03 2.000e+03 2.000e+03 2.000e+03 2.000e+03 2.000e+03 2.000e+03 2.000e+03 2.000e+03 2.000e+03 2.000e+03 2.000e+03 2.000e+03 2.000e+03 2.000e+03 2.000e+03 2.000e+03 2.000e+03 2.000e+03 2.000e+03 2.000e+03 2.000e+03 2.000e+03 2.000e+03 2.000e+03 2.000e+03 2.000e+03 2.000e+03 2.000e+03 2.000e+03 2.000e+03 2.000e+03 2.000e+03 2.000e+03 2.000e+03 2.000e+03 2.000e+03 2.000e+03 2.000e+03 2.000e+03 2.000e+03 2.000e+03 2.000e+03 2.000e+03 2.000e+03 2.000e+03 2.000e+03 2.000e+03 2.000e+03 2.000e+03 2.000e+03 2.000e+03 2.000e+03 3.000e+03 2.000e+03 2.000e+03 2.000e+03 2.000e+03 2.000e+03 2.000e+03 2.000e+03 2.000e+03 2.000e+03 2.000e+03 2.000e+03 2.000e+03 2.000e+03 2.000e+03 2.000e+03 2.000e+03 2.000e+03 2.000e+03 2.000e+03 2.000e+03
           </DataArray>
           <DataArray type="Float32" Name="rootHairDiameter" NumberOfComponents="1" format="ascii">
 5.000e-04 5.000e-04 5.000e-04 5.000e-04 5.000e-04 5.000e-04 5.000e-04 5.000e-04 5.000e-04 5.000e-04 5.000e-04 5.000e-04 5.000e-04 5.000e-04 5.000e-04 5.000e-04 5.000e-04 5.000e-04 5.000e-04 5.000e-04 5.000e-04 5.000e-04 5.000e-04 5.000e-04 5.000e-04 5.000e-04 5.000e-04 5.000e-04 5.000e-04 5.000e-04 5.000e-04 5.000e-04 5.000e-04 5.000e-04 5.000e-04 5.000e-04 5.000e-04 5.000e-04 5.000e-04 5.000e-04 5.000e-04 5.000e-04 5.000e-04 5.000e-04 5.000e-04 5.000e-04 5.000e-04 5.000e-04 5.000e-04 5.000e-04 5.000e-04 5.000e-04 5.000e-04 5.000e-04 5.000e-04 5.000e-04 5.000e-04 5.000e-04 5.000e-04 5.000e-04 5.000e-04 5.000e-04 5.000e-04 5.000e-04 5.000e-04 5.000e-04 5.000e-04 5.000e-04 5.000e-04 5.000e-04 5.000e-04 5.000e-04 5.000e-04 5.000e-04 5.000e-04 5.000e-04 5.000e-04 5.000e-04 5.000e-04 5.000e-04 5.000e-04 5.000e-04 5.000e-04 5.000e-04 5.000e-04 5.000e-04 5.000e-04 5.000e-04 5.000e-04 5.000e-04 5.000e-04 5.000e-04 5.000e-04 5.000e-04 5.000e-04 5.000e-04 5.000e-04 5.000e-04
           </DataArray>
           <DataArray type="Float32" Name="rootHairLength" NumberOfComponents="1" format="ascii">
 2.499e-02 0.000e+00 0.000e+00 2.499e-02 0.000e+00 0.000e+00 2.499e-02 0.000e+00 0.000e+00 2.499e-02 0.000e+00 0.000e+00 3.000e-02 3.000e-02 3.000e-02 3.000e-02 3.000e-02 3.000e-02 3.000e-02 3.000e-02 3.000e-02 3.000e-02 2.145e-02 0.000e+00 2.017e-02 0.000e+00 8.719e-03 0.000e+00 7.446e-03 0.000e+00 6.173e-03 0.000e+00 4.900e-03 3.627e-03 0.000e+00 2.355e-03 1.082e-03 0.000e+00 0.000e+00 0.000e+00 1.890e-02 0.000e+00 0.000e+00 0.000e+00 0.000e+00 0.000e+00 0.000e+00 0.000e+00 0.000e+00 0.000e+00 0.000e+00 0.000e+00 1.763e-02 0.000e+00 0.000e+00 0.000e+00 0.000e+00 0.000e+00 0.000e+00 0.000e+00 0.000e+00 0.000e+00 0.000e+00 0.000e+00 1.636e-02 0.000e+00 0.000e+00 1.508e-02 0.000e+00 1.381e-02 0.000e+00 1.254e-02 0.000e+00 1.126e-02 0.000e+00 9.992e-03 0.000e+00 0.000e+00 3.000e-02 3.000e-02 3.000e-02 3.000e-02 3.000e-02 3.000e-02 3.000e-02 3.000e-02 3.000e-02 3.000e-02 3.000e-02 3.000e-02 3.000e-02 3.000e-02 2.400e-02 1.500e-02 6.000e-03 0.000e+00 0.000e+00 0.000e+00
           </DataArray>
           <DataArray type="Float32" Name="rootHairSurfaceArea" NumberOfComponents="1" format="ascii">
 7.851e-02 0.000e+00 0.000e+00 7.851e-02 0.000e+00 0.000e+00 7.851e-02 0.000e+00 0.000e+00 7.851e-02 0.000e+00 0.000e+00 0.000e+00 0.000e+00 0.000e+00 0.000e+00 0.000e+00 0.000e+00 0.000e+00 0.000e+00 0.000e+00 0.000e+00 6.738e-02 0.000e+00 6.338e-02 0.000e+00 2.739e-02 0.000e+00 2.339e-02 0.000e+00 1.939e-02 0.000e+00 1.539e-02 1.140e-02 0.000e+00 7.397e-03 3.399e-03 0.000e+00 0.000e+00 0.000e+00 5.938e-02 0.000e+00 0.000e+00 0.000e+00 0.000e+00 0.000e+00 0.000e+00 0.000e+00 0.000e+00 0.000e+00 0.000e+00 0.000e+00 5.538e-02 0.000e+00 0.000e+00 0.000e+00 0.000e+00 0.000e+00 0.000e+00 0.000e+00 0.000e+00 0.000e+00 0.000e+00 0.000e+00 5.138e-02 0.000e+00 0.000e+00 4.738e-02 0.000e+00 4.339e-02 0.000e+00 3.939e-02 0.000e+00 3.539e-02 0.000e+00 3.139e-02 0.000e+00 0.000e+00 9.425e-02 9.425e-02 9.425e-02 9.425e-02 9.425e-02 9.425e-02 9.425e-02 9.425e-02 9.425e-02 9.425e-02 9.425e-02 9.425e-02 9.425e-02 9.425e-02 7.540e-02 4.712e-02 1.885e-02 0.000e+00 0.000e+00 0.000e+00
           </DataArray>
           <DataArray type="Float32" Name="rootLength2Base" NumberOfComponents="1" format="ascii">