<?xml version="1.0"?>
<VTKFile type="UnstructuredGrid" version="0.1" byte_order="LittleEndian">
   <UnstructuredGrid>
      <Piece NumberOfPoints="22720" NumberOfCells="1611">
         <Points>
            <DataArray type="Float32" Name="Position" NumberOfComponents="3" format="ascii">
0.138	-5.019	0.063
0.142	-5.018	0.071
0.141	-5.018	0.080
0.134	-5.018	0.087
0.125	-5.019	0.089
0.117	-5.019	0.084
0.113	-5.020	0.076
0.114	-5.021	0.067
0.121	-5.021	0.060
0.130	-5.020	0.059
0.202	-5.871	0.125
0.206	-5.870	0.133
0.205	-5.869	0.142
0.199	-5.870	0.149
0.190	-5.872	0.151
0.182	-5.874	0.147
0.178	-5.875	0.139
0.179	-5.876	0.130
0.185	-5.875	0.123
0.194	-5.873	0.121
0.484	-6.719	0.181
0.489	-6.718	0.189
0.488	-6.717	0.198
0.482	-6.719	0.205
0.474	-6.721	0.208
0.466	-6.724	0.204
0.461	-6.725	0.196
0.462	-6.726	0.187
0.467	-6.724	0.180
0.476	-6.722	0.178
0.511	-6.828	0.183
0.516	-6.827	0.191
0.515	-6.827	0.200
0.510	-6.828	0.207
0.501	-6.831	0.209
0.493	-6.833	0.206
0.488	-6.834	0.198
0.488	-6.834	0.189
0.494	-6.833	0.182
0.503	-6.830	0.179
0.260	-5.055	0.132
0.258	-5.048	0.137
0.254	-5.046	0.146
0.250	-5.049	0.153
0.247	-5.057	0.157
0.247	-5.066	0.156
0.249	-5.073	0.151
0.253	-5.075	0.143
0.257	-5.072	0.135
0.260	-5.064	0.131
0.961	-5.105	0.485
0.958	-5.098	0.490
0.955	-5.096	0.499
0.951	-5.099	0.506
0.948	-5.107	0.510
0.948	-5.116	0.509
0.950	-5.123	0.504
0.954	-5.126	0.495
0.958	-5.122	0.488
0.960	-5.114	0.484
1.794	-5.187	0.875
1.792	-5.180	0.880
1.788	-5.177	0.888
1.784	-5.180	0.896
1.780	-5.188	0.900
1.779	-5.197	0.899
1.781	-5.204	0.894
1.785	-5.207	0.886
1.789	-5.204	0.878
1.793	-5.197	0.874
2.183	-5.294	1.124
2.188	-5.285	1.124
2.186	-5.276	1.124
2.180	-5.270	1.124
2.170	-5.268	1.124
2.162	-5.272	1.124
2.158	-5.281	1.124
2.159	-5.290	1.124
2.166	-5.296	1.124
2.175	-5.298	1.124
1.335	-5.666	0.701
1.339	-5.657	0.702
1.338	-5.648	0.703
1.331	-5.642	0.704
1.322	-5.641	0.703
1.314	-5.645	0.702
1.310	-5.653	0.700
1.311	-5.662	0.699
1.318	-5.669	0.699
1.327	-5.670	0.700
1.255	-5.776	1.529
1.259	-5.768	1.530
1.257	-5.759	1.531
1.251	-5.752	1.532
1.242	-5.751	1.531
1.233	-5.755	1.530
1.229	-5.764	1.529
1.231	-5.773	1.528
1.238	-5.779	1.527
1.247	-5.780	1.528
1.230	-5.861	2.278
1.234	-5.852	2.279
1.232	-5.843	2.280
1.225	-5.837	2.280
1.216	-5.836	2.280
1.208	-5.840	2.279
1.204	-5.848	2.278
1.206	-5.858	2.277
1.213	-5.864	2.277
1.222	-5.865	2.277
1.430	-5.725	0.753
1.437	-5.722	0.758
1.444	-5.725	0.763
1.448	-5.733	0.767
1.448	-5.742	0.767
1.443	-5.749	0.764
1.436	-5.752	0.759
1.429	-5.749	0.753
1.425	-5.741	0.750
1.425	-5.732	0.749
1.968	-5.765	0.055
1.975	-5.762	0.061
1.981	-5.765	0.067
1.985	-5.772	0.070
1.985	-5.782	0.071
1.980	-5.789	0.067
1.974	-5.792	0.061
1.967	-5.789	0.055
1.964	-5.781	0.052
1.964	-5.772	0.051
2.549	-5.804	-0.500
2.555	-5.801	-0.494
2.561	-5.804	-0.487
2.564	-5.812	-0.482
2.563	-5.821	-0.482
2.558	-5.828	-0.485
2.552	-5.831	-0.492
2.547	-5.828	-0.499
2.544	-5.820	-0.503
2.544	-5.811	-0.504
2.766	-5.861	-0.673
2.770	-5.861	-0.665
2.769	-5.861	-0.656
2.762	-5.861	-0.649
2.753	-5.861	-0.648
2.745	-5.861	-0.652
2.740	-5.861	-0.660
2.742	-5.861	-0.669
2.748	-5.861	-0.676
2.758	-5.861	-0.677
1.558	-5.831	0.816
1.562	-5.823	0.818
1.561	-5.814	0.819
1.555	-5.807	0.818
1.547	-5.805	0.816
1.538	-5.809	0.813
1.534	-5.816	0.811
1.535	-5.826	0.811
1.541	-5.833	0.812
1.550	-5.835	0.814
1.340	-5.905	1.668
1.344	-5.897	1.669
1.343	-5.887	1.670
1.337	-5.881	1.669
1.328	-5.879	1.668
1.320	-5.883	1.666
1.315	-5.891	1.665
1.317	-5.900	1.664
1.323	-5.907	1.665
1.332	-5.909	1.666
1.285	-5.972	2.406
1.288	-5.964	2.407
1.286	-5.955	2.409
1.279	-5.949	2.410
1.270	-5.948	2.410
1.262	-5.953	2.409
1.258	-5.961	2.408
1.260	-5.970	2.407
1.267	-5.976	2.406
1.277	-5.977	2.406
1.326	-6.046	2.933
1.334	-6.046	2.937
1.343	-6.046	2.935
1.350	-6.046	2.929
1.351	-6.046	2.920
1.347	-6.046	2.911
1.339	-6.046	2.907
1.330	-6.046	2.909
1.323	-6.046	2.915
1.322	-6.046	2.924
1.672	-5.906	0.863
1.673	-5.909	0.872
1.670	-5.910	0.880
1.662	-5.907	0.885
1.654	-5.903	0.885
1.648	-5.899	0.880
1.646	-5.896	0.871
1.650	-5.896	0.863
1.657	-5.898	0.857
1.665	-5.902	0.857
1.318	-6.658	0.672
1.319	-6.661	0.681
1.314	-6.660	0.689
1.307	-6.657	0.694
1.299	-6.652	0.693
1.294	-6.647	0.687
1.293	-6.644	0.678
1.298	-6.645	0.670
1.305	-6.648	0.665
1.313	-6.653	0.666
0.892	-7.232	0.453
0.892	-7.235	0.462
0.887	-7.234	0.470
0.879	-7.230	0.474
0.872	-7.224	0.472
0.868	-7.219	0.465
0.868	-7.217	0.456
0.873	-7.218	0.448
0.881	-7.222	0.445
0.888	-7.227	0.447
0.625	-7.672	0.351
0.625	-7.674	0.360
0.621	-7.673	0.368
0.613	-7.670	0.372
0.605	-7.665	0.370
0.601	-7.660	0.363
0.601	-7.658	0.354
0.605	-7.659	0.346
0.613	-7.663	0.343
0.620	-7.668	0.344
1.762	-5.978	0.920
1.769	-5.975	0.926
1.776	-5.978	0.932
1.780	-5.985	0.935
1.779	-5.995	0.936
1.775	-6.002	0.932
1.768	-6.005	0.927
1.761	-6.002	0.921
1.758	-5.994	0.917
1.758	-5.985	0.917
2.268	-6.013	0.322
2.274	-6.011	0.328
2.280	-6.014	0.334
2.284	-6.021	0.338
2.283	-6.030	0.339
2.279	-6.038	0.335
2.273	-6.041	0.329
2.267	-6.038	0.322
2.263	-6.030	0.318
2.264	-6.021	0.318
2.906	-6.034	-0.220
2.913	-6.031	-0.214
2.919	-6.034	-0.208
2.922	-6.041	-0.204
2.922	-6.051	-0.204
2.918	-6.058	-0.208
2.912	-6.061	-0.214
2.906	-6.058	-0.220
2.902	-6.050	-0.224
2.902	-6.041	-0.224
2.946	-6.034	-0.265
2.952	-6.031	-0.259
2.959	-6.034	-0.253
2.963	-6.042	-0.250
2.963	-6.051	-0.250
2.958	-6.058	-0.253
2.952	-6.061	-0.259
2.945	-6.058	-0.265
2.941	-6.051	-0.269
2.941	-6.041	-0.269
1.883	-6.074	0.967
1.881	-6.067	0.973
1.877	-6.065	0.981
1.873	-6.069	0.988
1.870	-6.076	0.992
1.869	-6.086	0.991
1.871	-6.093	0.986
1.875	-6.095	0.978
1.879	-6.091	0.970
1.882	-6.084	0.966
2.672	-6.164	1.355
2.670	-6.157	1.361
2.666	-6.154	1.369
2.662	-6.157	1.376
2.658	-6.164	1.380
2.657	-6.173	1.380
2.659	-6.181	1.374
2.662	-6.183	1.366
2.667	-6.181	1.359
2.671	-6.173	1.354
3.310	-6.319	1.732
3.308	-6.311	1.737
3.304	-6.308	1.745
3.299	-6.310	1.752
3.295	-6.317	1.756
3.293	-6.326	1.756
3.294	-6.334	1.751
3.299	-6.337	1.743
3.304	-6.335	1.736
3.308	-6.328	1.732
3.665	-6.383	1.991
3.673	-6.379	1.991
3.682	-6.380	1.991
3.689	-6.387	1.991
3.690	-6.396	1.991
3.686	-6.404	1.991
3.678	-6.409	1.991
3.669	-6.407	1.991
3.662	-6.401	1.991
3.661	-6.391	1.991
1.991	-6.188	1.025
1.995	-6.180	1.027
1.993	-6.171	1.029
1.986	-6.164	1.029
1.977	-6.163	1.029
1.969	-6.168	1.027
1.965	-6.176	1.025
1.967	-6.185	1.023
1.974	-6.191	1.023
1.983	-6.192	1.024
1.903	-6.362	1.893
1.907	-6.354	1.894
1.904	-6.345	1.896
1.897	-6.339	1.897
1.888	-6.339	1.898
1.880	-6.344	1.898
1.877	-6.352	1.897
1.879	-6.361	1.896
1.886	-6.367	1.894
1.895	-6.367	1.893
2.036	-6.404	2.392
2.041	-6.396	2.392
2.039	-6.387	2.392
2.033	-6.380	2.392
2.023	-6.379	2.392
2.015	-6.383	2.392
2.011	-6.391	2.392
2.012	-6.400	2.392
2.019	-6.407	2.392
2.028	-6.408	2.392
2.090	-6.280	1.064
2.093	-6.284	1.072
2.091	-6.287	1.080
2.084	-6.286	1.087
2.075	-6.283	1.088
2.068	-6.279	1.085
2.065	-6.274	1.077
2.067	-6.272	1.069
2.074	-6.272	1.062
2.083	-6.275	1.060
1.764	-7.032	0.758
1.764	-7.036	0.766
1.760	-7.037	0.775
1.753	-7.035	0.780
1.745	-7.030	0.780
1.740	-7.025	0.774
1.739	-7.021	0.766
1.743	-7.019	0.758
1.750	-7.022	0.753
1.758	-7.027	0.753
1.500	-7.356	0.613
1.498	-7.358	0.622
1.492	-7.356	0.629
1.484	-7.351	0.631
1.478	-7.345	0.628
1.476	-7.340	0.621
1.478	-7.337	0.612
1.484	-7.339	0.605
1.492	-7.344	0.603
1.498	-7.350	0.606
2.168	-6.372	1.117
2.176	-6.369	1.122
2.183	-6.372	1.128
2.186	-6.380	1.132
2.185	-6.389	1.133
2.180	-6.396	1.130
2.172	-6.399	1.126
2.165	-6.396	1.120
2.162	-6.388	1.116
2.163	-6.379	1.115
2.639	-6.508	0.444
2.646	-6.505	0.449
2.653	-6.508	0.455
2.657	-6.516	0.459
2.656	-6.525	0.459
2.651	-6.532	0.456
2.644	-6.535	0.451
2.637	-6.532	0.446
2.634	-6.524	0.442
2.634	-6.515	0.441
3.155	-6.546	-0.147
3.163	-6.546	-0.143
3.172	-6.546	-0.145
3.179	-6.546	-0.151
3.180	-6.546	-0.160
3.176	-6.546	-0.168
3.168	-6.546	-0.173
3.159	-6.546	-0.171
3.152	-6.546	-0.165
3.151	-6.546	-0.156
2.279	-6.500	1.175
2.283	-6.493	1.178
2.282	-6.483	1.179
2.276	-6.476	1.178
2.268	-6.474	1.175
2.260	-6.477	1.171
2.256	-6.485	1.169
2.257	-6.494	1.168
2.262	-6.501	1.169
2.271	-6.504	1.172
1.992	-6.612	1.893
1.996	-6.604	1.896
1.995	-6.595	1.897
1.989	-6.588	1.896
1.981	-6.585	1.892
1.973	-6.588	1.889
1.969	-6.596	1.886
1.970	-6.605	1.885
1.975	-6.613	1.887
1.984	-6.615	1.890
1.691	-6.687	2.599
1.696	-6.679	2.601
1.695	-6.670	2.602
1.690	-6.663	2.600
1.681	-6.660	2.597
1.673	-6.663	2.593
1.669	-6.671	2.591
1.670	-6.680	2.590
1.675	-6.688	2.592
1.684	-6.690	2.595
0.389	-5.117	0.214
0.393	-5.109	0.216
0.392	-5.100	0.216
0.386	-5.093	0.216
0.377	-5.091	0.214
0.369	-5.095	0.212
0.364	-5.103	0.210
0.366	-5.112	0.209
0.372	-5.119	0.210
0.381	-5.121	0.212
0.198	-5.219	1.094
0.203	-5.212	1.096
0.202	-5.202	1.096
0.196	-5.195	1.095
0.187	-5.193	1.093
0.179	-5.197	1.090
0.175	-5.205	1.089
0.176	-5.214	1.088
0.182	-5.221	1.089
0.190	-5.223	1.092
-0.072	-5.250	1.864
-0.067	-5.242	1.866
-0.068	-5.233	1.866
-0.074	-5.226	1.865
-0.082	-5.224	1.862
-0.090	-5.227	1.859
-0.095	-5.235	1.857
-0.094	-5.244	1.856
-0.089	-5.251	1.858
-0.080	-5.254	1.861
-0.148	-5.253	2.036
-0.140	-5.253	2.041
-0.131	-5.253	2.039
-0.124	-5.253	2.033
-0.123	-5.253	2.023
-0.127	-5.253	2.015
-0.135	-5.253	2.011
-0.144	-5.253	2.012
-0.151	-5.253	2.019
-0.152	-5.253	2.028
2.374	-6.605	1.225
2.378	-6.597	1.227
2.377	-6.588	1.228
2.371	-6.581	1.227
2.363	-6.579	1.224
2.355	-6.582	1.221
2.351	-6.590	1.218
2.352	-6.599	1.218
2.358	-6.606	1.219
2.366	-6.609	1.221
2.102	-6.712	1.979
2.106	-6.705	1.982
2.106	-6.696	1.983
2.100	-6.688	1.981
2.092	-6.686	1.977
2.085	-6.689	1.973
2.080	-6.696	1.970
2.081	-6.706	1.969
2.086	-6.713	1.971
2.094	-6.715	1.975
1.705	-6.744	2.557
1.710	-6.737	2.561
1.709	-6.727	2.561
1.705	-6.720	2.558
1.697	-6.717	2.553
1.690	-6.720	2.548
1.686	-6.727	2.545
1.686	-6.737	2.545
1.691	-6.744	2.547
1.698	-6.747	2.552
2.461	-6.695	1.256
2.459	-6.689	1.263
2.457	-6.688	1.272
2.454	-6.693	1.279
2.453	-6.702	1.282
2.453	-6.711	1.280
2.454	-6.717	1.273
[...]
         <CellData>
           <DataArray type="Float32" Name="combinedRootClassID" NumberOfComponents="1" format="ascii">
 -1.300e+01 -1.300e+01 -1.300e+01 -1.300e+01 -1.300e+01 -1.300e+01 -1.300e+01 -1.300e+01 -1.300e+01 -1.300e+01 -1.300e+01 -1.300e+01 -1.300e+01 -1.300e+01 -1.300e+01 -1.300e+01 -1.300e+01 -1.300e+01 -1.300e+01 -1.300e+01 -1.300e+01 -1.300e+01 -1.300e+01 -1.300e+01 -1.300e+01 -1.300e+01 -1.300e+01 -1.300e+01 -1.300e+01 -1.300e+01 -1.300e+01 -1.300e+01 -1.300e+01 -1.300e+01 -1.300e+01 -1.300e+01 -1.300e+01 -1.300e+01 -1.300e+01 -1.300e+01 -1.300e+01 -1.300e+01 -1.300e+01 -1.300e+01 -1.300e+01 -1.300e+01 -1.300e+01 -1.300e+01 -1.300e+01 -1.300e+01 -1.300e+01 -1.300e+01 -1.300e+01 -1.300e+01 -1.300e+01 -1.300e+01 -1.300e+01 -1.300e+01 -1.300e+01 -1.300e+01 -1.300e+01 -1.300e+01 -1.300e+01 -1.300e+01 -1.300e+01 -1.300e+01 -1.300e+01 -1.300e+01 -1.300e+01 -1.300e+01 -1.300e+01 -1.300e+01 -1.300e+01 -1.300e+01 -1.300e+01 -1.300e+01 -1.300e+01 -1.300e+01 -1.300e+01 -1.300e+01 -1.300e+01 -1.300e+01 -1.300e+01 -1.300e+01 -1.300e+01 -1.300e+01 -1.300e+01 -1.300e+01 -1.300e+01 -1.300e+01 -1.300e+01 -1.300e+01 -1.300e+01 -1.300e+01 -1.300e+01 -1.300e+01 -1.300e+01 -1.300e+01 -1.300e+01 -1.300e+01 -1.300e+01 -1.300e+01 -1.300e+01 -1.300e+01 -1.300e+01 -1.300e+01 -1.300e+01 -1.300e+01 -1.300e+01 -1.300e+01 -1.300e+01 -1.300e+01 -1.300e+01 -1.300e+01 -1.300e+01 -1.300e+01 -1.300e+01 -1.300e+01 -1.300e+01 -1.300e+01 -1.300e+01 -1.300e+01 -1.300e+01 -1.300e+01 -1.300e+01 -1.300e+01 -1.300e+01 -1.300e+01 -1.300e+01 -1.300e+01 -1.300e+01 -1.300e+01 -1.300e+01 -1.300e+01 -1.300e+01 -1.300e+01 -1.300e+01 -1.300e+01 -1.300e+01 -1.300e+01 -1.300e+01 -1.300e+01 -1.300e+01 -1.300e+01 -1.300e+01 -1.300e+01 -1.300e+01 -1.300e+01 -1.300e+01 -1.300e+01 -1.300e+01 -1.300e+01 -1.300e+01 -1.300e+01 -1.300e+01 -1.300e+01 -1.300e+01 -5.000e+00 -5.000e+00 -5.000e+00 -5.000e+00 -5.000e+00 -5.000e+00 -5.000e+00 -5.000e+00 -5.000e+00 -5.000e+00 -5.000e+00 -5.000e+00 -5.000e+00 -5.000e+00 -5.000e+00 -5.000e+00 -5.000e+00 -5.000e+00 -5.000e+00 -5.000e+00 -5.000e+00 -5.000e+00 -5.000e+00 -5.000e+00 -5.000e+00 -5.000e+00 -5.000e+00 -5.000e+00 -1.300e+01 -1.300e+01 -1.300e+01 -1.300e+01 -1.300e+01 -1.300e+01 -1.300e+01 -1.300e+01 -1.300e+01 -1.300e+01 -1.300e+01 -1.300e+01 -1.300e+01 -1.300e+01 -1.300e+01 -1.300e+01 -1.300e+01 -1.300e+01 -1.300e+01 -1.300e+01 -1.300e+01 -1.300e+01 -1.300e+01 -1.300e+01 -1.300e+01 -1.300e+01 -1.300e+01 -1.300e+01 -1.300e+01 -1.300e+01 -1.300e+01 -1.300e+01 -1.300e+01 -1.300e+01 -1.300e+01 -1.300e+01 -1.300e+01 -1.300e+01 -1.300e+01 -1.300e+01 -1.300e+01 -1.300e+01 -1.300e+01 -1.300e+01 -1.300e+01 -1.300e+01 -1.300e+01 -1.300e+01 -1.300e+01 -1.300e+01 -1.300e+01 -1.300e+01 -1.300e+01 -1.300e+01 -1.300e+01 -1.300e+01 -1.300e+01 -1.300e+01 -1.300e+01 -1.300e+01 -1.300e+01 -1.300e+01 -1.300e+01 -1.300e+01 -1.300e+01 -1.300e+01 -1.300e+01 -1.300e+01 -1.300e+01 -1.300e+01 -1.300e+01 -1.300e+01 -1.300e+01 -1.300e+01 -1.300e+01 -1.300e+01 -1.300e+01 -1.300e+01 -1.300e+01 -1.300e+01 -1.300e+01 -1.300e+01 -1.300e+01 -1.300e+01 -1.300e+01 -1.300e+01 -1.300e+01 -1.300e+01 -1.300e+01 -1.300e+01 -1.300e+01 -1.300e+01 -1.300e+01 -1.300e+01 -1.300e+01 -1.300e+01 -1.300e+01 -1.300e+01 -1.300e+01 -1.300e+01 -1.300e+01 -1.300e+01 -1.300e+01 -1.300e+01 -1.300e+01 -1.300e+01 -1.300e+01 -1.300e+01 -1.300e+01 -1.300e+01 -1.300e+01 -1.300e+01 -1.300e+01 -1.300e+01 -1.300e+01 -1.300e+01 -1.300e+01 -1.300e+01 -1.300e+01 -1.300e+01 -1.300e+01 -1.300e+01 -1.300e+01 -1.300e+01 -1.300e+01 -1.300e+01 -1.300e+01 -1.300e+01 -1.300e+01 -1.300e+01 -1.300e+01 -1.300e+01 -1.300e+01 -1.300e+01 -1.300e+01 -1.300e+01 -1.300e+01 -1.300e+01 -1.300e+01 -1.300e+01 -1.300e+01 -1.300e+01 -1.300e+01 -1.300e+01 -1.300e+01 -1.300e+01 -1.300e+01 -1.300e+01 -1.300e+01 -1.300e+01 -1.300e+01 -1.300e+01 -1.300e+01 -1.300e+01 -1.300e+01 -5.000e+00 -5.000e+00 -5.000e+00 -5.000e+00 -5.000e+00 -5.000e+00 -5.000e+00 -5.000e+00 -5.000e+00 -5.000e+00 -5.000e+00 -5.000e+00 -5.000e+00 -5.000e+00 -5.000e+00 -5.000e+00 -5.000e+00 -5.000e+00 -5.000e+00 -5.000e+00 -5.000e+00 -5.000e+00 -5.000e+00 -5.000e+00 -5.000e+00 -5.000e+00 -5.000e+00 -5.000e+00 -1.300e+01 -1.300e+01 -1.300e+01 -1.300e+01 -1.300e+01 -1.300e+01 -1.300e+01 -1.300e+01 -1.300e+01 -1.300e+01 -1.300e+01 -1.300e+01 -1.300e+01 -1.300e+01 -1.300e+01 -1.300e+01 -1.300e+01 -1.300e+01 -1.300e+01 -1.300e+01 -1.300e+01 -1.300e+01 -1.300e+01 -1.300e+01 -1.300e+01 -1.300e+01 -1.300e+01 -1.300e+01 -1.300e+01 -1.300e+01 -1.300e+01 -1.300e+01 -1.300e+01 -1.300e+01 -1.300e+01 -1.300e+01 -1.300e+01 -1.300e+01 -1.300e+01 -1.300e+01 -1.300e+01 -1.300e+01 -1.300e+01 -1.300e+01 -1.300e+01 -1.300e+01 -1.300e+01 -1.300e+01 -1.300e+01 -1.300e+01 -1.300e+01 -1.300e+01 -1.300e+01 -1.300e+01 -1.300e+01 -1.300e+01 -1.300e+01 -1.300e+01 -1.300e+01 -1.300e+01 -1.300e+01 -1.300e+01 -1.300e+01 -1.300e+01 -1.300e+01 -1.300e+01 -1.300e+01 -1.300e+01 -1.300e+01 -1.300e+01 -1.300e+01 -1.300e+01 -1.300e+01 -1.300e+01 -1.300e+01 -1.300e+01 -1.300e+01 -1.300e+01 -1.300e+01 -1.300e+01 -1.300e+01 -1.300e+01 -1.300e+01 -1.300e+01 -1.300e+01 -1.300e+01 -1.300e+01 -1.300e+01 -1.300e+01 -1.300e+01 -1.300e+01 -1.300e+01 -1.300e+01 -1.300e+01 -1.300e+01 -1.300e+01 -1.300e+01 -1.300e+01 -1.300e+01 -1.300e+01 -1.300e+01 -1.300e+01 -1.300e+01 -1.300e+01 -1.300e+01 -1.300e+01 -1.300e+01 -1.300e+01 -1.300e+01 -1.300e+01 -1.300e+01 -1.300e+01 -1.300e+01 -1.300e+01 -1.300e+01 -1.300e+01 -1.300e+01 -1.300e+01 -1.300e+01 -1.300e+01 -1.300e+01 -1.300e+01 -1.300e+01 -1.300e+01 -1.300e+01 -1.300e+01 -1.300e+01 -1.300e+01 -1.300e+01 -1.300e+01 -1.300e+01 -1.300e+01 -1.300e+01 -1.300e+01 -1.300e+01 -1.300e+01 -1.300e+01 -1.300e+01 -1.300e+01 -1.300e+01 -1.300e+01 -1.300e+01 -1.300e+01 -1.300e+01 -1.300e+01 -1.300e+01 -1.300e+01 -1.300e+01 -1.300e+01 -1.300e+01 -1.300e+01 -1.300e+01 -1.300e+01 -5.000e+00 -5.000e+00 -5.000e+00 -5.000e+00 -5.000e+00 -5.000e+00 -5.000e+00 -5.000e+00 -5.000e+00 -5.000e+00 -5.000e+00 -5.000e+00 -5.000e+00 -5.000e+00 -5.000e+00 -5.000e+00 -5.000e+00 -5.000e+00 -5.000e+00 -5.000e+00 -5.000e+00 -5.000e+00 -5.000e+00 -5.000e+00 -5.000e+00 -5.000e+00 -5.000e+00 -5.000e+00 -1.300e+01 -1.300e+01 -1.300e+01 -1.300e+01 -1.300e+01 -1.300e+01 -1.300e+01 -1.300e+01 -1.300e+01 -1.300e+01 -1.300e+01 -1.300e+01 -1.300e+01 -1.300e+01 -1.300e+01 -1.300e+01 -1.300e+01 -1.300e+01 -1.300e+01 -1.300e+01 -1.300e+01 -1.300e+01 -1.300e+01 -1.300e+01 -1.300e+01 -1.300e+01 -1.300e+01 -1.300e+01 -1.300e+01 -1.300e+01 -1.300e+01 -1.300e+01 -1.300e+01 -1.300e+01 -1.300e+01 -1.300e+01 -1.300e+01 -1.300e+01 -1.300e+01 -1.300e+01 -1.300e+01 -1.300e+01 -1.300e+01 -1.300e+01 -1.300e+01 -1.300e+01 -1.300e+01 -1.300e+01 -1.300e+01 -1.300e+01 -1.300e+01 -1.300e+01 -1.300e+01 -1.300e+01 -1.300e+01 -1.300e+01 -1.300e+01 -1.300e+01 -1.300e+01 -1.300e+01 -1.300e+01 -1.300e+01 -1.300e+01 -1.300e+01 -1.300e+01 -1.300e+01 -1.300e+01 -1.300e+01 -1.300e+01 -1.300e+01 -1.300e+01 -1.300e+01 -1.300e+01 -1.300e+01 -1.300e+01 -1.300e+01 -1.300e+01 -1.300e+01 -1.300e+01 -1.300e+01 -1.300e+01 -1.300e+01 -1.300e+01 -1.300e+01 -1.300e+01 -1.300e+01 -1.300e+01 -1.300e+01 -1.300e+01 -1.300e+01 -1.300e+01 -1.300e+01 -1.300e+01 -1.300e+01 -1.300e+01 -1.300e+01 -1.300e+01 -1.300e+01 -1.300e+01 -1.300e+01 -1.300e+01 -1.300e+01 -1.300e+01 -1.300e+01 -1.300e+01 -1.300e+01 -1.300e+01 -1.300e+01 -1.300e+01 -1.300e+01 -1.300e+01 -1.300e+01 -1.300e+01 -1.300e+01 -1.300e+01 -1.300e+01 -1.300e+01 -1.300e+01 -1.300e+01 -1.300e+01 -1.300e+01 -1.300e+01 -1.300e+01 -1.300e+01 -1.300e+01 -1.300e+01 -1.300e+01 -1.300e+01 -1.300e+01 -1.300e+01 -1.300e+01 -1.300e+01 -1.300e+01 -1.300e+01 -1.300e+01 -1.300e+01 -1.300e+01 -1.300e+01 -1.300e+01 -1.300e+01 -1.300e+01 -1.300e+01 -1.300e+01 -1.300e+01 -1.300e+01 -1.300e+01 -1.300e+01 -1.300e+01 -1.300e+01 -1.300e+01 -1.300e+01 -1.300e+01 -1.300e+01 -1.300e+01 -5.000e+00 -5.000e+00 -5.000e+00 -5.000e+00 -5.000e+00 -5.000e+00 -5.000e+00 -5.000e+00 -5.000e+00 -5.000e+00 -5.000e+00 -5.000e+00 -5.000e+00 -5.000e+00 -5.000e+00 -5.000e+00 -5.000e+00 -5.000e+00 -5.000e+00 -5.000e+00 -5.000e+00 -5.000e+00 -5.000e+00 -5.000e+00 -5.000e+00 -5.000e+00 -5.000e+00 -5.000e+00 -1.900e+01 -1.900e+01 -1.900e+01 -1.900e+01 -1.900e+01 -1.900e+01 -1.900e+01 -1.900e+01 -1.900e+01 -1.900e+01 -1.900e+01 -1.900e+01 -1.900e+01 -1.900e+01 -1.900e+01 -1.900e+01 -1.900e+01 -1.900e+01 -1.900e+01 -1.900e+01 -1.100e+01 -1.100e+01 -1.100e+01 -1.100e+01 -1.100e+01 -1.100e+01 -1.100e+01 -1.100e+01 -1.100e+01 -1.100e+01 -1.100e+01 -1.100e+01 -1.100e+01 -1.100e+01 -1.100e+01 -1.100e+01 -1.100e+01 -1.100e+01 -1.900e+01 -1.900e+01 -1.900e+01 -1.900e+01 -1.900e+01 -1.900e+01 -1.900e+01 -1.900e+01 -1.900e+01 -1.900e+01 -1.900e+01 -1.900e+01 -1.900e+01 -1.900e+01 -1.900e+01 -1.900e+01 -1.900e+01 -1.900e+01 -1.900e+01 -1.900e+01 -1.100e+01 -1.100e+01 -1.100e+01 -1.100e+01 -1.100e+01 -1.100e+01 -1.100e+01 -1.100e+01 -1.100e+01 -1.100e+01 -1.100e+01 -1.100e+01 -1.100e+01 -1.100e+01 -1.100e+01 -1.100e+01 -1.100e+01 -1.100e+01 -1.900e+01 -1.900e+01 -1.900e+01 -1.900e+01 -1.900e+01 -1.900e+01 -1.900e+01 -1.900e+01 -1.900e+01 -1.900e+01 -1.900e+01 -1.900e+01 -1.900e+01 -1.900e+01 -1.900e+01 -1.900e+01 -1.900e+01 -1.900e+01 -1.900e+01 -1.900e+01 -1.100e+01 -1.100e+01 -1.100e+01 -1.100e+01 -1.100e+01 -1.100e+01 -1.100e+01 -1.100e+01 -1.100e+01 -1.100e+01 -1.100e+01 -1.100e+01 -1.100e+01 -1.100e+01 -1.100e+01 -1.100e+01 -1.100e+01 -1.100e+01 -1.900e+01 -1.900e+01 -1.900e+01 -1.900e+01 -1.900e+01 -1.900e+01 -1.900e+01 -1.900e+01 -1.900e+01 -1.900e+01 -1.900e+01 -1.900e+01 -1.900e+01 -1.900e+01 -1.900e+01 -1.900e+01 -1.900e+01 -1.900e+01 -1.900e+01 -1.900e+01 -1.100e+01 -1.100e+01 -1.100e+01 -1.100e+01 -1.100e+01 -1.100e+01 -1.100e+01 -1.100e+01 -1.100e+01 -1.100e+01 -1.100e+01 -1.100e+01 -1.100e+01 -1.100e+01 -1.100e+01 -1.100e+01 -1.100e+01 -1.100e+01 -2.000e+01 -2.000e+01 -2.000e+01 -2.000e+01 -2.000e+01 -2.000e+01 -2.000e+01 -2.000e+01 -2.000e+01 -2.000e+01 -2.000e+01 -2.000e+01 -2.000e+01 -2.000e+01 -2.000e+01 -2.000e+01 -2.000e+01 -2.000e+01 -2.000e+01 -2.000e+00 -2.000e+00 -2.000e+00 -2.000e+00 -2.000e+00 -2.000e+00 -2.000e+00 -2.000e+00 -2.000e+00 -2.000e+00 -2.000e+00 -2.000e+00 -1.700e+01 -7.000e+00 -7.000e+00 -7.000e+00 -7.000e+00 -7.000e+00 -7.000e+00 -1.700e+01 -7.000e+00 -7.000e+00 -7.000e+00 -7.000e+00 -7.000e+00 -7.000e+00 -1.700e+01 -1.700e+01 -7.000e+00 -7.000e+00 -7.000e+00 -7.000e+00 -7.000e+00 -7.000e+00 -7.000e+00 -7.000e+00 -7.000e+00 -7.000e+00 -7.000e+00 -7.000e+00 -7.000e+00 -7.000e+00 -7.000e+00 -7.000e+00 -7.000e+00 -7.000e+00 -7.000e+00 -7.000e+00 -7.000e+00 -7.000e+00 -7.000e+00 -7.000e+00 -7.000e+00 -7.000e+00 -7.000e+00 -7.000e+00 -7.000e+00 -7.000e+00 -7.000e+00 -7.000e+00 -7.000e+00 -7.000e+00 -7.000e+00 -7.000e+00 -7.000e+00 -7.000e+00 -7.000e+00 -7.000e+00 -7.000e+00 -7.000e+00 -7.000e+00 -7.000e+00 -7.000e+00 -7.000e+00 -7.000e+00 -7.000e+00 -7.000e+00 -7.000e+00 -7.000e+00 -7.000e+00 -7.000e+00 -7.000e+00 -7.000e+00 -7.000e+00 -7.000e+00 -7.000e+00 -7.000e+00 -1.700e+01 -7.000e+00 -7.000e+00 -7.000e+00 -7.000e+00 -7.000e+00 -7.000e+00 -7.000e+00 -7.000e+00 -7.000e+00 -7.000e+00 -7.000e+00 -7.000e+00 -7.000e+00 -7.000e+00 -7.000e+00 -7.000e+00 -7.000e+00 -7.000e+00 -7.000e+00 -7.000e+00 -7.000e+00 -7.000e+00 -7.000e+00 -7.000e+00 -7.000e+00 -1.700e+01 -7.000e+00 -7.000e+00 -7.000e+00 -7.000e+00 -7.000e+00 -7.000e+00 -7.000e+00 -7.000e+00 -7.000e+00 -7.000e+00 -7.000e+00 -7.000e+00 -7.000e+00 -7.000e+00 -7.000e+00 -7.000e+00 -7.000e+00 -7.000e+00 -7.000e+00 -1.700e+01 -1.700e+01 -7.000e+00 -7.000e+00 -7.000e+00 -7.000e+00 -7.000e+00 -7.000e+00 -7.000e+00 -7.000e+00 -7.000e+00 -7.000e+00 -7.000e+00 -7.000e+00 -7.000e+00 -7.000e+00 -7.000e+00 -7.000e+00 -7.000e+00 -1.700e+01 -7.000e+00 -7.000e+00 -7.000e+00 -7.000e+00 -7.000e+00 -7.000e+00 -7.000e+00 -7.000e+00 -7.000e+00 -7.000e+00 -7.000e+00 -7.000e+00 -7.000e+00 -7.000e+00 -7.000e+00 -7.000e+00 -1.700e+01 -7.000e+00 -7.000e+00 -7.000e+00 -7.000e+00 -7.000e+00 -7.000e+00 -1.700e+01 -7.000e+00 -7.000e+00 -7.000e+00 -7.000e+00 -7.000e+00 -7.000e+00 -1.700e+01 -7.000e+00 -7.000e+00 -7.000e+00 -7.000e+00 -7.000e+00 -7.000e+00 -1.700e+01 -1.700e+01 -7.000e+00 -7.000e+00 -7.000e+00 -7.000e+00 -7.000e+00 -7.000e+00 -7.000e+00 -7.000e+00 -1.700e+01 -1.700e+01 -7.000e+00 -7.000e+00 -7.000e+00 -7.000e+00 -7.000e+00 -7.000e+00 -7.000e+00 -1.700e+01 -7.000e+00 -7.000e+00 -7.000e+00 -7.000e+00 -7.000e+00 -7.000e+00 -7.000e+00 -7.000e+00 -7.000e+00 -7.000e+00 -7.000e+00 -7.000e+00 -1.700e+01 -7.000e+00 -7.000e+00 -7.000e+00 -7.000e+00 -7.000e+00 -7.000e+00 -7.000e+00 -7.000e+00 -7.000e+00 -7.000e+00 -7.000e+00 -7.000e+00 -7.000e+00 -7.000e+00 -7.000e+00 -7.000e+00 -1.700e+01 -7.000e+00 -7.000e+00 -7.000e+00 -7.000e+00 -7.000e+00 -7.000e+00 -7.000e+00 -7.000e+00 -7.000e+00 -7.000e+00 -7.000e+00 -7.000e+00 -7.000e+00 -7.000e+00 -7.000e+00 -7.000e+00 -7.000e+00 -7.000e+00 -7.000e+00 -7.000e+00 -7.000e+00 -7.000e+00 -1.700e+01 -7.000e+00 -7.000e+00 -7.000e+00 -7.000e+00 -7.000e+00 -7.000e+00 -1.700e+01 -1.700e+01 -1.700e+01 -7.000e+00 -7.000e+00 -7.000e+00 -7.000e+00 -7.000e+00 -7.000e+00 -7.000e+00 -7.000e+00 -7.000e+00 -7.000e+00 -7.000e+00 -7.000e+00 -7.000e+00 -7.000e+00 -7.000e+00 -7.000e+00 -7.000e+00 -7.000e+00 -7.000e+00 -7.000e+00 -7.000e+00 -7.000e+00 -7.000e+00 -7.000e+00 -7.000e+00 -7.000e+00 -7.000e+00 -7.000e+00 -7.000e+00 -7.000e+00 -7.000e+00 -7.000e+00 -7.000e+00 -7.000e+00 -7.000e+00 -7.000e+00 -7.000e+00 -7.000e+00 -7.000e+00 -7.000e+00 -7.000e+00 -7.000e+00 -7.000e+00 -7.000e+00 -7.000e+00 -7.000e+00 -7.000e+00 -7.000e+00 -7.000e+00 -7.000e+00 -7.000e+00 -7.000e+00 -7.000e+00 -7.000e+00 -7.000e+00 -7.000e+00 -7.000e+00 -7.000e+00 -7.000e+00 -7.000e+00 -7.000e+00 -1.700e+01 -1.700e+01 -7.000e+00 -7.000e+00 -7.000e+00 -7.000e+00 -7.000e+00 -7.000e+00 -7.000e+00 -1.700e+01 -7.000e+00 -7.000e+00 -7.000e+00 -7.000e+00 -7.000e+00 -7.000e+00 -7.000e+00 -7.000e+00 -7.000e+00 -7.000e+00 -7.000e+00 -7.000e+00 -7.000e+00 -7.000e+00 -7.000e+00 -7.000e+00 -7.000e+00 -7.000e+00 -7.000e+00 -7.000e+00 -7.000e+00 -7.000e+00 -7.000e+00 -7.000e+00 -7.000e+00 -7.000e+00 -7.000e+00 -7.000e+00 -7.000e+00 -7.000e+00 -7.000e+00 -7.000e+00 -7.000e+00 -7.000e+00 -7.000e+00 -7.000e+00 -7.000e+00 -7.000e+00 -7.000e+00 -7.000e+00 -7.000e+00 -7.000e+00 -7.000e+00 -7.000e+00 -7.000e+00 -7.000e+00 -7.000e+00 -7.000e+00 -7.000e+00 -1.700e+01 -1.700e+01 -7.000e+00 -7.000e+00 -7.000e+00 -7.000e+00 -7.000e+00 -7.000e+00 -7.000e+00 -7.000e+00 -7.000e+00 -7.000e+00 -7.000e+00 -7.000e+00 -7.000e+00 -7.000e+00 -7.000e+00 -7.000e+00 -7.000e+00 -7.000e+00 -7.000e+00 -7.000e+00 -7.000e+00 -7.000e+00 -7.000e+00 -7.000e+00 -7.000e+00 -7.000e+00 -7.000e+00 -7.000e+00 -7.000e+00 -7.000e+00 -7.000e+00 -7.000e+00 -7.000e+00 -7.000e+00 -7.000e+00 -7.000e+00 -7.000e+00 -7.000e+00 -7.000e+00 -7.000e+00 -7.000e+00 -7.000e+00 -7.000e+00 -7.000e+00 -7.000e+00 -7.000e+00 -7.000e+00 -7.000e+00 -7.000e+00 -7.000e+00 -7.000e+00 -7.000e+00 -7.000e+00 -1.700e+01 -7.000e+00 -7.000e+00 -7.000e+00 -7.000e+00 -7.000e+00 -7.000e+00 -7.000e+00 -7.000e+00 -7.000e+00 -7.000e+00 -7.000e+00 -7.000e+00 -7.000e+00 -7.000e+00 -7.000e+00 -7.000e+00 -7.000e+00 -7.000e+00 -7.000e+00 -7.000e+00 -7.000e+00 -7.000e+00 -7.000e+00 -7.000e+00 -7.000e+00 -7.000e+00 -7.000e+00 -7.000e+00 -7.000e+00 -7.000e+00 -7.000e+00 -7.000e+00 -7.000e+00 -7.000e+00 -7.000e+00 -7.000e+00 -7.000e+00 -7.000e+00 -7.000e+00 -7.000e+00 -7.000e+00 -7.000e+00 -7.000e+00 -7.000e+00 -7.000e+00 -7.000e+00 -7.000e+00 -7.000e+00 -7.000e+00 -7.000e+00 -7.000e+00 -7.000e+00 -7.000e+00 -7.000e+00 -7.000e+00 -7.000e+00 -7.000e+00 -7.000e+00 -7.000e+00 -7.000e+00 -7.000e+00 -7.000e+00 -7.000e+00 -7.000e+00 -7.000e+00 -7.000e+00 -7.000e+00 -7.000e+00 -7.000e+00 -7.000e+00 -7.000e+00 -7.000e+00 -7.000e+00 -7.000e+00 -7.000e+00 -7.000e+00 -7.000e+00 -7.000e+00 -7.000e+00 -7.000e+00 -7.000e+00 -7.000e+00 -7.000e+00 -7.000e+00 -7.000e+00 -7.000e+00 -7.000e+00 -7.000e+00 -7.000e+00 -7.000e+00 -7.000e+00 -1.700e+01 -1.700e+01 -7.000e+00 -7.000e+00 -7.000e+00 -7.000e+00 -7.000e+00 -7.000e+00 -7.000e+00 -7.000e+00 -7.000e+00 -7.000e+00 -7.000e+00 -7.000e+00 -7.000e+00 -7.000e+00 -7.000e+00 -7.000e+00 -7.000e+00 -7.000e+00 -7.000e+00 -7.000e+00 -7.000e+00 -7.000e+00 -7.000e+00 -7.000e+00 -7.000e+00 -7.000e+00 -7.000e+00 -7.000e+00 -7.000e+00 -7.000e+00 -7.000e+00 -7.000e+00 -7.000e+00 -7.000e+00 -7.000e+00 -7.000e+00 -7.000e+00 -7.000e+00 -1.700e+01 -1.700e+01 -1.700e+01 -7.000e+00 -7.000e+00 -7.000e+00 -7.000e+00 -7.000e+00 -7.000e+00 -7.000e+00 -7.000e+00 -7.000e+00 -7.000e+00 -7.000e+00 -7.000e+00 -7.000e+00 -7.000e+00 -7.000e+00 -7.000e+00 -7.000e+00 -7.000e+00 -7.000e+00 -7.000e+00 -7.000e+00 -7.000e+00 -7.000e+00 -7.000e+00 -7.000e+00 -7.000e+00 -7.000e+00 -7.000e+00 -7.000e+00 -7.000e+00 -7.000e+00 -7.000e+00 -7.000e+00 -7.000e+00 -7.000e+00 -7.000e+00 -7.000e+00 -7.000e+00 -1.500e+01 -1.500e+01 -1.500e+01 -1.500e+01 -1.500e+01 -1.500e+01 -1.500e+01 -1.500e+01 -9.000e+00 -9.000e+00 -9.000e+00 -9.000e+00 -9.000e+00 -9.000e+00 -9.000e+00 -9.000e+00 -9.000e+00 -9.000e+00 -9.000e+00 -1.500e+01 -1.500e+01 -9.000e+00 -9.000e+00 -9.000e+00 -9.000e+00 -9.000e+00 -9.000e+00 -9.000e+00 -9.000e+00 -9.000e+00 -9.000e+00 -9.000e+00 -9.000e+00 -9.000e+00 -9.000e+00 -4.000e+00 -4.000e+00 -4.000e+00 -4.000e+00 -4.000e+00 -4.000e+00 -4.000e+00 -4.000e+00 -4.000e+00 -4.000e+00 -4.000e+00 -4.000e+00 -4.000e+00 -4.000e+00 -4.000e+00 -4.000e+00 -4.000e+00 -4.000e+00 -4.000e+00 -4.000e+00 -4.000e+00 -4.000e+00 -4.000e+00 -4.000e+00 -4.000e+00 -4.000e+00 -4.000e+00 -4.000e+00 -4.000e+00 -4.000e+00 -4.000e+00 -4.000e+00 -4.000e+00 -4.000e+00 -4.000e+00 -4.000e+00 -4.000e+00 -4.000e+00 -4.000e+00 -4.000e+00 -4.000e+00 -4.000e+00 -4.000e+00 -4.000e+00 -4.000e+00 -4.000e+00 -4.000e+00 -4.000e+00 -4.000e+00 -4.000e+00 -4.000e+00 -4.000e+00 -4.000e+00 -4.000e+00
           </DataArray>
           <DataArray type="Float32" Name="nitrate/minimalNutrientConcentration" NumberOfComponents="1" format="ascii">