<?xml version="1.0"?>
<VTKFile type="UnstructuredGrid" version="0.1" byte_order="LittleEndian">
   <UnstructuredGrid>
      <Piece NumberOfPoints="160" NumberOfCells="14">
         <Points>
            <DataArray type="Float32" Name="Position" NumberOfComponents="3" format="ascii">
-0.143	-4.999	0.141
-0.032	-5.002	0.198
0.090	-5.004	0.179
0.179	-5.005	0.092
0.198	-5.004	-0.031
0.143	-5.001	-0.141
0.032	-4.998	-0.198
-0.090	-4.996	-0.179
-0.179	-4.995	-0.092
-0.198	-4.996	0.031
-0.126	-4.250	0.151
-0.016	-4.252	0.208
0.107	-4.253	0.188
0.195	-4.253	0.101
0.214	-4.252	-0.021
0.158	-4.251	-0.132
0.048	-4.249	-0.188
-0.075	-4.248	-0.169
-0.162	-4.248	-0.082
-0.182	-4.248	0.041
-0.124	-3.561	0.154
-0.013	-3.561	0.210
0.109	-3.561	0.191
0.196	-3.561	0.103
0.215	-3.560	-0.019
0.159	-3.560	-0.130
0.048	-3.559	-0.186
-0.074	-3.560	-0.166
-0.161	-3.560	-0.078
-0.180	-3.560	0.044
-0.124	-2.701	0.159
-0.014	-2.702	0.215
0.108	-2.701	0.195
0.195	-2.701	0.107
0.214	-2.700	-0.015
0.158	-2.699	-0.125
0.047	-2.699	-0.181
-0.075	-2.700	-0.161
-0.162	-2.700	-0.073
-0.181	-2.701	0.049
-0.125	-2.101	0.162
-0.015	-2.101	0.218
0.107	-2.101	0.198
0.194	-2.100	0.110
0.213	-2.100	-0.012
0.157	-2.100	-0.122
0.046	-2.100	-0.178
-0.076	-2.100	-0.158
-0.163	-2.101	-0.070
-0.182	-2.101	0.052
-0.128	-1.201	0.164
-0.018	-1.201	0.220
0.104	-1.201	0.200
0.191	-1.201	0.112
0.211	-1.201	-0.010
0.154	-1.200	-0.120
0.044	-1.200	-0.176
-0.078	-1.200	-0.156
-0.165	-1.200	-0.069
-0.185	-1.200	0.053
-0.123	-0.301	0.169
-0.013	-0.301	0.225
0.109	-0.302	0.205
0.196	-0.302	0.118
0.215	-0.301	-0.004
0.159	-0.300	-0.114
0.049	-0.300	-0.170
-0.073	-0.299	-0.151
-0.160	-0.299	-0.064
-0.180	-0.300	0.058
-0.122	-0.001	0.170
-0.012	-0.001	0.226
0.110	-0.002	0.207
0.197	-0.002	0.119
0.216	-0.001	-0.003
0.160	-0.000	-0.113
0.050	0.000	-0.169
-0.072	0.001	-0.150
-0.159	0.001	-0.062
-0.179	0.000	0.060
0.032	-4.999	-0.033
0.045	-4.996	-0.008
0.040	-4.994	0.020
0.021	-4.995	0.040
-0.007	-4.997	0.045
-0.032	-5.001	0.033
-0.045	-5.004	0.008
-0.040	-5.006	-0.020
-0.021	-5.005	-0.040
0.007	-5.003	-0.045
0.105	-5.699	0.024
0.118	-5.695	0.049
0.114	-5.693	0.077
0.095	-5.694	0.097
0.067	-5.698	0.102
0.043	-5.703	0.090
0.029	-5.707	0.066
0.033	-5.709	0.038
0.053	-5.708	0.018
0.080	-5.704	0.013
0.249	-6.384	0.095
0.262	-6.378	0.119
0.259	-6.377	0.147
0.241	-6.380	0.168
0.215	-6.386	0.174
0.190	-6.393	0.163
0.176	-6.398	0.140
0.179	-6.400	0.112
0.197	-6.397	0.091
0.224	-6.391	0.084
0.443	-7.061	0.126
0.457	-7.055	0.150
0.454	-7.054	0.178
0.437	-7.058	0.199
0.411	-7.066	0.206
0.386	-7.073	0.196
0.372	-7.079	0.172
0.374	-7.080	0.144
0.392	-7.076	0.123
0.418	-7.068	0.116
0.644	-7.739	0.169
0.657	-7.734	0.192
0.654	-7.732	0.220
0.636	-7.735	0.241
0.610	-7.742	0.248
0.585	-7.749	0.237
0.572	-7.754	0.213
0.574	-7.755	0.185
0.592	-7.752	0.164
0.619	-7.746	0.158
0.787	-8.431	0.224
0.800	-8.427	0.248
0.797	-8.425	0.275
0.778	-8.427	0.296
0.751	-8.431	0.301
0.726	-8.437	0.290
0.713	-8.441	0.266
0.717	-8.443	0.238
0.735	-8.441	0.218
0.762	-8.437	0.212
0.906	-9.125	0.287
0.919	-9.121	0.311
0.916	-9.119	0.339
0.897	-9.121	0.359
0.870	-9.125	0.364
0.845	-9.130	0.353
0.832	-9.135	0.329
0.836	-9.137	0.301
0.855	-9.135	0.281
0.882	-9.131	0.275
0.988	-9.588	0.329
1.001	-9.583	0.353
0.998	-9.581	0.380
0.979	-9.583	0.401
0.952	-9.587	0.406
0.927	-9.592	0.395
0.914	-9.597	0.370
0.918	-9.599	0.343
0.937	-9.597	0.323
0.964	-9.593	0.317
		    </DataArray>
         </Points>
         <Cells>
            <DataArray type="Int32" Name="connectivity" NumberOfComponents="1" format="ascii">
 0 10 1 11 2 12 3 13 4 14 5 15 6 16 7 17 8 18 9 19 0 10
 10 20 11 21 12 22 13 23 14 24 15 25 16 26 17 27 18 28 19 29 10 20
 20 30 21 31 22 32 23 33 24 34 25 35 26 36 27 37 28 38 29 39 20 30
 30 40 31 41 32 42 33 43 34 44 35 45 36 46 37 47 38 48 39 49 30 40
 40 50 41 51 42 52 43 53 44 54 45 55 46 56 47 57 48 58 49 59 40 50
 50 60 51 61 52 62 53 63 54 64 55 65 56 66 57 67 58 68 59 69 50 60
 60 70 61 71 62 72 63 73 64 74 65 75 66 76 67 77 68 78 69 79 60 70
 80 90 81 91 82 92 83 93 84 94 85 95 86 96 87 97 88 98 89 99 80 90
 90 100 91 101 92 102 93 103 94 104 95 105 96 106 97 107 98 108 99 109 90 100
 100 110 101 111 102 112 103 113 104 114 105 115 106 116 107 117 108 118 109 119 100 110
 110 120 111 121 112 122 113 123 114 124 115 125 116 126 117 127 118 128 119 129 110 120
 120 130 121 131 122 132 123 133 124 134 125 135 126 136 127 137 128 138 129 139 120 130
 130 140 131 141 132 142 133 143 134 144 135 145 136 146 137 147 138 148 139 149 130 140
 140 150 141 151 142 152 143 153 144 154 145 155 146 156 147 157 148 158 149 159 140 150

            </DataArray>
            <DataArray type="Int32" Name="offsets" NumberOfComponents="1" format="ascii">
 22 44 66 88 110 132 154 176 198 220 242 264 286 308
            </DataArray>
            <DataArray type="UInt8"  Name="types" NumberOfComponents="1" format="ascii">
6 6 6 6 6 6 6 6 6 6 6 6 6 6
            </DataArray>
         </Cells>
         <CellData>
           <DataArray type="Float32" Name="combinedRootClassID" NumberOfComponents="1" format="ascii">
 -2.000e+00 -2.000e+00 -2.000e+00 -2.000e+00 -2.000e+00 -2.000e+00 -2.000e+00 -4.000e+00 -4.000e+00 -4.000e+00 -4.000e+00 -4.000e+00 -4.000e+00 -4.000e+00
           </DataArray>
           <DataArray type="Float32" Name="nitrate/minimalNutrientConcentration" NumberOfComponents="1" format="ascii">
 6.000e+02 6.000e+02 6.000e+02 6.000e+02 6.000e+02 6.000e+02 6.000e+02 6.000e+02 6.000e+02 6.000e+02 6.000e+02 6.000e+02 6.000e+02 6.000e+02
           </DataArray>
           <DataArray type="Float32" Name="nitrate/optimalNutrientConcentration" NumberOfComponents="1" format="ascii">
 1.200e+03 1.200e+03 1.200e+03 1.200e+03 1.200e+03 1.200e+03 1.200e+03 1.200e+03 1.200e+03 1.200e+03 1.200e+03 1.200e+03 1.200e+03 1.200e+03
           </DataArray>
           <DataArray type="Float32" Name="nitrate/radiusDepletionZone" NumberOfComponents="1" format="ascii">
 1.491e+00 1.954e+00 3.081e+00 2.006e+00 1.499e+00 1.056e+00 4.822e-01 1.207e+00 7.948e+00 3.161e+00 1.821e+00 1.150e+00 7.482e-01 4.801e-01
           </DataArray>
           <DataArray type="Float32" Name="nitrate/rootSegmentMinimalNutrientContent" NumberOfComponents="1" format="ascii">
 5.362e+00 4.914e+00 6.114e+00 4.260e+00 6.386e+00 6.381e+00 2.126e+00 2.594e-01 2.578e-01 2.565e-01 2.554e-01 2.546e-01 2.541e-01 1.692e-01
           </DataArray>
           <DataArray type="Float32" Name="nitrate/rootSegmentNutrientUptake" NumberOfComponents="1" format="ascii">
 1.181e+00 6.029e-01 9.397e-01 5.838e-01 6.313e-01 3.284e-01 1.861e-02 6.645e-01 4.845e-01 4.553e-01 3.444e-01 2.343e-01 1.226e-01 1.991e-02
           </DataArray>
           <DataArray type="Float32" Name="nitrate/rootSegmentOptimalNutrientContent" NumberOfComponents="1" format="ascii">
 1.072e+01 9.829e+00 1.223e+01 8.520e+00 1.277e+01 1.276e+01 4.253e+00 5.188e-01 5.156e-01 5.130e-01 5.108e-01 5.092e-01 5.081e-01 3.384e-01
           </DataArray>
           <DataArray type="Float32" Name="parentRootClassID" NumberOfComponents="1" format="ascii">
 -3.000e+00 -3.000e+00 -3.000e+00 -3.000e+00 -3.000e+00 -3.000e+00 -3.000e+00 -3.000e+00 -3.000e+00 -3.000e+00 -3.000e+00 -3.000e+00 -3.000e+00 -3.000e+00
           </DataArray>
           <DataArray type="Float32" Name="plantID" NumberOfComponents="1" format="ascii">
 3.000e+00 3.000e+00 3.000e+00 3.000e+00 3.000e+00 3.000e+00 3.000e+00 3.000e+00 3.000e+00 3.000e+00 3.000e+00 3.000e+00 3.000e+00 3.000e+00
           </DataArray>
           <DataArray type="Float32" Name="plantTypeID" NumberOfComponents="1" format="ascii">
 0.000e+00 0.000e+00 0.000e+00 0.000e+00 0.000e+00 0.000e+00 0.000e+00 0.000e+00 0.000e+00 0.000e+00 0.000e+00 0.000e+00 0.000e+00 0.000e+00
           </DataArray>
           <DataArray type="Float32" Name="rootCircumference" NumberOfComponents="1" format="ascii">
 1.262e+00 1.260e+00 1.259e+00 1.258e+00 1.257e+00 1.257e+00 1.257e+00 2.859e-01 2.850e-01 2.843e-01 2.837e-01 2.832e-01 2.829e-01 2.828e-01
           </DataArray>
           <DataArray type="Float32" Name="rootClassID" NumberOfComponents="1" format="ascii">
 -2.000e+00 -2.000e+00 -2.000e+00 -2.000e+00 -2.000e+00 -2.000e+00 -2.000e+00 -4.000e+00 -4.000e+00 -4.000e+00 -4.000e+00 -4.000e+00 -4.000e+00 -4.000e+00
           </DataArray>
           <DataArray type="Float32" Name="rootDiameter" NumberOfComponents="1" format="ascii">
 4.017e-01 4.010e-01 4.006e-01 4.004e-01 4.002e-01 4.001e-01 4.000e-01 9.100e-02 9.072e-02 9.049e-02 9.030e-02 9.016e-02 9.006e-02 9.001e-02
           </DataArray>
           <DataArray type="Float32" Name="rootHairDensity" NumberOfComponents="1" format="ascii">
 0.000e+00 0.000e+00 0.000e+00 0.000e+00 0.000e+00 0.000e+00 0.000e+00 2.000e+03 2.000e+03 2.000e+03 2.000e+03 2.000e+03 2.000e+03 2.000e+03
           </DataArray>
           <DataArray type="Float32" Name="rootHairDiameter" NumberOfComponents="1" format="ascii">
 5.000e-04 5.000e-04 5.000e-04 5.000e-04 5.000e-04 5.000e-04 5.000e-04 5.000e-04 5.000e-04 5.000e-04 5.000e-04 5.000e-04 5.000e-04 5.000e-04
           </DataArray>
           <DataArray type="Float32" Name="rootHairLength" NumberOfComponents="1" format="ascii">
 3.000e-02 1.500e-02 6.000e-03 0.000e+00 0.000e+00 0.000e+00 0.000e+00 3.000e-02 2.100e-02 1.200e-02 3.000e-03 0.000e+00 0.000e+00 0.000e+00
           </DataArray>
           <DataArray type="Float32" Name="rootHairSurfaceArea" NumberOfComponents="1" format="ascii">
 0.000e+00 0.000e+00 0.000e+00 0.000e+00 0.000e+00 0.000e+00 0.000e+00 9.425e-02 6.597e-02 3.770e-02 9.425e-03 0.000e+00 0.000e+00 0.000e+00
           </DataArray>
           <DataArray type="Float32" Name="rootLength2Base" NumberOfComponents="1" format="ascii">
 0.000e+00 7.500e-01 1.440e+00 2.300e+00 2.900e+00 3.800e+00 4.700e+00 0.000e+00 7.071e-01 1.414e+00 2.121e+00 2.828e+00 3.535e+00 4.243e+00
           </DataArray>
           <DataArray type="Float32" Name="rootPotentialSecondaryGrowth" NumberOfComponents="1" format="ascii">
 4.018e-01 4.010e-01 4.006e-01 4.004e-01 4.002e-01 4.001e-01 4.000e-01 9.100e-02 9.072e-02 9.049e-02 9.030e-02 9.016e-02 9.006e-02 9.001e-02
           </DataArray>
           <DataArray type="Float32" Name="rootSegmentAge" NumberOfComponents="1" format="ascii">
 2.000e+00 1.500e+00 1.200e+00 9.000e-01 7.000e-01 4.000e-01 1.000e-01 2.000e+00 1.700e+00 1.400e+00 1.100e+00 8.000e-01 5.000e-01 2.000e-01
           </DataArray>
           <DataArray type="Float32" Name="rootSegmentCarbonCostOfExudates" NumberOfComponents="1" format="ascii">
 0.000e+00 0.000e+00 0.000e+00 0.000e+00 0.000e+00 0.000e+00 0.000e+00 2.203e-05 1.872e-05 1.547e-05 1.193e-05 8.390e-06 4.565e-06 8.886e-07
           </DataArray>
           <DataArray type="Float32" Name="rootSegmentDryWeight" NumberOfComponents="1" format="ascii">
 8.937e-03 8.191e-03 1.019e-02 7.100e-03 1.064e-02 1.063e-02 3.544e-03 4.323e-04 4.297e-04 4.275e-04 4.257e-04 4.244e-04 4.234e-04 2.820e-04
           </DataArray>
           <DataArray type="Float32" Name="rootSegmentLength" NumberOfComponents="1" format="ascii">
 7.500e-01 6.900e-01 8.600e-01 6.000e-01 9.000e-01 9.000e-01 3.000e-01 7.071e-01 7.071e-01 7.071e-01 7.071e-01 7.071e-01 7.071e-01 4.714e-01
           </DataArray>
           <DataArray type="Float32" Name="rootSegmentLengthDuration" NumberOfComponents="1" format="ascii">
 1.295e+00 9.313e-01 9.047e-01 4.800e-01 5.000e-01 2.300e-01 2.983e-02 1.312e+00 1.100e+00 8.878e-01 6.757e-01 4.635e-01 2.514e-01 4.714e-02
           </DataArray>
           <DataArray type="Float32" Name="rootSegmentRespiration" NumberOfComponents="1" format="ascii">
 3.575e-04 4.300e-04 6.114e-04 4.792e-04 7.716e-04 8.508e-04 3.101e-04 1.729e-05 2.041e-05 2.351e-05 2.661e-05 2.970e-05 3.282e-05 2.397e-05
           </DataArray>
           <DataArray type="Float32" Name="rootSegmentSecondaryPotentialCarbonSinkForGrowth" NumberOfComponents="1" format="ascii">
 2.690e-05 1.469e-05 1.110e-05 4.490e-06 3.245e-06 7.326e-07 1.163e-08 3.647e-06 2.558e-06 1.665e-06 9.637e-07 4.550e-07 1.375e-07 9.397e-09
           </DataArray>
           <DataArray type="Float32" Name="rootSegmentSurfaceArea" NumberOfComponents="1" format="ascii">
 9.466e-01 8.692e-01 1.082e+00 7.547e-01 1.132e+00 1.131e+00 3.770e-01 2.021e-01 2.015e-01 2.010e-01 2.006e-01 2.003e-01 2.001e-01 1.333e-01
           </DataArray>
           <DataArray type="Float32" Name="rootSegmentVolume" NumberOfComponents="1" format="ascii">
 9.507e-02 8.714e-02 1.084e-01 7.553e-02 1.132e-01 1.131e-01 3.770e-02 4.599e-03 4.571e-03 4.547e-03 4.529e-03 4.514e-03 4.505e-03 3.000e-03
           </DataArray>
           <DataArray type="Float32" Name="rootSegmentWaterUptake" NumberOfComponents="1" format="ascii">
 0.000e+00 0.000e+00 0.000e+00 0.000e+00 0.000e+00 0.000e+00 0.000e+00 0.000e+00 0.000e+00 0.000e+00 0.000e+00 0.000e+00 0.000e+00 0.000e+00
           </DataArray>
           <DataArray type="Float32" Name="spatialRootDensity" NumberOfComponents="1" format="ascii">
 3.376e-01 1.688e-01 0.000e+00 0.000e+00 0.000e+00 0.000e+00 0.000e+00 3.438e-01 1.790e-01 0.000e+00 0.000e+00 0.000e+00 0.000e+00 0.000e+00
           </DataArray>
           <DataArray type="Float32" Name="volumetricWaterContentAtTheRootSurface" NumberOfComponents="1" format="ascii">
 2.125e-01 2.123e-01 2.121e-01 2.119e-01 2.118e-01 2.115e-01 2.113e-01 2.125e-01 2.127e-01 2.129e-01 2.131e-01 2.133e-01 2.134e-01 2.136e-01
           </DataArray>
         </CellData>
      </Piece>
   </UnstructuredGrid>
</VTKFile>
