<?xml version="1.0"?>
<VTKFile type="UnstructuredGrid" version="0.1" byte_order="LittleEndian">
   <UnstructuredGrid>
      <Piece NumberOfPoints="13690" NumberOfCells="962">
         <Points>
            <DataArray type="Float32" Name="Position" NumberOfComponents="3" format="ascii">
0.118	-5.061	0.060
0.116	-5.053	0.064
0.111	-5.049	0.071
0.106	-5.050	0.078
0.101	-5.056	0.083
0.099	-5.065	0.083
0.101	-5.074	0.080
0.105	-5.078	0.073
0.111	-5.077	0.066
0.116	-5.070	0.061
0.788	-5.158	0.599
0.786	-5.150	0.603
0.781	-5.147	0.610
0.776	-5.149	0.618
0.772	-5.156	0.622
0.771	-5.165	0.622
0.773	-5.173	0.618
0.777	-5.176	0.611
0.783	-5.174	0.604
0.787	-5.167	0.599
1.347	-5.222	0.924
1.345	-5.214	0.929
1.341	-5.211	0.937
1.336	-5.214	0.945
1.333	-5.222	0.949
1.332	-5.231	0.949
1.334	-5.238	0.944
1.338	-5.241	0.936
1.343	-5.238	0.928
1.346	-5.231	0.924
0.193	-5.154	0.126
0.199	-5.151	0.133
0.205	-5.154	0.139
0.208	-5.162	0.144
0.207	-5.171	0.144
0.203	-5.178	0.140
0.197	-5.181	0.134
0.192	-5.178	0.127
0.189	-5.171	0.123
0.189	-5.162	0.122
0.851	-5.216	-0.453
0.857	-5.213	-0.447
0.862	-5.216	-0.439
0.865	-5.224	-0.435
0.864	-5.233	-0.434
0.860	-5.241	-0.438
0.855	-5.243	-0.445
0.850	-5.241	-0.452
0.847	-5.233	-0.457
0.847	-5.224	-0.457
1.401	-5.267	-0.816
1.409	-5.262	-0.816
1.418	-5.264	-0.816
1.425	-5.270	-0.816
1.426	-5.279	-0.816
1.422	-5.288	-0.816
1.414	-5.292	-0.816
1.404	-5.290	-0.816
1.398	-5.284	-0.816
1.396	-5.275	-0.816
0.759	-6.295	0.578
0.766	-6.300	0.581
0.769	-6.306	0.588
0.766	-6.311	0.596
0.759	-6.312	0.601
0.750	-6.310	0.602
0.743	-6.305	0.599
0.740	-6.299	0.593
0.743	-6.295	0.585
0.750	-6.293	0.580
0.526	-6.972	0.073
0.532	-6.978	0.078
0.533	-6.983	0.085
0.529	-6.987	0.093
0.521	-6.987	0.097
0.513	-6.983	0.098
0.507	-6.978	0.093
0.505	-6.972	0.086
0.510	-6.969	0.078
0.517	-6.969	0.074
0.375	-7.278	-0.115
0.379	-7.284	-0.109
0.379	-7.289	-0.101
0.373	-7.291	-0.094
0.365	-7.289	-0.090
0.357	-7.284	-0.091
0.353	-7.278	-0.097
0.353	-7.273	-0.105
0.359	-7.272	-0.112
0.367	-7.274	-0.116
0.813	-6.443	0.628
0.813	-6.448	0.636
0.808	-6.449	0.644
0.800	-6.446	0.648
0.793	-6.440	0.648
0.789	-6.433	0.643
0.790	-6.428	0.635
0.795	-6.427	0.627
0.802	-6.430	0.623
0.810	-6.436	0.623
0.335	-7.031	0.222
0.334	-7.035	0.230
0.328	-7.036	0.237
0.320	-7.034	0.241
0.312	-7.029	0.239
0.309	-7.023	0.233
0.310	-7.018	0.225
0.316	-7.017	0.218
0.324	-7.019	0.215
0.331	-7.025	0.216
0.207	-7.388	0.004
0.212	-7.393	0.009
0.213	-7.398	0.017
0.208	-7.401	0.025
0.200	-7.401	0.029
0.191	-7.397	0.028
0.186	-7.392	0.023
0.185	-7.387	0.015
0.190	-7.385	0.007
0.198	-7.385	0.003
0.854	-6.571	0.667
0.851	-6.563	0.671
0.847	-6.560	0.678
0.842	-6.562	0.686
0.838	-6.569	0.690
0.837	-6.578	0.691
0.839	-6.586	0.686
0.844	-6.590	0.679
0.849	-6.587	0.672
0.853	-6.580	0.667
1.570	-6.628	1.163
1.568	-6.620	1.167
1.564	-6.616	1.174
1.558	-6.617	1.181
1.553	-6.624	1.186
1.551	-6.633	1.186
1.553	-6.641	1.182
1.557	-6.645	1.176
1.563	-6.644	1.168
1.568	-6.638	1.164
1.870	-6.718	1.424
1.869	-6.709	1.428
1.865	-6.705	1.434
1.859	-6.705	1.441
1.853	-6.711	1.446
1.850	-6.720	1.446
1.851	-6.728	1.442
1.855	-6.733	1.436
1.862	-6.732	1.429
1.867	-6.727	1.424
0.880	-6.701	0.713
0.888	-6.699	0.717
0.895	-6.702	0.721
0.899	-6.710	0.725
0.897	-6.719	0.727
0.891	-6.725	0.726
0.883	-6.728	0.723
0.875	-6.724	0.718
0.872	-6.717	0.714
0.874	-6.708	0.712
1.238	-6.931	-0.020
1.246	-6.928	-0.018
1.255	-6.931	-0.015
1.259	-6.938	-0.012
1.259	-6.947	-0.011
1.253	-6.955	-0.011
1.245	-6.958	-0.014
1.237	-6.955	-0.017
1.232	-6.947	-0.019
1.232	-6.938	-0.021
1.252	-6.934	-0.122
1.260	-6.930	-0.121
1.269	-6.932	-0.120
1.275	-6.939	-0.119
1.276	-6.949	-0.119
1.271	-6.957	-0.119
1.263	-6.960	-0.120
1.254	-6.958	-0.122
1.248	-6.951	-0.123
1.247	-6.942	-0.123
0.927	-6.841	0.749
0.932	-6.837	0.756
0.935	-6.840	0.764
0.936	-6.846	0.771
0.933	-6.855	0.772
0.929	-6.863	0.769
0.924	-6.866	0.762
0.921	-6.864	0.753
0.921	-6.857	0.747
0.923	-6.848	0.745
1.664	-7.108	0.390
1.668	-7.104	0.397
1.671	-7.106	0.406
1.670	-7.112	0.413
1.667	-7.121	0.415
1.663	-7.128	0.412
1.659	-7.132	0.404
1.656	-7.130	0.396
1.657	-7.124	0.389
1.660	-7.116	0.387
1.736	-7.145	0.377
1.739	-7.141	0.384
1.740	-7.142	0.393
1.739	-7.148	0.401
1.735	-7.156	0.403
1.731	-7.163	0.400
1.727	-7.167	0.392
1.726	-7.166	0.383
1.728	-7.161	0.376
1.731	-7.153	0.374
0.980	-7.002	0.798
0.984	-6.994	0.802
0.983	-6.985	0.803
0.977	-6.978	0.802
0.968	-6.976	0.798
0.961	-6.979	0.795
0.957	-6.987	0.791
0.958	-6.996	0.790
0.964	-7.003	0.791
0.972	-7.005	0.794
0.642	-7.148	1.583
0.646	-7.140	1.586
0.645	-7.131	1.588
0.638	-7.124	1.587
0.630	-7.122	1.584
0.622	-7.126	1.581
0.618	-7.133	1.578
0.619	-7.142	1.576
0.626	-7.149	1.577
0.634	-7.152	1.580
0.527	-7.243	1.947
0.531	-7.235	1.950
0.529	-7.226	1.952
0.523	-7.219	1.952
0.514	-7.218	1.949
0.506	-7.221	1.946
0.502	-7.229	1.943
0.504	-7.238	1.941
0.510	-7.245	1.941
0.519	-7.246	1.944
1.001	-7.137	0.843
0.996	-7.129	0.841
0.996	-7.123	0.835
1.000	-7.119	0.827
1.007	-7.120	0.821
1.014	-7.126	0.819
1.018	-7.134	0.821
1.018	-7.141	0.827
1.014	-7.144	0.835
1.008	-7.143	0.841
0.457	-7.601	0.335
0.452	-7.593	0.335
0.451	-7.585	0.331
0.453	-7.580	0.324
0.458	-7.580	0.316
0.464	-7.585	0.311
0.469	-7.593	0.310
0.470	-7.601	0.315
0.468	-7.606	0.322
0.463	-7.606	0.330
0.277	-7.651	0.217
0.281	-7.651	0.226
0.279	-7.651	0.235
0.273	-7.651	0.241
0.264	-7.651	0.243
0.255	-7.651	0.239
0.251	-7.651	0.230
0.253	-7.651	0.221
0.259	-7.651	0.215
0.268	-7.651	0.213
1.037	-7.262	0.857
1.045	-7.263	0.853
1.052	-7.269	0.853
1.056	-7.277	0.857
1.054	-7.283	0.863
1.048	-7.286	0.870
1.040	-7.284	0.874
1.033	-7.279	0.874
1.029	-7.271	0.870
1.031	-7.264	0.863
0.644	-7.763	0.260
0.653	-7.764	0.256
0.660	-7.770	0.256
0.663	-7.778	0.260
0.662	-7.784	0.267
0.656	-7.787	0.273
0.648	-7.785	0.277
0.640	-7.780	0.277
0.637	-7.772	0.273
0.638	-7.766	0.266
1.076	-7.406	0.883
1.083	-7.404	0.889
1.087	-7.406	0.897
1.087	-7.413	0.904
1.083	-7.421	0.906
1.077	-7.428	0.904
1.071	-7.430	0.897
1.067	-7.427	0.889
1.066	-7.421	0.883
1.070	-7.413	0.880
1.700	-7.835	0.426
1.706	-7.832	0.433
1.709	-7.835	0.442
1.708	-7.841	0.449
1.703	-7.848	0.451
1.697	-7.854	0.449
1.691	-7.857	0.442
1.688	-7.854	0.434
1.689	-7.848	0.427
1.693	-7.841	0.424
1.836	-7.968	0.371
1.841	-7.966	0.378
1.843	-7.967	0.387
1.841	-7.973	0.394
1.836	-7.979	0.397
1.829	-7.985	0.395
1.823	-7.988	0.388
1.821	-7.986	0.379
1.824	-7.981	0.371
1.829	-7.974	0.368
1.117	-7.573	0.922
1.117	-7.567	0.930
1.114	-7.560	0.934
1.108	-7.553	0.932
1.102	-7.549	0.927
1.098	-7.550	0.918
1.098	-7.555	0.910
1.101	-7.562	0.906
1.107	-7.570	0.908
1.113	-7.573	0.913
0.486	-8.044	1.257
0.486	-8.039	1.264
0.483	-8.031	1.268
0.477	-8.024	1.267
0.471	-8.021	1.261
0.467	-8.021	1.253
0.467	-8.027	1.245
0.470	-8.034	1.241
0.476	-8.041	1.242
0.482	-8.045	1.248
0.289	-5.289	0.191
0.292	-5.282	0.196
0.290	-5.274	0.200
0.283	-5.267	0.200
0.274	-5.266	0.197
0.267	-5.269	0.192
0.264	-5.276	0.187
0.266	-5.284	0.184
0.273	-5.290	0.183
0.282	-5.292	0.186
-0.025	-5.679	0.906
-0.022	-5.672	0.911
-0.024	-5.664	0.914
-0.030	-5.657	0.914
-0.039	-5.655	0.911
-0.046	-5.658	0.906
-0.049	-5.665	0.901
-0.047	-5.674	0.898
-0.040	-5.680	0.897
-0.032	-5.682	0.901
-0.326	-5.948	1.472
-0.323	-5.941	1.477
-0.325	-5.932	1.480
-0.332	-5.925	1.480
-0.340	-5.923	1.476
-0.347	-5.926	1.471
-0.350	-5.933	1.466
-0.348	-5.942	1.463
-0.342	-5.949	1.463
-0.333	-5.951	1.467
1.135	-7.716	0.957
1.129	-7.709	0.958
1.126	-7.701	0.954
1.127	-7.695	0.947
1.132	-7.693	0.939
1.139	-7.696	0.934
1.145	-7.703	0.933
1.148	-7.711	0.937
1.147	-7.717	0.944
1.142	-7.719	0.952
0.573	-8.182	0.474
0.567	-8.175	0.476
0.564	-8.167	0.473
0.565	-8.161	0.467
0.570	-8.158	0.459
0.577	-8.161	0.454
0.583	-8.168	0.452
0.587	-8.176	0.455
0.585	-8.182	0.461
0.580	-8.185	0.469
0.526	-8.196	0.438
0.525	-8.188	0.434
0.528	-8.182	0.427
0.534	-8.181	0.420
0.541	-8.186	0.416
0.546	-8.193	0.415
0.547	-8.202	0.419
0.544	-8.207	0.426
0.538	-8.208	0.433
0.531	-8.204	0.437
1.176	-7.863	0.970
1.180	-7.855	0.973
1.179	-7.846	0.974
1.172	-7.839	0.974
1.164	-7.837	0.971
1.156	-7.840	0.967
1.152	-7.848	0.964
1.153	-7.857	0.962
1.160	-7.864	0.963
1.168	-7.866	0.966
0.871	-8.038	1.773
0.875	-8.030	1.776
0.873	-8.021	1.778
0.866	-8.015	1.778
0.857	-8.013	1.776
0.850	-8.017	1.773
0.846	-8.024	1.770
0.848	-8.033	1.768
0.854	-8.040	1.767
0.863	-8.041	1.769
0.829	-8.111	1.980
0.829	-8.103	1.984
0.829	-8.094	1.982
0.829	-8.087	1.976
0.829	-8.086	1.967
0.829	-8.090	1.958
0.829	-8.098	1.954
0.829	-8.108	1.956
0.829	-8.114	1.962
0.829	-8.116	1.971
1.207	-8.002	0.984
1.207	-8.006	0.993
1.202	-8.006	1.001
1.194	-8.002	1.005
1.187	-7.997	1.004
1.183	-7.991	0.998
1.183	-7.988	0.989
1.188	-7.988	0.981
1.196	-7.991	0.977
1.203	-7.997	0.978
0.784	-8.617	0.724
0.784	-8.620	0.733
0.779	-8.620	0.741
0.771	-8.617	0.745
0.764	-8.611	0.744
0.760	-8.606	0.737
0.760	-8.602	0.729
0.765	-8.602	0.721
0.773	-8.606	0.717
0.780	-8.611	0.718
1.206	-8.135	1.013
1.212	-8.131	1.007
1.219	-8.131	1.002
1.227	-8.136	1.000
1.231	-8.145	1.002
1.230	-8.152	1.007
1.225	-8.157	1.013
1.217	-8.156	1.018
1.210	-8.151	1.020
1.206	-8.143	1.018
0.768	-8.496	0.367
0.773	-8.492	0.361
0.780	-8.492	0.355
0.788	-8.496	0.353
0.793	-8.504	0.355
0.794	-8.511	0.361
0.789	-8.516	0.368
0.782	-8.516	0.373
0.774	-8.511	0.375
0.769	-8.504	0.373
0.723	-8.588	0.273
0.729	-8.594	0.275
0.731	-8.601	0.281
0.727	-8.605	0.289
0.720	-8.605	0.295
0.712	-8.601	0.297
0.706	-8.595	0.295
0.704	-8.588	0.289
0.707	-8.584	0.281
0.714	-8.584	0.275
1.238	-8.279	1.019
1.245	-8.277	1.025
1.250	-8.280	1.032
1.252	-8.287	1.037
1.250	-8.296	1.039
1.244	-8.303	1.037
1.237	-8.305	1.031
1.232	-8.302	1.024
1.230	-8.295	1.019
1.232	-8.286	1.017
1.815	-8.562	0.433
1.822	-8.560	0.439
1.827	-8.563	0.445
1.829	-8.570	0.451
1.827	-8.579	0.453
1.821	-8.586	0.450
1.814	-8.588	0.445
1.808	-8.585	0.438
1.807	-8.578	0.432
1.809	-8.569	0.431
1.259	-8.426	1.042
1.265	-8.423	1.048
1.271	-8.426	1.054
1.273	-8.434	1.060
1.271	-8.443	1.061
1.266	-8.450	1.058
1.259	-8.452	1.052
[...]
         <CellData>
           <DataArray type="Float32" Name="combinedRootClassID" NumberOfComponents="1" format="ascii">
 -1.300e+01 -1.300e+01 -1.300e+01 -1.300e+01 -1.300e+01 -1.300e+01 -1.300e+01 -1.300e+01 -1.300e+01 -1.300e+01 -1.300e+01 -1.300e+01 -1.300e+01 -1.300e+01 -1.300e+01 -1.300e+01 -1.300e+01 -1.300e+01 -1.300e+01 -1.300e+01 -1.300e+01 -1.300e+01 -1.300e+01 -1.300e+01 -1.300e+01 -1.300e+01 -1.300e+01 -1.300e+01 -1.300e+01 -1.300e+01 -1.300e+01 -1.300e+01 -1.300e+01 -1.300e+01 -1.300e+01 -1.300e+01 -1.300e+01 -1.300e+01 -1.300e+01 -1.300e+01 -1.300e+01 -1.300e+01 -1.300e+01 -1.300e+01 -1.300e+01 -1.300e+01 -1.300e+01 -1.300e+01 -1.300e+01 -1.300e+01 -1.300e+01 -1.300e+01 -1.300e+01 -1.300e+01 -1.300e+01 -1.300e+01 -1.300e+01 -1.300e+01 -1.300e+01 -1.300e+01 -1.300e+01 -1.300e+01 -1.300e+01 -1.300e+01 -1.300e+01 -1.300e+01 -1.300e+01 -1.300e+01 -1.300e+01 -1.300e+01 -1.300e+01 -1.300e+01 -1.300e+01 -1.300e+01 -1.300e+01 -1.300e+01 -1.300e+01 -1.300e+01 -1.300e+01 -1.300e+01 -1.300e+01 -1.300e+01 -1.300e+01 -1.300e+01 -1.300e+01 -1.300e+01 -5.000e+00 -5.000e+00 -5.000e+00 -5.000e+00 -5.000e+00 -5.000e+00 -5.000e+00 -5.000e+00 -5.000e+00 -5.000e+00 -5.000e+00 -5.000e+00 -5.000e+00 -5.000e+00 -5.000e+00 -5.000e+00 -5.000e+00 -5.000e+00 -5.000e+00 -5.000e+00 -5.000e+00 -5.000e+00 -5.000e+00 -1.300e+01 -1.300e+01 -1.300e+01 -1.300e+01 -1.300e+01 -1.300e+01 -1.300e+01 -1.300e+01 -1.300e+01 -1.300e+01 -1.300e+01 -1.300e+01 -1.300e+01 -1.300e+01 -1.300e+01 -1.300e+01 -1.300e+01 -1.300e+01 -1.300e+01 -1.300e+01 -1.300e+01 -1.300e+01 -1.300e+01 -1.300e+01 -1.300e+01 -1.300e+01 -1.300e+01 -1.300e+01 -1.300e+01 -1.300e+01 -1.300e+01 -1.300e+01 -1.300e+01 -1.300e+01 -1.300e+01 -1.300e+01 -1.300e+01 -1.300e+01 -1.300e+01 -1.300e+01 -1.300e+01 -1.300e+01 -1.300e+01 -1.300e+01 -1.300e+01 -1.300e+01 -1.300e+01 -1.300e+01 -1.300e+01 -1.300e+01 -1.300e+01 -1.300e+01 -1.300e+01 -1.300e+01 -1.300e+01 -1.300e+01 -1.300e+01 -1.300e+01 -1.300e+01 -1.300e+01 -1.300e+01 -1.300e+01 -1.300e+01 -1.300e+01 -1.300e+01 -1.300e+01 -1.300e+01 -1.300e+01 -1.300e+01 -1.300e+01 -1.300e+01 -1.300e+01 -1.300e+01 -1.300e+01 -1.300e+01 -1.300e+01 -1.300e+01 -1.300e+01 -1.300e+01 -1.300e+01 -1.300e+01 -1.300e+01 -1.300e+01 -1.300e+01 -1.300e+01 -1.300e+01 -1.300e+01 -1.300e+01 -1.300e+01 -5.000e+00 -5.000e+00 -5.000e+00 -5.000e+00 -5.000e+00 -5.000e+00 -5.000e+00 -5.000e+00 -5.000e+00 -5.000e+00 -5.000e+00 -5.000e+00 -5.000e+00 -5.000e+00 -5.000e+00 -5.000e+00 -5.000e+00 -5.000e+00 -5.000e+00 -5.000e+00 -5.000e+00 -5.000e+00 -5.000e+00 -1.300e+01 -1.300e+01 -1.300e+01 -1.300e+01 -1.300e+01 -1.300e+01 -1.300e+01 -1.300e+01 -1.300e+01 -1.300e+01 -1.300e+01 -1.300e+01 -1.300e+01 -1.300e+01 -1.300e+01 -1.300e+01 -1.300e+01 -1.300e+01 -1.300e+01 -1.300e+01 -1.300e+01 -1.300e+01 -1.300e+01 -1.300e+01 -1.300e+01 -1.300e+01 -1.300e+01 -1.300e+01 -1.300e+01 -1.300e+01 -1.300e+01 -1.300e+01 -1.300e+01 -1.300e+01 -1.300e+01 -1.300e+01 -1.300e+01 -1.300e+01 -1.300e+01 -1.300e+01 -1.300e+01 -1.300e+01 -1.300e+01 -1.300e+01 -1.300e+01 -1.300e+01 -1.300e+01 -1.300e+01 -1.300e+01 -1.300e+01 -1.300e+01 -1.300e+01 -1.300e+01 -1.300e+01 -1.300e+01 -1.300e+01 -1.300e+01 -1.300e+01 -1.300e+01 -1.300e+01 -1.300e+01 -1.300e+01 -1.300e+01 -1.300e+01 -1.300e+01 -1.300e+01 -1.300e+01 -1.300e+01 -1.300e+01 -1.300e+01 -1.300e+01 -1.300e+01 -1.300e+01 -1.300e+01 -1.300e+01 -1.300e+01 -1.300e+01 -1.300e+01 -1.300e+01 -1.300e+01 -1.300e+01 -1.300e+01 -1.300e+01 -1.300e+01 -1.300e+01 -5.000e+00 -5.000e+00 -5.000e+00 -5.000e+00 -5.000e+00 -5.000e+00 -5.000e+00 -5.000e+00 -5.000e+00 -5.000e+00 -5.000e+00 -5.000e+00 -5.000e+00 -5.000e+00 -5.000e+00 -5.000e+00 -5.000e+00 -5.000e+00 -5.000e+00 -5.000e+00 -5.000e+00 -5.000e+00 -5.000e+00 -1.300e+01 -1.300e+01 -1.300e+01 -1.300e+01 -1.300e+01 -1.300e+01 -1.300e+01 -1.300e+01 -1.300e+01 -1.300e+01 -1.300e+01 -1.300e+01 -1.300e+01 -1.300e+01 -1.300e+01 -1.300e+01 -1.300e+01 -1.300e+01 -1.300e+01 -1.300e+01 -1.300e+01 -1.300e+01 -1.300e+01 -1.300e+01 -1.300e+01 -1.300e+01 -1.300e+01 -1.300e+01 -1.300e+01 -1.300e+01 -1.300e+01 -1.300e+01 -1.300e+01 -1.300e+01 -1.300e+01 -1.300e+01 -1.300e+01 -1.300e+01 -1.300e+01 -1.300e+01 -1.300e+01 -1.300e+01 -1.300e+01 -1.300e+01 -1.300e+01 -1.300e+01 -1.300e+01 -1.300e+01 -1.300e+01 -1.300e+01 -1.300e+01 -1.300e+01 -1.300e+01 -1.300e+01 -1.300e+01 -1.300e+01 -1.300e+01 -1.300e+01 -1.300e+01 -1.300e+01 -1.300e+01 -1.300e+01 -1.300e+01 -1.300e+01 -1.300e+01 -1.300e+01 -1.300e+01 -1.300e+01 -1.300e+01 -1.300e+01 -1.300e+01 -1.300e+01 -1.300e+01 -1.300e+01 -1.300e+01 -1.300e+01 -1.300e+01 -1.300e+01 -1.300e+01 -1.300e+01 -1.300e+01 -1.300e+01 -1.300e+01 -1.300e+01 -1.300e+01 -5.000e+00 -5.000e+00 -5.000e+00 -5.000e+00 -5.000e+00 -5.000e+00 -5.000e+00 -5.000e+00 -5.000e+00 -5.000e+00 -5.000e+00 -5.000e+00 -5.000e+00 -5.000e+00 -5.000e+00 -5.000e+00 -5.000e+00 -5.000e+00 -5.000e+00 -5.000e+00 -5.000e+00 -5.000e+00 -5.000e+00 -1.100e+01 -1.100e+01 -1.100e+01 -1.100e+01 -1.100e+01 -1.100e+01 -1.100e+01 -1.100e+01 -1.100e+01 -1.100e+01 -1.100e+01 -1.100e+01 -1.100e+01 -1.100e+01 -1.100e+01 -1.100e+01 -1.100e+01 -1.100e+01 -1.100e+01 -1.100e+01 -1.100e+01 -1.100e+01 -1.100e+01 -1.100e+01 -1.100e+01 -1.100e+01 -1.100e+01 -1.100e+01 -1.100e+01 -1.100e+01 -1.100e+01 -1.100e+01 -1.100e+01 -1.100e+01 -1.100e+01 -1.100e+01 -1.100e+01 -1.100e+01 -1.100e+01 -1.100e+01 -1.100e+01 -1.100e+01 -1.100e+01 -1.100e+01 -1.100e+01 -1.100e+01 -1.100e+01 -1.100e+01 -2.000e+00 -2.000e+00 -2.000e+00 -2.000e+00 -2.000e+00 -2.000e+00 -2.000e+00 -2.000e+00 -2.000e+00 -2.000e+00 -7.000e+00 -7.000e+00 -7.000e+00 -7.000e+00 -7.000e+00 -7.000e+00 -7.000e+00 -7.000e+00 -7.000e+00 -7.000e+00 -1.500e+01 -7.000e+00 -7.000e+00 -7.000e+00 -7.000e+00 -7.000e+00 -7.000e+00 -7.000e+00 -7.000e+00 -7.000e+00 -7.000e+00 -7.000e+00 -7.000e+00 -7.000e+00 -7.000e+00 -7.000e+00 -7.000e+00 -7.000e+00 -7.000e+00 -7.000e+00 -7.000e+00 -7.000e+00 -7.000e+00 -7.000e+00 -7.000e+00 -7.000e+00 -7.000e+00 -7.000e+00 -7.000e+00 -7.000e+00 -7.000e+00 -7.000e+00 -7.000e+00 -7.000e+00 -7.000e+00 -7.000e+00 -7.000e+00 -7.000e+00 -7.000e+00 -7.000e+00 -7.000e+00 -7.000e+00 -7.000e+00 -7.000e+00 -7.000e+00 -7.000e+00 -7.000e+00 -7.000e+00 -7.000e+00 -7.000e+00 -7.000e+00 -7.000e+00 -7.000e+00 -7.000e+00 -7.000e+00 -7.000e+00 -7.000e+00 -7.000e+00 -7.000e+00 -7.000e+00 -7.000e+00 -7.000e+00 -7.000e+00 -7.000e+00 -7.000e+00 -7.000e+00 -7.000e+00 -7.000e+00 -7.000e+00 -7.000e+00 -7.000e+00 -7.000e+00 -7.000e+00 -7.000e+00 -7.000e+00 -7.000e+00 -7.000e+00 -7.000e+00 -7.000e+00 -7.000e+00 -7.000e+00 -7.000e+00 -7.000e+00 -7.000e+00 -7.000e+00 -7.000e+00 -7.000e+00 -7.000e+00 -7.000e+00 -7.000e+00 -7.000e+00 -7.000e+00 -7.000e+00 -7.000e+00 -7.000e+00 -1.500e+01 -7.000e+00 -7.000e+00 -7.000e+00 -7.000e+00 -7.000e+00 -7.000e+00 -7.000e+00 -7.000e+00 -7.000e+00 -7.000e+00 -7.000e+00 -7.000e+00 -7.000e+00 -7.000e+00 -7.000e+00 -7.000e+00 -7.000e+00 -7.000e+00 -7.000e+00 -7.000e+00 -7.000e+00 -7.000e+00 -7.000e+00 -7.000e+00 -7.000e+00 -7.000e+00 -7.000e+00 -7.000e+00 -7.000e+00 -7.000e+00 -7.000e+00 -7.000e+00 -7.000e+00 -7.000e+00 -7.000e+00 -7.000e+00 -7.000e+00 -7.000e+00 -7.000e+00 -7.000e+00 -7.000e+00 -7.000e+00 -7.000e+00 -7.000e+00 -7.000e+00 -7.000e+00 -7.000e+00 -7.000e+00 -7.000e+00 -7.000e+00 -7.000e+00 -7.000e+00 -7.000e+00 -1.500e+01 -7.000e+00 -7.000e+00 -7.000e+00 -7.000e+00 -7.000e+00 -7.000e+00 -7.000e+00 -7.000e+00 -7.000e+00 -7.000e+00 -7.000e+00 -7.000e+00 -7.000e+00 -7.000e+00 -7.000e+00 -7.000e+00 -7.000e+00 -7.000e+00 -7.000e+00 -7.000e+00 -7.000e+00 -7.000e+00 -7.000e+00 -7.000e+00 -7.000e+00 -7.000e+00 -7.000e+00 -7.000e+00 -7.000e+00 -7.000e+00 -7.000e+00 -7.000e+00 -7.000e+00 -7.000e+00 -7.000e+00 -7.000e+00 -7.000e+00 -7.000e+00 -7.000e+00 -7.000e+00 -7.000e+00 -7.000e+00 -7.000e+00 -7.000e+00 -7.000e+00 -7.000e+00 -7.000e+00 -7.000e+00 -7.000e+00 -7.000e+00 -7.000e+00 -7.000e+00 -7.000e+00 -7.000e+00 -7.000e+00 -7.000e+00 -7.000e+00 -7.000e+00 -7.000e+00 -7.000e+00 -7.000e+00 -7.000e+00 -7.000e+00 -7.000e+00 -7.000e+00 -7.000e+00 -7.000e+00 -7.000e+00 -7.000e+00 -7.000e+00 -7.000e+00 -7.000e+00 -7.000e+00 -7.000e+00 -7.000e+00 -7.000e+00 -7.000e+00 -7.000e+00 -7.000e+00 -7.000e+00 -7.000e+00 -7.000e+00 -7.000e+00 -7.000e+00 -7.000e+00 -7.000e+00 -7.000e+00 -7.000e+00 -7.000e+00 -7.000e+00 -7.000e+00 -1.500e+01 -7.000e+00 -7.000e+00 -7.000e+00 -7.000e+00 -7.000e+00 -7.000e+00 -7.000e+00 -7.000e+00 -7.000e+00 -7.000e+00 -7.000e+00 -7.000e+00 -7.000e+00 -7.000e+00 -7.000e+00 -7.000e+00 -7.000e+00 -7.000e+00 -7.000e+00 -7.000e+00 -7.000e+00 -7.000e+00 -7.000e+00 -7.000e+00 -7.000e+00 -7.000e+00 -7.000e+00 -7.000e+00 -7.000e+00 -7.000e+00 -7.000e+00 -7.000e+00 -7.000e+00 -7.000e+00 -7.000e+00 -7.000e+00 -7.000e+00 -7.000e+00 -7.000e+00 -7.000e+00 -7.000e+00 -7.000e+00 -7.000e+00 -7.000e+00 -7.000e+00 -7.000e+00 -7.000e+00 -7.000e+00 -7.000e+00 -7.000e+00 -7.000e+00 -7.000e+00 -7.000e+00 -7.000e+00 -7.000e+00 -7.000e+00 -7.000e+00 -7.000e+00 -7.000e+00 -7.000e+00 -7.000e+00 -7.000e+00 -7.000e+00 -7.000e+00 -7.000e+00 -7.000e+00 -7.000e+00 -7.000e+00 -7.000e+00 -7.000e+00 -7.000e+00 -7.000e+00 -7.000e+00 -7.000e+00 -7.000e+00 -7.000e+00 -1.500e+01 -7.000e+00 -7.000e+00 -7.000e+00 -7.000e+00 -7.000e+00 -7.000e+00 -7.000e+00 -7.000e+00 -7.000e+00 -7.000e+00 -7.000e+00 -7.000e+00 -7.000e+00 -7.000e+00 -7.000e+00 -7.000e+00 -7.000e+00 -7.000e+00 -7.000e+00 -7.000e+00 -7.000e+00 -7.000e+00 -7.000e+00 -7.000e+00 -7.000e+00 -7.000e+00 -7.000e+00 -7.000e+00 -7.000e+00 -7.000e+00 -7.000e+00 -7.000e+00 -7.000e+00 -7.000e+00 -7.000e+00 -7.000e+00 -7.000e+00 -7.000e+00 -7.000e+00 -7.000e+00 -7.000e+00 -7.000e+00 -7.000e+00 -7.000e+00 -7.000e+00 -7.000e+00 -7.000e+00 -7.000e+00 -7.000e+00 -7.000e+00 -7.000e+00 -7.000e+00 -7.000e+00 -7.000e+00 -7.000e+00 -7.000e+00 -7.000e+00 -7.000e+00 -7.000e+00 -7.000e+00 -7.000e+00 -7.000e+00 -7.000e+00 -7.000e+00 -7.000e+00 -7.000e+00 -7.000e+00 -7.000e+00 -7.000e+00 -7.000e+00 -7.000e+00 -7.000e+00 -7.000e+00 -7.000e+00 -7.000e+00 -7.000e+00 -7.000e+00 -7.000e+00 -7.000e+00 -7.000e+00 -7.000e+00 -7.000e+00 -7.000e+00 -7.000e+00 -7.000e+00 -7.000e+00 -7.000e+00 -7.000e+00 -1.700e+01 -9.000e+00 -9.000e+00 -9.000e+00 -9.000e+00 -9.000e+00 -9.000e+00 -9.000e+00 -9.000e+00 -9.000e+00 -9.000e+00 -9.000e+00 -9.000e+00 -9.000e+00 -9.000e+00 -9.000e+00 -9.000e+00 -4.000e+00 -4.000e+00 -4.000e+00 -4.000e+00 -4.000e+00 -4.000e+00 -4.000e+00 -4.000e+00 -4.000e+00 -4.000e+00 -4.000e+00 -4.000e+00 -4.000e+00 -4.000e+00 -4.000e+00 -4.000e+00 -4.000e+00 -4.000e+00 -4.000e+00 -4.000e+00 -4.000e+00 -4.000e+00 -4.000e+00 -4.000e+00 -4.000e+00 -4.000e+00 -4.000e+00 -4.000e+00 -4.000e+00 -4.000e+00 -4.000e+00 -4.000e+00 -4.000e+00
           </DataArray>
           <DataArray type="Float32" Name="nitrate/minimalNutrientConcentration" NumberOfComponents="1" format="ascii">