<?xml version="1.0"?>
<VTKFile type="UnstructuredGrid" version="0.1" byte_order="LittleEndian">
   <UnstructuredGrid>
      <Piece NumberOfPoints="21910" NumberOfCells="1532">
         <Points>
            <DataArray type="Float32" Name="Position" NumberOfComponents="3" format="ascii">
0.118	-5.061	0.060
0.116	-5.053	0.064
0.111	-5.049	0.071
0.106	-5.050	0.078
0.101	-5.056	0.083
0.099	-5.065	0.083
0.101	-5.074	0.080
0.105	-5.078	0.073
0.111	-5.077	0.066
0.116	-5.070	0.061
0.788	-5.158	0.599
0.786	-5.150	0.603
0.781	-5.147	0.610
0.776	-5.149	0.618
0.772	-5.156	0.622
0.771	-5.165	0.623
0.773	-5.173	0.618
0.777	-5.176	0.611
0.783	-5.174	0.603
0.787	-5.167	0.599
1.553	-5.232	1.023
1.551	-5.225	1.028
1.546	-5.222	1.035
1.542	-5.224	1.043
1.538	-5.232	1.047
1.538	-5.241	1.047
1.540	-5.249	1.042
1.544	-5.252	1.035
1.549	-5.249	1.027
1.553	-5.242	1.023
1.885	-5.242	1.274
1.893	-5.238	1.274
1.902	-5.240	1.274
1.908	-5.246	1.274
1.910	-5.255	1.274
1.906	-5.264	1.274
1.897	-5.268	1.274
1.888	-5.266	1.274
1.882	-5.260	1.274
1.880	-5.251	1.274
0.193	-5.154	0.126
0.199	-5.151	0.133
0.205	-5.154	0.139
0.208	-5.162	0.144
0.207	-5.171	0.144
0.203	-5.178	0.140
0.197	-5.181	0.134
0.192	-5.178	0.127
0.189	-5.171	0.123
0.189	-5.162	0.122
0.851	-5.216	-0.454
0.857	-5.213	-0.447
0.862	-5.216	-0.439
0.865	-5.224	-0.435
0.864	-5.233	-0.434
0.860	-5.241	-0.438
0.855	-5.243	-0.445
0.850	-5.241	-0.453
0.847	-5.233	-0.457
0.848	-5.224	-0.458
1.598	-5.285	-0.902
1.602	-5.282	-0.894
1.605	-5.285	-0.886
1.607	-5.292	-0.880
1.606	-5.301	-0.879
1.603	-5.309	-0.884
1.599	-5.312	-0.892
1.596	-5.309	-0.900
1.594	-5.302	-0.905
1.595	-5.293	-0.906
2.049	-5.360	-1.047
2.052	-5.356	-1.039
2.055	-5.358	-1.031
2.055	-5.365	-1.024
2.054	-5.374	-1.023
2.052	-5.382	-1.027
2.049	-5.386	-1.035
2.046	-5.384	-1.044
2.045	-5.377	-1.050
2.046	-5.368	-1.051
0.759	-6.295	0.578
0.766	-6.300	0.581
0.769	-6.306	0.588
0.766	-6.311	0.596
0.759	-6.312	0.601
0.750	-6.310	0.602
0.743	-6.305	0.599
0.740	-6.299	0.593
0.743	-6.295	0.585
0.750	-6.293	0.580
0.525	-6.972	0.073
0.532	-6.977	0.077
0.534	-6.982	0.085
0.530	-6.986	0.092
0.522	-6.987	0.097
0.513	-6.984	0.098
0.507	-6.979	0.094
0.505	-6.973	0.086
0.509	-6.969	0.079
0.517	-6.969	0.074
0.269	-7.680	-0.360
0.277	-7.683	-0.357
0.282	-7.687	-0.350
0.281	-7.690	-0.342
0.276	-7.691	-0.335
0.267	-7.690	-0.332
0.258	-7.687	-0.335
0.254	-7.683	-0.342
0.254	-7.680	-0.350
0.260	-7.679	-0.357
0.243	-7.854	-0.364
0.243	-7.845	-0.359
0.243	-7.836	-0.361
0.243	-7.830	-0.367
0.243	-7.828	-0.377
0.243	-7.832	-0.385
0.243	-7.841	-0.389
0.243	-7.850	-0.388
0.243	-7.856	-0.381
0.243	-7.858	-0.372
0.813	-6.443	0.628
0.813	-6.448	0.636
0.808	-6.449	0.644
0.800	-6.446	0.648
0.793	-6.440	0.648
0.789	-6.433	0.643
0.790	-6.428	0.635
0.795	-6.427	0.627
0.802	-6.430	0.623
0.810	-6.436	0.623
0.335	-7.030	0.222
0.335	-7.034	0.230
0.329	-7.036	0.237
0.321	-7.034	0.241
0.313	-7.029	0.239
0.309	-7.023	0.234
0.309	-7.019	0.226
0.315	-7.017	0.218
0.323	-7.019	0.215
0.331	-7.024	0.216
0.147	-7.778	-0.192
0.148	-7.783	-0.184
0.145	-7.787	-0.177
0.137	-7.788	-0.172
0.128	-7.786	-0.172
0.121	-7.782	-0.177
0.119	-7.777	-0.185
0.123	-7.773	-0.192
0.131	-7.772	-0.197
0.140	-7.774	-0.197
0.103	-7.969	-0.326
0.110	-7.973	-0.322
0.112	-7.979	-0.315
0.109	-7.983	-0.307
0.102	-7.985	-0.302
0.092	-7.984	-0.302
0.085	-7.980	-0.306
0.083	-7.974	-0.313
0.086	-7.970	-0.321
0.093	-7.968	-0.326
0.854	-6.571	0.667
0.851	-6.563	0.671
0.847	-6.560	0.678
0.842	-6.562	0.686
0.838	-6.569	0.690
0.837	-6.578	0.691
0.839	-6.586	0.686
0.844	-6.590	0.679
0.849	-6.587	0.672
0.853	-6.580	0.667
1.570	-6.628	1.163
1.568	-6.620	1.168
1.564	-6.616	1.175
1.559	-6.618	1.182
1.554	-6.624	1.187
1.552	-6.633	1.187
1.553	-6.641	1.182
1.557	-6.645	1.175
1.563	-6.644	1.168
1.567	-6.637	1.163
2.228	-6.918	1.648
2.228	-6.911	1.654
2.225	-6.908	1.663
2.220	-6.911	1.670
2.215	-6.918	1.674
2.212	-6.926	1.672
2.212	-6.933	1.666
2.215	-6.936	1.658
2.220	-6.933	1.650
2.225	-6.926	1.647
2.408	-6.995	1.695
2.409	-6.989	1.702
2.407	-6.988	1.711
2.403	-6.992	1.718
2.399	-6.999	1.722
2.396	-7.008	1.719
2.395	-7.014	1.712
2.397	-7.015	1.703
2.401	-7.011	1.696
2.405	-7.003	1.692
0.880	-6.701	0.713
0.888	-6.699	0.717
0.895	-6.702	0.721
0.899	-6.710	0.725
0.897	-6.719	0.727
0.891	-6.725	0.726
0.883	-6.728	0.723
0.875	-6.724	0.718
0.872	-6.717	0.714
0.874	-6.708	0.712
1.239	-6.930	-0.021
1.247	-6.928	-0.018
1.255	-6.931	-0.014
1.259	-6.939	-0.011
1.258	-6.948	-0.009
1.252	-6.955	-0.010
1.244	-6.957	-0.013
1.236	-6.954	-0.017
1.232	-6.947	-0.021
1.233	-6.938	-0.022
1.441	-7.005	-0.606
1.449	-7.002	-0.604
1.457	-7.005	-0.600
1.462	-7.012	-0.598
1.462	-7.021	-0.597
1.456	-7.029	-0.598
1.448	-7.032	-0.600
1.440	-7.029	-0.604
1.435	-7.021	-0.606
1.435	-7.012	-0.607
0.927	-6.841	0.749
0.932	-6.837	0.756
0.935	-6.840	0.764
0.936	-6.846	0.771
0.933	-6.855	0.772
0.929	-6.863	0.769
0.924	-6.866	0.762
0.921	-6.864	0.753
0.921	-6.857	0.747
0.923	-6.848	0.745
1.664	-7.108	0.390
1.668	-7.104	0.397
1.671	-7.106	0.406
1.670	-7.113	0.413
1.667	-7.121	0.415
1.663	-7.128	0.412
1.659	-7.132	0.404
1.656	-7.130	0.396
1.657	-7.124	0.389
1.660	-7.115	0.387
2.191	-7.388	0.267
2.195	-7.385	0.275
2.196	-7.386	0.284
2.195	-7.391	0.291
2.191	-7.400	0.293
2.186	-7.407	0.290
2.183	-7.411	0.283
2.181	-7.410	0.273
2.183	-7.404	0.266
2.186	-7.396	0.264
0.980	-7.002	0.798
0.984	-6.994	0.802
0.983	-6.985	0.803
0.977	-6.978	0.802
0.968	-6.976	0.798
0.961	-6.979	0.795
0.957	-6.987	0.791
0.958	-6.996	0.790
0.964	-7.003	0.791
0.972	-7.005	0.794
0.642	-7.148	1.583
0.646	-7.140	1.587
0.645	-7.131	1.588
0.638	-7.124	1.587
0.630	-7.122	1.584
0.622	-7.126	1.581
0.618	-7.133	1.577
0.619	-7.142	1.576
0.625	-7.149	1.577
0.634	-7.152	1.580
0.370	-7.335	2.411
0.373	-7.327	2.415
0.371	-7.318	2.417
0.365	-7.312	2.417
0.356	-7.310	2.414
0.349	-7.313	2.410
0.345	-7.320	2.406
0.347	-7.329	2.403
0.354	-7.336	2.404
0.362	-7.338	2.406
0.284	-7.424	2.585
0.287	-7.417	2.590
0.284	-7.409	2.593
0.278	-7.402	2.594
0.269	-7.400	2.590
0.262	-7.403	2.585
0.259	-7.410	2.580
0.261	-7.419	2.577
0.268	-7.425	2.577
0.277	-7.428	2.580
1.001	-7.137	0.843
0.996	-7.129	0.841
0.996	-7.123	0.835
1.000	-7.119	0.827
1.007	-7.120	0.821
1.014	-7.126	0.819
1.018	-7.134	0.821
1.018	-7.141	0.827
1.014	-7.144	0.835
1.008	-7.143	0.841
0.453	-7.594	0.336
0.451	-7.586	0.332
0.453	-7.580	0.325
0.457	-7.580	0.317
0.463	-7.584	0.311
0.468	-7.592	0.310
0.470	-7.600	0.313
0.468	-7.606	0.321
0.464	-7.607	0.329
0.458	-7.602	0.335
-0.323	-7.804	0.036
-0.326	-7.796	0.039
-0.327	-7.787	0.036
-0.326	-7.781	0.029
-0.323	-7.780	0.020
-0.319	-7.785	0.013
-0.316	-7.793	0.011
-0.315	-7.802	0.013
-0.316	-7.808	0.020
-0.319	-7.809	0.029
1.037	-7.262	0.857
1.045	-7.263	0.853
1.052	-7.269	0.853
1.056	-7.277	0.857
1.054	-7.283	0.863
1.048	-7.286	0.870
1.040	-7.284	0.874
1.033	-7.279	0.874
1.029	-7.271	0.870
1.031	-7.264	0.863
0.645	-7.763	0.259
0.654	-7.765	0.256
0.661	-7.771	0.257
0.664	-7.778	0.261
0.661	-7.785	0.268
0.655	-7.787	0.274
0.646	-7.785	0.277
0.639	-7.779	0.276
0.636	-7.771	0.272
0.639	-7.765	0.265
0.446	-8.074	-0.110
0.454	-8.076	-0.113
0.461	-8.082	-0.112
0.464	-8.089	-0.107
0.461	-8.095	-0.100
0.454	-8.098	-0.094
0.445	-8.095	-0.092
0.439	-8.089	-0.093
0.436	-8.082	-0.098
0.439	-8.076	-0.105
1.076	-7.406	0.883
1.083	-7.404	0.889
1.087	-7.406	0.897
1.087	-7.413	0.904
1.083	-7.421	0.906
1.077	-7.428	0.904
1.071	-7.430	0.897
1.067	-7.427	0.889
1.066	-7.421	0.883
1.070	-7.413	0.880
1.699	-7.834	0.427
1.705	-7.832	0.433
1.708	-7.834	0.442
1.708	-7.840	0.448
1.704	-7.848	0.451
1.697	-7.855	0.449
1.692	-7.857	0.442
1.688	-7.855	0.434
1.689	-7.849	0.427
1.693	-7.841	0.424
2.319	-8.312	0.112
2.324	-8.310	0.119
2.327	-8.312	0.127
2.326	-8.318	0.134
2.322	-8.325	0.137
2.315	-8.332	0.134
2.310	-8.334	0.127
2.307	-8.332	0.119
2.308	-8.326	0.112
2.312	-8.319	0.109
1.117	-7.573	0.922
1.117	-7.567	0.930
1.114	-7.560	0.934
1.108	-7.553	0.932
1.102	-7.549	0.927
1.098	-7.550	0.918
1.098	-7.555	0.910
1.101	-7.562	0.906
1.107	-7.570	0.908
1.113	-7.573	0.913
0.486	-8.044	1.257
0.485	-8.040	1.265
0.481	-8.033	1.269
0.475	-8.026	1.268
0.470	-8.021	1.262
0.467	-8.021	1.253
0.468	-8.026	1.245
0.472	-8.033	1.241
0.478	-8.040	1.242
0.483	-8.044	1.248
0.072	-8.379	1.324
0.071	-8.376	1.332
0.066	-8.369	1.337
0.060	-8.362	1.335
0.055	-8.357	1.329
0.053	-8.357	1.320
0.055	-8.360	1.312
0.060	-8.367	1.307
0.066	-8.374	1.308
0.071	-8.379	1.315
0.289	-5.289	0.191
0.292	-5.282	0.196
0.290	-5.274	0.200
0.283	-5.267	0.200
0.274	-5.266	0.197
0.267	-5.269	0.192
0.264	-5.276	0.187
0.266	-5.284	0.184
0.273	-5.290	0.183
0.282	-5.292	0.186
-0.025	-5.679	0.906
-0.022	-5.672	0.911
-0.024	-5.664	0.914
-0.030	-5.657	0.914
-0.039	-5.655	0.911
-0.046	-5.658	0.906
-0.049	-5.665	0.901
-0.047	-5.674	0.897
-0.040	-5.680	0.897
-0.032	-5.682	0.900
-0.395	-6.013	1.573
-0.392	-6.006	1.579
-0.394	-5.998	1.582
-0.401	-5.992	1.582
-0.409	-5.989	1.579
-0.416	-5.992	1.573
-0.419	-5.999	1.568
-0.417	-6.008	1.565
-0.410	-6.014	1.565
-0.402	-6.016	1.568
-0.614	-6.281	2.008
-0.611	-6.274	2.014
-0.614	-6.266	2.017
-0.621	-6.259	2.018
-0.629	-6.257	2.015
-0.636	-6.260	2.009
-0.639	-6.267	2.004
-0.637	-6.275	2.000
-0.630	-6.281	2.000
-0.621	-6.284	2.003
1.135	-7.716	0.957
1.129	-7.709	0.958
1.126	-7.701	0.954
1.127	-7.695	0.947
1.132	-7.693	0.939
1.139	-7.696	0.934
1.145	-7.703	0.933
1.148	-7.711	0.937
1.147	-7.717	0.944
1.142	-7.719	0.952
0.574	-8.182	0.475
0.567	-8.175	0.476
0.563	-8.168	0.472
0.564	-8.161	0.465
0.570	-8.159	0.458
0.577	-8.161	0.453
0.584	-8.168	0.452
0.588	-8.175	0.456
0.586	-8.182	0.463
0.581	-8.184	0.470
0.267	-8.525	0.030
0.275	-8.526	0.026
0.282	-8.532	0.025
0.286	-8.540	0.029
0.285	-8.546	0.036
0.279	-8.549	0.042
0.271	-8.548	0.047
0.264	-8.542	0.047
0.260	-8.534	0.043
0.261	-8.528	0.037
1.176	-7.863	0.970
1.180	-7.855	0.973
1.179	-7.846	0.974
1.172	-7.839	0.974
1.164	-7.837	0.971
1.156	-7.840	0.967
1.152	-7.848	0.964
1.153	-7.857	0.962
1.160	-7.864	0.963
1.168	-7.866	0.966
0.871	-8.037	1.772
0.875	-8.029	1.776
0.873	-8.021	1.778
[...]
         <CellData>
           <DataArray type="Float32" Name="combinedRootClassID" NumberOfComponents="1" format="ascii">
 -1.300e+01 -1.300e+01 -1.300e+01 -1.300e+01 -1.300e+01 -1.300e+01 -1.300e+01 -1.300e+01 -1.300e+01 -1.300e+01 -1.300e+01 -1.300e+01 -1.300e+01 -1.300e+01 -1.300e+01 -1.300e+01 -1.300e+01 -1.300e+01 -1.300e+01 -1.300e+01 -1.300e+01 -1.300e+01 -1.300e+01 -1.300e+01 -1.300e+01 -1.300e+01 -1.300e+01 -1.300e+01 -1.300e+01 -1.300e+01 -1.300e+01 -1.300e+01 -1.300e+01 -1.300e+01 -1.300e+01 -1.300e+01 -1.300e+01 -1.300e+01 -1.300e+01 -1.300e+01 -1.300e+01 -1.300e+01 -1.300e+01 -1.300e+01 -1.300e+01 -1.300e+01 -1.300e+01 -1.300e+01 -1.300e+01 -1.300e+01 -1.300e+01 -1.300e+01 -1.300e+01 -1.300e+01 -1.300e+01 -1.300e+01 -1.300e+01 -1.300e+01 -1.300e+01 -1.300e+01 -1.300e+01 -1.300e+01 -1.300e+01 -1.300e+01 -1.300e+01 -1.300e+01 -1.300e+01 -1.300e+01 -1.300e+01 -1.300e+01 -1.300e+01 -1.300e+01 -1.300e+01 -1.300e+01 -1.300e+01 -1.300e+01 -1.300e+01 -1.300e+01 -1.300e+01 -1.300e+01 -1.300e+01 -1.300e+01 -1.300e+01 -1.300e+01 -1.300e+01 -1.300e+01 -1.300e+01 -1.300e+01 -1.300e+01 -1.300e+01 -1.300e+01 -1.300e+01 -1.300e+01 -1.300e+01 -1.300e+01 -1.300e+01 -1.300e+01 -1.300e+01 -1.300e+01 -1.300e+01 -1.300e+01 -1.300e+01 -1.300e+01 -1.300e+01 -1.300e+01 -1.300e+01 -1.300e+01 -1.300e+01 -1.300e+01 -1.300e+01 -1.300e+01 -1.300e+01 -1.300e+01 -1.300e+01 -1.300e+01 -1.300e+01 -1.300e+01 -1.300e+01 -1.300e+01 -1.300e+01 -1.300e+01 -1.300e+01 -1.300e+01 -1.300e+01 -1.300e+01 -1.300e+01 -1.300e+01 -1.300e+01 -1.300e+01 -1.300e+01 -1.300e+01 -1.300e+01 -1.300e+01 -1.300e+01 -1.300e+01 -1.300e+01 -1.300e+01 -1.300e+01 -1.300e+01 -1.300e+01 -1.300e+01 -1.300e+01 -1.300e+01 -1.300e+01 -1.300e+01 -1.300e+01 -1.300e+01 -1.300e+01 -1.300e+01 -1.300e+01 -5.000e+00 -5.000e+00 -5.000e+00 -5.000e+00 -5.000e+00 -5.000e+00 -5.000e+00 -5.000e+00 -5.000e+00 -5.000e+00 -5.000e+00 -5.000e+00 -5.000e+00 -5.000e+00 -5.000e+00 -5.000e+00 -5.000e+00 -5.000e+00 -5.000e+00 -5.000e+00 -5.000e+00 -5.000e+00 -5.000e+00 -5.000e+00 -5.000e+00 -5.000e+00 -5.000e+00 -5.000e+00 -1.300e+01 -1.300e+01 -1.300e+01 -1.300e+01 -1.300e+01 -1.300e+01 -1.300e+01 -1.300e+01 -1.300e+01 -1.300e+01 -1.300e+01 -1.300e+01 -1.300e+01 -1.300e+01 -1.300e+01 -1.300e+01 -1.300e+01 -1.300e+01 -1.300e+01 -1.300e+01 -1.300e+01 -1.300e+01 -1.300e+01 -1.300e+01 -1.300e+01 -1.300e+01 -1.300e+01 -1.300e+01 -1.300e+01 -1.300e+01 -1.300e+01 -1.300e+01 -1.300e+01 -1.300e+01 -1.300e+01 -1.300e+01 -1.300e+01 -1.300e+01 -1.300e+01 -1.300e+01 -1.300e+01 -1.300e+01 -1.300e+01 -1.300e+01 -1.300e+01 -1.300e+01 -1.300e+01 -1.300e+01 -1.300e+01 -1.300e+01 -1.300e+01 -1.300e+01 -1.300e+01 -1.300e+01 -1.300e+01 -1.300e+01 -1.300e+01 -1.300e+01 -1.300e+01 -1.300e+01 -1.300e+01 -1.300e+01 -1.300e+01 -1.300e+01 -1.300e+01 -1.300e+01 -1.300e+01 -1.300e+01 -1.300e+01 -1.300e+01 -1.300e+01 -1.300e+01 -1.300e+01 -1.300e+01 -1.300e+01 -1.300e+01 -1.300e+01 -1.300e+01 -1.300e+01 -1.300e+01 -1.300e+01 -1.300e+01 -1.300e+01 -1.300e+01 -1.300e+01 -1.300e+01 -1.300e+01 -1.300e+01 -1.300e+01 -1.300e+01 -1.300e+01 -1.300e+01 -1.300e+01 -1.300e+01 -1.300e+01 -1.300e+01 -1.300e+01 -1.300e+01 -1.300e+01 -1.300e+01 -1.300e+01 -1.300e+01 -1.300e+01 -1.300e+01 -1.300e+01 -1.300e+01 -1.300e+01 -1.300e+01 -1.300e+01 -1.300e+01 -1.300e+01 -1.300e+01 -1.300e+01 -1.300e+01 -1.300e+01 -1.300e+01 -1.300e+01 -1.300e+01 -1.300e+01 -1.300e+01 -1.300e+01 -1.300e+01 -1.300e+01 -1.300e+01 -1.300e+01 -1.300e+01 -1.300e+01 -1.300e+01 -1.300e+01 -1.300e+01 -1.300e+01 -1.300e+01 -1.300e+01 -1.300e+01 -1.300e+01 -1.300e+01 -1.300e+01 -1.300e+01 -1.300e+01 -1.300e+01 -1.300e+01 -1.300e+01 -1.300e+01 -1.300e+01 -1.300e+01 -1.300e+01 -1.300e+01 -1.300e+01 -1.300e+01 -1.300e+01 -1.300e+01 -5.000e+00 -5.000e+00 -5.000e+00 -5.000e+00 -5.000e+00 -5.000e+00 -5.000e+00 -5.000e+00 -5.000e+00 -5.000e+00 -5.000e+00 -5.000e+00 -5.000e+00 -5.000e+00 -5.000e+00 -5.000e+00 -5.000e+00 -5.000e+00 -5.000e+00 -5.000e+00 -5.000e+00 -5.000e+00 -5.000e+00 -5.000e+00 -5.000e+00 -5.000e+00 -5.000e+00 -5.000e+00 -1.300e+01 -1.300e+01 -1.300e+01 -1.300e+01 -1.300e+01 -1.300e+01 -1.300e+01 -1.300e+01 -1.300e+01 -1.300e+01 -1.300e+01 -1.300e+01 -1.300e+01 -1.300e+01 -1.300e+01 -1.300e+01 -1.300e+01 -1.300e+01 -1.300e+01 -1.300e+01 -1.300e+01 -1.300e+01 -1.300e+01 -1.300e+01 -1.300e+01 -1.300e+01 -1.300e+01 -1.300e+01 -1.300e+01 -1.300e+01 -1.300e+01 -1.300e+01 -1.300e+01 -1.300e+01 -1.300e+01 -1.300e+01 -1.300e+01 -1.300e+01 -1.300e+01 -1.300e+01 -1.300e+01 -1.300e+01 -1.300e+01 -1.300e+01 -1.300e+01 -1.300e+01 -1.300e+01 -1.300e+01 -1.300e+01 -1.300e+01 -1.300e+01 -1.300e+01 -1.300e+01 -1.300e+01 -1.300e+01 -1.300e+01 -1.300e+01 -1.300e+01 -1.300e+01 -1.300e+01 -1.300e+01 -1.300e+01 -1.300e+01 -1.300e+01 -1.300e+01 -1.300e+01 -1.300e+01 -1.300e+01 -1.300e+01 -1.300e+01 -1.300e+01 -1.300e+01 -1.300e+01 -1.300e+01 -1.300e+01 -1.300e+01 -1.300e+01 -1.300e+01 -1.300e+01 -1.300e+01 -1.300e+01 -1.300e+01 -1.300e+01 -1.300e+01 -1.300e+01 -1.300e+01 -1.300e+01 -1.300e+01 -1.300e+01 -1.300e+01 -1.300e+01 -1.300e+01 -1.300e+01 -1.300e+01 -1.300e+01 -1.300e+01 -1.300e+01 -1.300e+01 -1.300e+01 -1.300e+01 -1.300e+01 -1.300e+01 -1.300e+01 -1.300e+01 -1.300e+01 -1.300e+01 -1.300e+01 -1.300e+01 -1.300e+01 -1.300e+01 -1.300e+01 -1.300e+01 -1.300e+01 -1.300e+01 -1.300e+01 -1.300e+01 -1.300e+01 -1.300e+01 -1.300e+01 -1.300e+01 -1.300e+01 -1.300e+01 -1.300e+01 -1.300e+01 -1.300e+01 -1.300e+01 -1.300e+01 -1.300e+01 -1.300e+01 -1.300e+01 -1.300e+01 -1.300e+01 -1.300e+01 -1.300e+01 -1.300e+01 -1.300e+01 -1.300e+01 -1.300e+01 -1.300e+01 -1.300e+01 -1.300e+01 -1.300e+01 -1.300e+01 -1.300e+01 -1.300e+01 -1.300e+01 -5.000e+00 -5.000e+00 -5.000e+00 -5.000e+00 -5.000e+00 -5.000e+00 -5.000e+00 -5.000e+00 -5.000e+00 -5.000e+00 -5.000e+00 -5.000e+00 -5.000e+00 -5.000e+00 -5.000e+00 -5.000e+00 -5.000e+00 -5.000e+00 -5.000e+00 -5.000e+00 -5.000e+00 -5.000e+00 -5.000e+00 -5.000e+00 -5.000e+00 -5.000e+00 -5.000e+00 -5.000e+00 -1.300e+01 -1.300e+01 -1.300e+01 -1.300e+01 -1.300e+01 -1.300e+01 -1.300e+01 -1.300e+01 -1.300e+01 -1.300e+01 -1.300e+01 -1.300e+01 -1.300e+01 -1.300e+01 -1.300e+01 -1.300e+01 -1.300e+01 -1.300e+01 -1.300e+01 -1.300e+01 -1.300e+01 -1.300e+01 -1.300e+01 -1.300e+01 -1.300e+01 -1.300e+01 -1.300e+01 -1.300e+01 -1.300e+01 -1.300e+01 -1.300e+01 -1.300e+01 -1.300e+01 -1.300e+01 -1.300e+01 -1.300e+01 -1.300e+01 -1.300e+01 -1.300e+01 -1.300e+01 -1.300e+01 -1.300e+01 -1.300e+01 -1.300e+01 -1.300e+01 -1.300e+01 -1.300e+01 -1.300e+01 -1.300e+01 -1.300e+01 -1.300e+01 -1.300e+01 -1.300e+01 -1.300e+01 -1.300e+01 -1.300e+01 -1.300e+01 -1.300e+01 -1.300e+01 -1.300e+01 -1.300e+01 -1.300e+01 -1.300e+01 -1.300e+01 -1.300e+01 -1.300e+01 -1.300e+01 -1.300e+01 -1.300e+01 -1.300e+01 -1.300e+01 -1.300e+01 -1.300e+01 -1.300e+01 -1.300e+01 -1.300e+01 -1.300e+01 -1.300e+01 -1.300e+01 -1.300e+01 -1.300e+01 -1.300e+01 -1.300e+01 -1.300e+01 -1.300e+01 -1.300e+01 -1.300e+01 -1.300e+01 -1.300e+01 -1.300e+01 -1.300e+01 -1.300e+01 -1.300e+01 -1.300e+01 -1.300e+01 -1.300e+01 -1.300e+01 -1.300e+01 -1.300e+01 -1.300e+01 -1.300e+01 -1.300e+01 -1.300e+01 -1.300e+01 -1.300e+01 -1.300e+01 -1.300e+01 -1.300e+01 -1.300e+01 -1.300e+01 -1.300e+01 -1.300e+01 -1.300e+01 -1.300e+01 -1.300e+01 -1.300e+01 -1.300e+01 -1.300e+01 -1.300e+01 -1.300e+01 -1.300e+01 -1.300e+01 -1.300e+01 -1.300e+01 -1.300e+01 -1.300e+01 -1.300e+01 -1.300e+01 -1.300e+01 -1.300e+01 -1.300e+01 -1.300e+01 -1.300e+01 -1.300e+01 -1.300e+01 -1.300e+01 -1.300e+01 -1.300e+01 -1.300e+01 -1.300e+01 -1.300e+01 -1.300e+01 -1.300e+01 -1.300e+01 -1.300e+01 -1.300e+01 -1.300e+01 -1.300e+01 -1.300e+01 -1.300e+01 -5.000e+00 -5.000e+00 -5.000e+00 -5.000e+00 -5.000e+00 -5.000e+00 -5.000e+00 -5.000e+00 -5.000e+00 -5.000e+00 -5.000e+00 -5.000e+00 -5.000e+00 -5.000e+00 -5.000e+00 -5.000e+00 -5.000e+00 -5.000e+00 -5.000e+00 -5.000e+00 -5.000e+00 -5.000e+00 -5.000e+00 -5.000e+00 -5.000e+00 -5.000e+00 -5.000e+00 -5.000e+00 -1.900e+01 -1.900e+01 -1.900e+01 -1.900e+01 -1.900e+01 -1.900e+01 -1.900e+01 -1.900e+01 -1.900e+01 -1.900e+01 -1.900e+01 -1.900e+01 -1.900e+01 -1.900e+01 -1.900e+01 -1.900e+01 -1.900e+01 -1.900e+01 -1.900e+01 -1.900e+01 -1.100e+01 -1.100e+01 -1.100e+01 -1.100e+01 -1.100e+01 -1.100e+01 -1.100e+01 -1.100e+01 -1.100e+01 -1.100e+01 -1.100e+01 -1.100e+01 -1.100e+01 -1.100e+01 -1.100e+01 -1.100e+01 -1.100e+01 -1.900e+01 -1.900e+01 -1.900e+01 -1.900e+01 -1.900e+01 -1.900e+01 -1.900e+01 -1.900e+01 -1.900e+01 -1.900e+01 -1.900e+01 -1.900e+01 -1.900e+01 -1.900e+01 -1.900e+01 -1.900e+01 -1.900e+01 -1.900e+01 -1.900e+01 -1.900e+01 -1.100e+01 -1.100e+01 -1.100e+01 -1.100e+01 -1.100e+01 -1.100e+01 -1.100e+01 -1.100e+01 -1.100e+01 -1.100e+01 -1.100e+01 -1.100e+01 -1.100e+01 -1.100e+01 -1.100e+01 -1.100e+01 -1.100e+01 -1.900e+01 -1.900e+01 -1.900e+01 -1.900e+01 -1.900e+01 -1.900e+01 -1.900e+01 -1.900e+01 -1.900e+01 -1.900e+01 -1.900e+01 -1.900e+01 -1.900e+01 -1.900e+01 -1.900e+01 -1.900e+01 -1.900e+01 -1.900e+01 -1.900e+01 -1.900e+01 -1.100e+01 -1.100e+01 -1.100e+01 -1.100e+01 -1.100e+01 -1.100e+01 -1.100e+01 -1.100e+01 -1.100e+01 -1.100e+01 -1.100e+01 -1.100e+01 -1.100e+01 -1.100e+01 -1.100e+01 -1.100e+01 -1.100e+01 -1.900e+01 -1.900e+01 -1.900e+01 -1.900e+01 -1.900e+01 -1.900e+01 -1.900e+01 -1.900e+01 -1.900e+01 -1.900e+01 -1.900e+01 -1.900e+01 -1.900e+01 -1.900e+01 -1.900e+01 -1.900e+01 -1.900e+01 -1.900e+01 -1.900e+01 -1.900e+01 -1.100e+01 -1.100e+01 -1.100e+01 -1.100e+01 -1.100e+01 -1.100e+01 -1.100e+01 -1.100e+01 -1.100e+01 -1.100e+01 -1.100e+01 -1.100e+01 -1.100e+01 -1.100e+01 -1.100e+01 -1.100e+01 -1.100e+01 -2.000e+01 -2.000e+01 -2.000e+01 -2.000e+01 -2.000e+01 -2.000e+01 -2.000e+01 -2.000e+01 -2.000e+01 -2.000e+01 -2.000e+01 -2.000e+01 -2.000e+01 -2.000e+01 -2.000e+01 -2.000e+01 -2.000e+01 -2.000e+01 -2.000e+01 -2.000e+00 -2.000e+00 -2.000e+00 -2.000e+00 -2.000e+00 -2.000e+00 -2.000e+00 -2.000e+00 -2.000e+00 -2.000e+00 -1.500e+01 -1.500e+01 -7.000e+00 -7.000e+00 -7.000e+00 -7.000e+00 -7.000e+00 -7.000e+00 -1.500e+01 -7.000e+00 -7.000e+00 -7.000e+00 -7.000e+00 -7.000e+00 -7.000e+00 -1.500e+01 -1.500e+01 -1.500e+01 -7.000e+00 -7.000e+00 -7.000e+00 -7.000e+00 -7.000e+00 -7.000e+00 -7.000e+00 -7.000e+00 -7.000e+00 -7.000e+00 -7.000e+00 -7.000e+00 -7.000e+00 -7.000e+00 -7.000e+00 -7.000e+00 -7.000e+00 -7.000e+00 -7.000e+00 -7.000e+00 -7.000e+00 -7.000e+00 -7.000e+00 -7.000e+00 -7.000e+00 -7.000e+00 -7.000e+00 -7.000e+00 -7.000e+00 -7.000e+00 -7.000e+00 -1.500e+01 -7.000e+00 -7.000e+00 -7.000e+00 -7.000e+00 -7.000e+00 -7.000e+00 -7.000e+00 -7.000e+00 -7.000e+00 -7.000e+00 -7.000e+00 -7.000e+00 -7.000e+00 -7.000e+00 -7.000e+00 -7.000e+00 -7.000e+00 -7.000e+00 -7.000e+00 -7.000e+00 -7.000e+00 -7.000e+00 -7.000e+00 -7.000e+00 -7.000e+00 -7.000e+00 -1.500e+01 -1.500e+01 -7.000e+00 -7.000e+00 -7.000e+00 -7.000e+00 -7.000e+00 -7.000e+00 -7.000e+00 -7.000e+00 -7.000e+00 -7.000e+00 -7.000e+00 -7.000e+00 -7.000e+00 -7.000e+00 -7.000e+00 -7.000e+00 -7.000e+00 -7.000e+00 -7.000e+00 -7.000e+00 -7.000e+00 -7.000e+00 -7.000e+00 -7.000e+00 -7.000e+00 -7.000e+00 -1.500e+01 -7.000e+00 -7.000e+00 -7.000e+00 -7.000e+00 -7.000e+00 -7.000e+00 -7.000e+00 -7.000e+00 -7.000e+00 -7.000e+00 -7.000e+00 -7.000e+00 -7.000e+00 -7.000e+00 -7.000e+00 -7.000e+00 -7.000e+00 -7.000e+00 -1.500e+01 -7.000e+00 -7.000e+00 -7.000e+00 -7.000e+00 -7.000e+00 -7.000e+00 -7.000e+00 -7.000e+00 -7.000e+00 -7.000e+00 -7.000e+00 -7.000e+00 -7.000e+00 -7.000e+00 -7.000e+00 -7.000e+00 -1.500e+01 -7.000e+00 -7.000e+00 -7.000e+00 -7.000e+00 -7.000e+00 -7.000e+00 -7.000e+00 -7.000e+00 -7.000e+00 -7.000e+00 -7.000e+00 -7.000e+00 -7.000e+00 -7.000e+00 -7.000e+00 -7.000e+00 -7.000e+00 -7.000e+00 -7.000e+00 -7.000e+00 -1.500e+01 -1.500e+01 -7.000e+00 -7.000e+00 -7.000e+00 -7.000e+00 -7.000e+00 -7.000e+00 -7.000e+00 -7.000e+00 -7.000e+00 -7.000e+00 -7.000e+00 -1.500e+01 -7.000e+00 -7.000e+00 -7.000e+00 -7.000e+00 -7.000e+00 -7.000e+00 -1.500e+01 -1.500e+01 -7.000e+00 -7.000e+00 -7.000e+00 -7.000e+00 -7.000e+00 -7.000e+00 -7.000e+00 -7.000e+00 -7.000e+00 -7.000e+00 -7.000e+00 -7.000e+00 -1.500e+01 -7.000e+00 -7.000e+00 -7.000e+00 -7.000e+00 -7.000e+00 -7.000e+00 -7.000e+00 -7.000e+00 -7.000e+00 -7.000e+00 -7.000e+00 -7.000e+00 -1.500e+01 -7.000e+00 -7.000e+00 -7.000e+00 -7.000e+00 -7.000e+00 -7.000e+00 -1.500e+01 -1.500e+01 -7.000e+00 -7.000e+00 -7.000e+00 -7.000e+00 -7.000e+00 -7.000e+00 -1.500e+01 -7.000e+00 -7.000e+00 -7.000e+00 -7.000e+00 -7.000e+00 -7.000e+00 -7.000e+00 -7.000e+00 -7.000e+00 -7.000e+00 -7.000e+00 -7.000e+00 -7.000e+00 -7.000e+00 -7.000e+00 -7.000e+00 -7.000e+00 -7.000e+00 -7.000e+00 -7.000e+00 -7.000e+00 -7.000e+00 -7.000e+00 -7.000e+00 -7.000e+00 -7.000e+00 -1.500e+01 -1.500e+01 -1.500e+01 -7.000e+00 -7.000e+00 -7.000e+00 -7.000e+00 -7.000e+00 -7.000e+00 -7.000e+00 -7.000e+00 -7.000e+00 -7.000e+00 -7.000e+00 -7.000e+00 -7.000e+00 -7.000e+00 -7.000e+00 -7.000e+00 -1.500e+01 -7.000e+00 -7.000e+00 -7.000e+00 -7.000e+00 -7.000e+00 -7.000e+00 -7.000e+00 -7.000e+00 -7.000e+00 -7.000e+00 -7.000e+00 -7.000e+00 -7.000e+00 -7.000e+00 -7.000e+00 -7.000e+00 -7.000e+00 -7.000e+00 -7.000e+00 -7.000e+00 -7.000e+00 -7.000e+00 -7.000e+00 -7.000e+00 -7.000e+00 -7.000e+00 -7.000e+00 -7.000e+00 -7.000e+00 -7.000e+00 -7.000e+00 -7.000e+00 -7.000e+00 -7.000e+00 -7.000e+00 -7.000e+00 -7.000e+00 -7.000e+00 -7.000e+00 -1.500e+01 -7.000e+00 -7.000e+00 -7.000e+00 -7.000e+00 -7.000e+00 -7.000e+00 -7.000e+00 -7.000e+00 -7.000e+00 -7.000e+00 -7.000e+00 -7.000e+00 -7.000e+00 -7.000e+00 -7.000e+00 -7.000e+00 -7.000e+00 -7.000e+00 -7.000e+00 -1.500e+01 -7.000e+00 -7.000e+00 -7.000e+00 -7.000e+00 -7.000e+00 -7.000e+00 -7.000e+00 -7.000e+00 -7.000e+00 -7.000e+00 -7.000e+00 -7.000e+00 -7.000e+00 -7.000e+00 -7.000e+00 -7.000e+00 -7.000e+00 -7.000e+00 -7.000e+00 -7.000e+00 -7.000e+00 -7.000e+00 -7.000e+00 -7.000e+00 -7.000e+00 -7.000e+00 -7.000e+00 -7.000e+00 -7.000e+00 -7.000e+00 -7.000e+00 -7.000e+00 -7.000e+00 -7.000e+00 -1.500e+01 -1.500e+01 -7.000e+00 -7.000e+00 -7.000e+00 -7.000e+00 -7.000e+00 -7.000e+00 -7.000e+00 -7.000e+00 -7.000e+00 -7.000e+00 -7.000e+00 -7.000e+00 -7.000e+00 -7.000e+00 -7.000e+00 -7.000e+00 -7.000e+00 -7.000e+00 -7.000e+00 -7.000e+00 -7.000e+00 -7.000e+00 -7.000e+00 -7.000e+00 -7.000e+00 -7.000e+00 -7.000e+00 -7.000e+00 -7.000e+00 -7.000e+00 -7.000e+00 -7.000e+00 -7.000e+00 -7.000e+00 -7.000e+00 -7.000e+00 -7.000e+00 -7.000e+00 -7.000e+00 -7.000e+00 -7.000e+00 -7.000e+00 -7.000e+00 -7.000e+00 -7.000e+00 -7.000e+00 -7.000e+00 -7.000e+00 -7.000e+00 -7.000e+00 -1.500e+01 -7.000e+00 -7.000e+00 -7.000e+00 -7.000e+00 -7.000e+00 -7.000e+00 -7.000e+00 -7.000e+00 -7.000e+00 -7.000e+00 -7.000e+00 -7.000e+00 -7.000e+00 -7.000e+00 -7.000e+00 -7.000e+00 -7.000e+00 -7.000e+00 -7.000e+00 -7.000e+00 -7.000e+00 -7.000e+00 -7.000e+00 -7.000e+00 -7.000e+00 -7.000e+00 -7.000e+00 -7.000e+00 -7.000e+00 -7.000e+00 -7.000e+00 -7.000e+00 -7.000e+00 -7.000e+00 -7.000e+00 -7.000e+00 -7.000e+00 -7.000e+00 -7.000e+00 -7.000e+00 -7.000e+00 -7.000e+00 -7.000e+00 -7.000e+00 -7.000e+00 -7.000e+00 -1.500e+01 -1.500e+01 -1.500e+01 -7.000e+00 -7.000e+00 -7.000e+00 -7.000e+00 -7.000e+00 -7.000e+00 -7.000e+00 -7.000e+00 -7.000e+00 -7.000e+00 -7.000e+00 -7.000e+00 -7.000e+00 -7.000e+00 -7.000e+00 -7.000e+00 -7.000e+00 -7.000e+00 -7.000e+00 -7.000e+00 -7.000e+00 -7.000e+00 -7.000e+00 -7.000e+00 -7.000e+00 -7.000e+00 -7.000e+00 -7.000e+00 -7.000e+00 -7.000e+00 -7.000e+00 -7.000e+00 -7.000e+00 -7.000e+00 -7.000e+00 -7.000e+00 -7.000e+00 -7.000e+00 -7.000e+00 -7.000e+00 -7.000e+00 -7.000e+00 -7.000e+00 -7.000e+00 -7.000e+00 -1.500e+01 -7.000e+00 -7.000e+00 -7.000e+00 -7.000e+00 -7.000e+00 -7.000e+00 -7.000e+00 -7.000e+00 -7.000e+00 -7.000e+00 -7.000e+00 -7.000e+00 -7.000e+00 -7.000e+00 -7.000e+00 -7.000e+00 -7.000e+00 -7.000e+00 -7.000e+00 -7.000e+00 -7.000e+00 -7.000e+00 -7.000e+00 -7.000e+00 -7.000e+00 -7.000e+00 -7.000e+00 -7.000e+00 -7.000e+00 -7.000e+00 -7.000e+00 -7.000e+00 -7.000e+00 -7.000e+00 -7.000e+00 -7.000e+00 -7.000e+00 -7.000e+00 -1.500e+01 -7.000e+00 -7.000e+00 -7.000e+00 -7.000e+00 -7.000e+00 -7.000e+00 -7.000e+00 -7.000e+00 -7.000e+00 -7.000e+00 -7.000e+00 -7.000e+00 -7.000e+00 -7.000e+00 -7.000e+00 -7.000e+00 -7.000e+00 -7.000e+00 -7.000e+00 -7.000e+00 -7.000e+00 -7.000e+00 -7.000e+00 -7.000e+00 -7.000e+00 -7.000e+00 -7.000e+00 -7.000e+00 -7.000e+00 -7.000e+00 -7.000e+00 -7.000e+00 -7.000e+00 -7.000e+00 -1.700e+01 -1.700e+01 -1.700e+01 -9.000e+00 -9.000e+00 -9.000e+00 -9.000e+00 -9.000e+00 -9.000e+00 -9.000e+00 -1.700e+01 -9.000e+00 -9.000e+00 -9.000e+00 -9.000e+00 -9.000e+00 -9.000e+00 -9.000e+00 -9.000e+00 -9.000e+00 -9.000e+00 -9.000e+00 -9.000e+00 -9.000e+00 -9.000e+00 -4.000e+00 -4.000e+00 -4.000e+00 -4.000e+00 -4.000e+00 -4.000e+00 -4.000e+00 -4.000e+00 -4.000e+00 -4.000e+00 -4.000e+00 -4.000e+00 -4.000e+00 -4.000e+00 -4.000e+00 -4.000e+00 -4.000e+00 -4.000e+00 -4.000e+00 -4.000e+00 -4.000e+00 -4.000e+00 -4.000e+00 -4.000e+00 -4.000e+00 -4.000e+00 -4.000e+00 -4.000e+00 -4.000e+00 -4.000e+00 -4.000e+00 -4.000e+00 -4.000e+00 -4.000e+00 -4.000e+00 -4.000e+00
           </DataArray>
           <DataArray type="Float32" Name="nitrate/minimalNutrientConcentration" NumberOfComponents="1" format="ascii">