<?xml version="1.0"?>
<VTKFile type="UnstructuredGrid" version="0.1" byte_order="LittleEndian">
   <UnstructuredGrid>
      <Piece NumberOfPoints="74170" NumberOfCells="5475">
         <Points>
            <DataArray type="Float32" Name="Position" NumberOfComponents="3" format="ascii">
0.118	-5.061	0.060
0.116	-5.053	0.064
0.111	-5.049	0.071
0.106	-5.050	0.078
0.101	-5.056	0.083
0.099	-5.065	0.083
0.101	-5.074	0.080
0.105	-5.078	0.073
0.111	-5.077	0.066
0.116	-5.070	0.061
0.788	-5.158	0.599
0.786	-5.150	0.603
0.781	-5.147	0.610
0.776	-5.149	0.618
0.772	-5.156	0.622
0.771	-5.165	0.623
0.773	-5.173	0.618
0.777	-5.176	0.611
0.783	-5.174	0.603
0.787	-5.167	0.599
1.553	-5.232	1.023
1.551	-5.225	1.028
1.547	-5.222	1.036
1.542	-5.224	1.043
1.539	-5.232	1.047
1.538	-5.241	1.047
1.540	-5.248	1.042
1.544	-5.252	1.034
1.549	-5.249	1.027
1.552	-5.241	1.022
2.286	-5.356	1.489
2.285	-5.347	1.493
2.281	-5.343	1.500
2.275	-5.344	1.507
2.269	-5.350	1.511
2.267	-5.359	1.512
2.268	-5.367	1.508
2.272	-5.372	1.501
2.278	-5.371	1.494
2.284	-5.365	1.490
2.865	-5.568	2.112
2.866	-5.560	2.115
2.861	-5.553	2.121
2.854	-5.552	2.126
2.847	-5.556	2.130
2.842	-5.563	2.131
2.841	-5.572	2.128
2.846	-5.579	2.123
2.853	-5.580	2.117
2.860	-5.576	2.113
2.912	-5.605	2.200
2.913	-5.596	2.203
2.909	-5.590	2.208
2.902	-5.587	2.213
2.893	-5.590	2.216
2.888	-5.597	2.216
2.886	-5.606	2.213
2.890	-5.613	2.208
2.897	-5.615	2.203
2.906	-5.612	2.200
0.193	-5.154	0.126
0.199	-5.151	0.133
0.205	-5.154	0.139
0.208	-5.162	0.144
0.207	-5.171	0.144
0.203	-5.178	0.140
0.197	-5.181	0.134
0.192	-5.178	0.127
0.189	-5.171	0.123
0.189	-5.162	0.122
0.851	-5.216	-0.454
0.857	-5.213	-0.447
0.862	-5.216	-0.439
0.865	-5.224	-0.435
0.864	-5.233	-0.434
0.860	-5.241	-0.438
0.855	-5.243	-0.445
0.850	-5.241	-0.453
0.847	-5.233	-0.457
0.848	-5.224	-0.458
1.598	-5.285	-0.902
1.602	-5.282	-0.894
1.606	-5.285	-0.886
1.607	-5.292	-0.881
1.606	-5.301	-0.880
1.603	-5.309	-0.884
1.599	-5.312	-0.891
1.595	-5.309	-0.899
1.594	-5.302	-0.905
1.595	-5.293	-0.906
2.401	-5.483	-1.212
2.405	-5.480	-1.204
2.408	-5.482	-1.196
2.408	-5.488	-1.189
2.406	-5.497	-1.188
2.402	-5.505	-1.191
2.398	-5.508	-1.199
2.395	-5.506	-1.207
2.395	-5.499	-1.214
2.397	-5.491	-1.215
3.158	-5.783	-1.549
3.163	-5.781	-1.543
3.168	-5.783	-1.535
3.170	-5.791	-1.529
3.168	-5.800	-1.528
3.164	-5.807	-1.532
3.159	-5.810	-1.539
3.154	-5.807	-1.547
3.152	-5.800	-1.552
3.154	-5.791	-1.553
3.325	-5.792	-1.708
3.331	-5.789	-1.702
3.337	-5.792	-1.696
3.341	-5.800	-1.692
3.340	-5.809	-1.691
3.336	-5.816	-1.695
3.330	-5.819	-1.702
3.324	-5.816	-1.708
3.321	-5.809	-1.712
3.321	-5.799	-1.712
0.759	-6.295	0.578
0.766	-6.300	0.581
0.769	-6.306	0.588
0.766	-6.311	0.596
0.759	-6.312	0.601
0.750	-6.310	0.602
0.743	-6.305	0.599
0.740	-6.299	0.593
0.743	-6.295	0.585
0.750	-6.293	0.580
0.525	-6.972	0.073
0.532	-6.977	0.077
0.534	-6.982	0.085
0.530	-6.986	0.092
0.522	-6.987	0.097
0.513	-6.984	0.098
0.507	-6.979	0.094
0.505	-6.973	0.086
0.509	-6.969	0.079
0.517	-6.969	0.074
0.278	-7.683	-0.357
0.282	-7.686	-0.350
0.282	-7.688	-0.341
0.276	-7.689	-0.334
0.267	-7.688	-0.331
0.258	-7.686	-0.335
0.253	-7.684	-0.342
0.254	-7.682	-0.351
0.260	-7.681	-0.358
0.269	-7.682	-0.361
0.331	-8.512	-0.307
0.336	-8.510	-0.299
0.336	-8.510	-0.290
0.330	-8.512	-0.283
0.322	-8.515	-0.280
0.314	-8.518	-0.283
0.309	-8.520	-0.291
0.310	-8.520	-0.300
0.315	-8.518	-0.308
0.323	-8.515	-0.310
0.877	-9.189	-0.329
0.881	-9.185	-0.321
0.880	-9.184	-0.312
0.876	-9.187	-0.305
0.869	-9.193	-0.302
0.863	-9.199	-0.305
0.859	-9.203	-0.312
0.860	-9.204	-0.321
0.864	-9.201	-0.329
0.871	-9.195	-0.332
0.901	-9.212	-0.321
0.904	-9.207	-0.314
0.903	-9.206	-0.305
0.898	-9.208	-0.298
0.891	-9.214	-0.295
0.886	-9.221	-0.297
0.883	-9.226	-0.304
0.884	-9.228	-0.313
0.889	-9.225	-0.321
0.896	-9.219	-0.324
2.036	-19.606	1.607
2.037	-19.601	1.615
2.037	-19.601	1.624
2.036	-19.607	1.631
2.034	-19.616	1.634
2.032	-19.624	1.630
2.031	-19.629	1.622
2.031	-19.629	1.613
2.033	-19.623	1.606
2.035	-19.614	1.604
2.889	-19.792	1.603
2.890	-19.787	1.611
2.890	-19.787	1.620
2.889	-19.793	1.627
2.887	-19.802	1.629
2.885	-19.810	1.626
2.884	-19.815	1.618
2.884	-19.815	1.609
2.885	-19.809	1.602
2.887	-19.800	1.599
3.625	-19.957	1.601
3.626	-19.952	1.609
3.626	-19.953	1.619
3.625	-19.958	1.626
3.623	-19.967	1.628
3.621	-19.976	1.624
3.620	-19.980	1.617
3.620	-19.980	1.607
3.621	-19.974	1.600
3.623	-19.965	1.598
2.040	-19.757	1.601
2.040	-19.751	1.608
2.038	-19.751	1.617
2.036	-19.756	1.625
2.034	-19.764	1.627
2.033	-19.773	1.625
2.033	-19.779	1.617
2.035	-19.779	1.608
2.037	-19.774	1.601
2.039	-19.765	1.598
2.886	-19.895	1.771
2.887	-19.890	1.779
2.887	-19.891	1.788
2.885	-19.896	1.795
2.883	-19.905	1.798
2.880	-19.913	1.794
2.879	-19.918	1.787
2.880	-19.918	1.777
2.881	-19.912	1.770
2.884	-19.904	1.768
3.726	-20.230	1.649
3.729	-20.226	1.657
3.730	-20.227	1.666
3.729	-20.233	1.673
3.725	-20.241	1.676
3.721	-20.249	1.672
3.718	-20.253	1.665
3.717	-20.252	1.656
3.719	-20.246	1.648
3.722	-20.238	1.646
4.267	-20.493	1.556
4.270	-20.489	1.564
4.271	-20.489	1.573
4.270	-20.495	1.580
4.266	-20.503	1.583
4.262	-20.511	1.580
4.259	-20.515	1.572
4.258	-20.514	1.563
4.259	-20.508	1.556
4.263	-20.500	1.553
2.050	-19.925	1.606
2.053	-19.917	1.610
2.051	-19.909	1.614
2.044	-19.903	1.614
2.035	-19.901	1.612
2.027	-19.905	1.608
2.024	-19.912	1.603
2.026	-19.920	1.600
2.033	-19.927	1.599
2.042	-19.928	1.601
1.799	-20.295	2.355
1.802	-20.288	2.360
1.799	-20.280	2.364
1.793	-20.274	2.365
1.784	-20.272	2.362
1.776	-20.275	2.358
1.774	-20.282	2.352
1.776	-20.290	2.348
1.783	-20.296	2.347
1.792	-20.298	2.350
1.500	-20.783	3.006
1.502	-20.778	3.013
1.499	-20.771	3.019
1.492	-20.766	3.021
1.483	-20.765	3.019
1.476	-20.767	3.013
1.473	-20.772	3.006
1.476	-20.779	3.000
1.484	-20.784	2.998
1.493	-20.786	3.000
1.387	-21.204	3.262
1.389	-21.200	3.270
1.386	-21.195	3.277
1.379	-21.190	3.281
1.370	-21.189	3.279
1.363	-21.191	3.273
1.360	-21.195	3.265
1.363	-21.200	3.258
1.371	-21.204	3.255
1.380	-21.206	3.256
2.027	-20.054	1.601
2.034	-20.051	1.597
2.043	-20.053	1.595
2.049	-20.059	1.595
2.051	-20.068	1.598
2.047	-20.075	1.602
2.040	-20.079	1.606
2.031	-20.077	1.608
2.024	-20.070	1.608
2.023	-20.061	1.605
1.757	-20.343	0.834
1.764	-20.340	0.829
1.772	-20.342	0.826
1.779	-20.348	0.826
1.781	-20.357	0.829
1.778	-20.364	0.834
1.771	-20.367	0.839
1.763	-20.365	0.842
1.756	-20.359	0.842
1.754	-20.350	0.839
1.341	-20.715	0.155
1.348	-20.712	0.150
1.357	-20.714	0.147
1.363	-20.721	0.147
1.365	-20.729	0.150
1.362	-20.736	0.156
1.354	-20.739	0.161
1.346	-20.736	0.164
1.339	-20.730	0.163
1.338	-20.721	0.160
1.135	-20.973	-0.358
1.143	-20.971	-0.362
1.151	-20.974	-0.364
1.157	-20.981	-0.363
1.158	-20.989	-0.359
1.154	-20.996	-0.354
1.146	-20.998	-0.350
1.137	-20.995	-0.348
1.131	-20.988	-0.349
1.130	-20.979	-0.353
2.034	-20.204	1.585
2.039	-20.200	1.593
2.041	-20.202	1.602
2.041	-20.209	1.608
2.039	-20.218	1.610
2.035	-20.225	1.606
2.030	-20.229	1.599
2.028	-20.227	1.590
2.028	-20.220	1.584
2.030	-20.211	1.582
2.806	-20.496	1.281
2.810	-20.492	1.288
2.811	-20.493	1.297
2.809	-20.499	1.304
2.805	-20.507	1.307
2.801	-20.514	1.304
2.797	-20.518	1.296
2.796	-20.517	1.287
2.797	-20.512	1.280
2.801	-20.503	1.278
3.494	-21.007	1.276
3.497	-21.002	1.284
3.496	-21.001	1.293
3.492	-21.005	1.301
3.486	-21.011	1.304
3.480	-21.018	1.301
3.477	-21.022	1.294
3.478	-21.023	1.284
3.482	-21.020	1.277
3.488	-21.014	1.274
3.714	-21.252	1.355
3.717	-21.247	1.362
3.716	-21.245	1.371
3.711	-21.247	1.378
3.704	-21.252	1.381
3.698	-21.259	1.379
3.695	-21.264	1.371
3.696	-21.266	1.362
3.701	-21.263	1.355
3.708	-21.258	1.352
2.030	-20.353	1.582
2.035	-20.350	1.588
2.039	-20.353	1.596
2.041	-20.360	1.602
2.039	-20.369	1.603
2.034	-20.376	1.600
2.029	-20.379	1.593
2.025	-20.376	1.585
2.023	-20.369	1.580
2.025	-20.360	1.578
2.715	-20.574	1.131
2.723	-20.571	1.137
2.729	-20.575	1.143
2.732	-20.582	1.148
2.730	-20.591	1.149
2.724	-20.598	1.147
2.717	-20.601	1.141
2.711	-20.597	1.135
2.708	-20.590	1.131
2.710	-20.581	1.129
3.037	-20.737	0.386
3.046	-20.735	0.387
3.054	-20.737	0.389
3.059	-20.745	0.392
3.059	-20.754	0.393
3.053	-20.761	0.393
3.045	-20.764	0.392
3.036	-20.761	0.390
3.031	-20.754	0.388
3.031	-20.745	0.386
3.034	-20.761	0.321
3.042	-20.761	0.325
3.051	-20.761	0.324
3.058	-20.761	0.317
3.059	-20.761	0.308
3.055	-20.761	0.300
3.046	-20.761	0.295
3.037	-20.761	0.297
3.031	-20.761	0.303
3.029	-20.761	0.313
2.038	-20.526	1.590
2.040	-20.519	1.597
2.038	-20.511	1.599
2.033	-20.503	1.597
2.026	-20.500	1.592
2.021	-20.503	1.584
2.019	-20.509	1.578
2.021	-20.518	1.576
2.026	-20.525	1.578
2.033	-20.528	1.583
1.434	-20.834	2.134
1.435	-20.828	2.141
1.432	-20.820	2.144
1.426	-20.813	2.142
1.421	-20.809	2.136
1.417	-20.811	2.128
1.416	-20.817	2.121
1.419	-20.825	2.118
1.424	-20.832	2.120
1.430	-20.836	2.126
0.726	-21.281	2.348
0.725	-21.275	2.356
0.721	-21.267	2.358
0.716	-21.260	2.355
0.713	-21.256	2.348
0.712	-21.256	2.338
0.714	-21.262	2.331
0.718	-21.270	2.328
0.722	-21.277	2.332
0.726	-21.281	2.339
0.596	-21.338	2.348
0.594	-21.332	2.355
0.590	-21.323	2.356
0.587	-21.316	2.352
0.585	-21.312	2.344
0.586	-21.313	2.335
0.588	-21.319	2.328
0.592	-21.327	2.327
0.595	-21.335	2.331
0.597	-21.339	2.339
2.035	-20.660	1.572
2.035	-20.653	1.578
2.031	-20.650	1.586
2.027	-20.652	1.593
2.022	-20.660	1.597
2.020	-20.668	1.596
2.020	-20.676	1.590
2.023	-20.679	1.582
2.028	-20.676	1.575
2.033	-20.669	1.571
2.747	-20.908	1.958
2.747	-20.900	1.963
2.744	-20.895	1.970
2.737	-20.895	1.976
2.730	-20.900	1.980
2.726	-20.908	1.980
2.726	-20.917	1.975
2.729	-20.922	1.968
2.736	-20.921	1.962
2.743	-20.916	1.958
3.111	-21.311	2.631
3.113	-21.303	2.635
3.110	-21.297	2.641
3.103	-21.295	2.647
3.094	-21.298	2.649
3.088	-21.304	2.648
3.086	-21.312	2.643
3.089	-21.318	2.637
3.096	-21.320	2.632
3.105	-21.318	2.630
3.207	-21.469	2.826
3.209	-21.462	2.831
3.205	-21.456	2.837
3.198	-21.454	2.843
3.189	-21.456	2.845
3.183	-21.462	2.843
3.181	-21.470	2.838
3.184	-21.476	2.832
3.191	-21.478	2.826
[...]
         <CellData>
           <DataArray type="Float32" Name="combinedRootClassID" NumberOfComponents="1" format="ascii">
 -1.300e+01 -1.300e+01 -1.300e+01 -1.300e+01 -1.300e+01 -1.300e+01 -1.300e+01 -1.300e+01 -1.300e+01 -1.300e+01 -1.300e+01 -1.300e+01 -1.300e+01 -1.300e+01 -1.300e+01 -1.300e+01 -1.300e+01 -1.300e+01 -1.300e+01 -1.300e+01 -1.300e+01 -1.300e+01 -1.300e+01 -1.300e+01 -1.300e+01 -1.300e+01 -1.300e+01 -1.300e+01 -1.300e+01 -1.300e+01 -1.300e+01 -1.300e+01 -1.300e+01 -1.300e+01 -1.300e+01 -1.300e+01 -1.300e+01 -1.300e+01 -1.300e+01 -1.300e+01 -1.300e+01 -1.300e+01 -1.300e+01 -1.300e+01 -1.300e+01 -1.300e+01 -1.300e+01 -1.300e+01 -1.300e+01 -1.300e+01 -1.300e+01 -1.300e+01 -1.300e+01 -1.300e+01 -1.300e+01 -1.300e+01 -1.300e+01 -1.300e+01 -1.300e+01 -1.300e+01 -1.300e+01 -1.300e+01 -1.300e+01 -1.300e+01 -1.300e+01 -1.300e+01 -1.300e+01 -1.300e+01 -1.300e+01 -1.300e+01 -1.300e+01 -1.300e+01 -1.300e+01 -1.300e+01 -1.300e+01 -1.300e+01 -1.300e+01 -1.300e+01 -1.300e+01 -1.300e+01 -1.300e+01 -1.300e+01 -1.300e+01 -1.300e+01 -1.300e+01 -1.300e+01 -1.300e+01 -1.300e+01 -1.300e+01 -1.300e+01 -1.300e+01 -1.300e+01 -1.300e+01 -1.300e+01 -1.300e+01 -1.300e+01 -1.300e+01 -1.300e+01 -1.300e+01 -1.300e+01 -1.300e+01 -1.300e+01 -1.300e+01 -1.300e+01 -1.300e+01 -1.300e+01 -1.300e+01 -1.300e+01 -1.300e+01 -1.300e+01 -1.300e+01 -1.300e+01 -1.300e+01 -1.300e+01 -1.300e+01 -1.300e+01 -1.300e+01 -1.300e+01 -1.300e+01 -1.300e+01 -1.300e+01 -1.300e+01 -1.300e+01 -1.300e+01 -1.300e+01 -1.300e+01 -1.300e+01 -1.300e+01 -1.300e+01 -1.300e+01 -1.300e+01 -1.300e+01 -1.300e+01 -1.300e+01 -1.300e+01 -1.300e+01 -1.300e+01 -1.300e+01 -1.300e+01 -1.300e+01 -1.300e+01 -1.300e+01 -1.300e+01 -1.300e+01 -1.300e+01 -1.300e+01 -1.300e+01 -1.300e+01 -1.300e+01 -1.300e+01 -1.300e+01 -1.300e+01 -1.300e+01 -1.300e+01 -1.300e+01 -1.300e+01 -1.300e+01 -1.300e+01 -1.300e+01 -1.300e+01 -1.300e+01 -1.300e+01 -1.300e+01 -1.300e+01 -1.300e+01 -1.300e+01 -1.300e+01 -1.300e+01 -1.300e+01 -1.300e+01 -1.300e+01 -1.300e+01 -1.300e+01 -1.300e+01 -1.300e+01 -1.300e+01 -1.300e+01 -1.300e+01 -1.300e+01 -1.300e+01 -1.300e+01 -1.300e+01 -1.300e+01 -1.300e+01 -1.300e+01 -1.300e+01 -1.300e+01 -1.300e+01 -1.300e+01 -1.300e+01 -1.300e+01 -1.300e+01 -1.300e+01 -1.300e+01 -1.300e+01 -1.300e+01 -1.300e+01 -1.300e+01 -1.300e+01 -1.300e+01 -1.300e+01 -1.300e+01 -1.300e+01 -1.300e+01 -1.300e+01 -1.300e+01 -1.300e+01 -1.300e+01 -1.300e+01 -1.300e+01 -1.300e+01 -1.300e+01 -1.300e+01 -1.300e+01 -1.300e+01 -1.300e+01 -1.300e+01 -1.300e+01 -1.300e+01 -1.300e+01 -1.300e+01 -1.300e+01 -1.300e+01 -1.300e+01 -1.300e+01 -1.300e+01 -1.300e+01 -1.300e+01 -1.300e+01 -1.300e+01 -1.300e+01 -1.300e+01 -1.300e+01 -1.300e+01 -1.300e+01 -1.300e+01 -1.300e+01 -1.300e+01 -1.300e+01 -1.300e+01 -1.300e+01 -1.300e+01 -1.300e+01 -1.300e+01 -1.300e+01 -1.300e+01 -1.300e+01 -1.300e+01 -1.300e+01 -1.300e+01 -1.300e+01 -1.300e+01 -1.300e+01 -1.300e+01 -1.300e+01 -1.300e+01 -1.300e+01 -1.300e+01 -1.300e+01 -1.300e+01 -1.300e+01 -1.300e+01 -1.300e+01 -1.300e+01 -1.300e+01 -1.300e+01 -1.300e+01 -1.300e+01 -1.300e+01 -1.300e+01 -1.300e+01 -1.300e+01 -1.300e+01 -1.300e+01 -1.300e+01 -1.300e+01 -1.300e+01 -1.300e+01 -1.300e+01 -1.300e+01 -1.300e+01 -1.300e+01 -1.300e+01 -1.300e+01 -1.300e+01 -1.300e+01 -1.300e+01 -1.300e+01 -1.300e+01 -1.300e+01 -1.300e+01 -1.300e+01 -1.300e+01 -1.300e+01 -1.300e+01 -1.300e+01 -1.300e+01 -1.300e+01 -1.300e+01 -1.300e+01 -1.300e+01 -1.300e+01 -1.300e+01 -1.300e+01 -1.300e+01 -1.300e+01 -1.300e+01 -1.300e+01 -1.300e+01 -1.300e+01 -1.300e+01 -1.300e+01 -1.300e+01 -1.300e+01 -1.300e+01 -1.300e+01 -1.300e+01 -1.300e+01 -1.300e+01 -1.300e+01 -1.300e+01 -1.300e+01 -1.300e+01 -1.300e+01 -1.300e+01 -1.300e+01 -1.300e+01 -1.300e+01 -1.300e+01 -1.300e+01 -1.300e+01 -1.300e+01 -1.300e+01 -1.300e+01 -1.300e+01 -1.300e+01 -1.300e+01 -1.300e+01 -1.300e+01 -1.300e+01 -1.300e+01 -1.300e+01 -1.300e+01 -1.300e+01 -1.300e+01 -1.300e+01 -1.300e+01 -1.300e+01 -1.300e+01 -1.300e+01 -1.300e+01 -1.300e+01 -1.300e+01 -1.300e+01 -1.300e+01 -1.300e+01 -1.300e+01 -1.300e+01 -1.300e+01 -1.300e+01 -1.300e+01 -1.300e+01 -1.300e+01 -1.300e+01 -1.300e+01 -1.300e+01 -1.300e+01 -1.300e+01 -1.300e+01 -1.300e+01 -1.300e+01 -1.300e+01 -1.300e+01 -1.300e+01 -1.300e+01 -1.300e+01 -1.300e+01 -1.300e+01 -1.300e+01 -1.300e+01 -1.300e+01 -1.300e+01 -1.300e+01 -1.300e+01 -1.300e+01 -1.300e+01 -1.300e+01 -1.300e+01 -1.300e+01 -1.300e+01 -1.300e+01 -1.300e+01 -1.300e+01 -1.300e+01 -1.300e+01 -1.300e+01 -1.300e+01 -1.300e+01 -1.300e+01 -1.300e+01 -1.300e+01 -1.300e+01 -1.300e+01 -1.300e+01 -1.300e+01 -1.300e+01 -1.300e+01 -1.300e+01 -1.300e+01 -1.300e+01 -1.300e+01 -1.300e+01 -1.300e+01 -1.300e+01 -1.300e+01 -1.300e+01 -1.300e+01 -1.300e+01 -1.300e+01 -1.300e+01 -1.300e+01 -1.300e+01 -1.300e+01 -1.300e+01 -1.300e+01 -1.300e+01 -1.300e+01 -1.300e+01 -1.300e+01 -1.300e+01 -1.300e+01 -1.300e+01 -1.300e+01 -1.300e+01 -1.300e+01 -1.300e+01 -1.300e+01 -1.300e+01 -1.300e+01 -1.300e+01 -1.300e+01 -1.300e+01 -1.300e+01 -1.300e+01 -1.300e+01 -1.300e+01 -1.300e+01 -1.300e+01 -1.300e+01 -1.300e+01 -1.300e+01 -1.300e+01 -1.300e+01 -1.300e+01 -1.300e+01 -1.300e+01 -1.300e+01 -1.300e+01 -1.300e+01 -1.300e+01 -1.300e+01 -1.300e+01 -1.300e+01 -1.300e+01 -1.300e+01 -1.300e+01 -1.300e+01 -1.300e+01 -1.300e+01 -1.300e+01 -1.300e+01 -1.300e+01 -1.300e+01 -1.300e+01 -1.300e+01 -1.300e+01 -1.300e+01 -1.300e+01 -1.300e+01 -1.300e+01 -1.300e+01 -1.300e+01 -1.300e+01 -1.300e+01 -1.300e+01 -1.300e+01 -1.300e+01 -1.300e+01 -1.300e+01 -1.300e+01 -1.300e+01 -1.300e+01 -1.300e+01 -1.300e+01 -1.300e+01 -1.300e+01 -1.300e+01 -1.300e+01 -1.300e+01 -1.300e+01 -1.300e+01 -1.300e+01 -1.300e+01 -1.300e+01 -1.300e+01 -1.300e+01 -1.300e+01 -1.300e+01 -1.300e+01 -1.300e+01 -1.300e+01 -1.300e+01 -1.300e+01 -1.300e+01 -1.300e+01 -1.300e+01 -1.300e+01 -1.300e+01 -1.300e+01 -1.300e+01 -1.300e+01 -1.300e+01 -1.300e+01 -1.300e+01 -1.300e+01 -1.300e+01 -1.300e+01 -1.300e+01 -1.300e+01 -1.300e+01 -1.300e+01 -1.300e+01 -1.300e+01 -1.300e+01 -1.300e+01 -1.300e+01 -1.300e+01 -1.300e+01 -1.300e+01 -1.300e+01 -1.300e+01 -1.300e+01 -1.300e+01 -1.300e+01 -1.300e+01 -1.300e+01 -1.300e+01 -1.300e+01 -1.300e+01 -1.300e+01 -1.300e+01 -1.300e+01 -1.300e+01 -1.300e+01 -1.300e+01 -1.300e+01 -1.300e+01 -1.300e+01 -1.300e+01 -1.300e+01 -5.000e+00 -5.000e+00 -5.000e+00 -5.000e+00 -5.000e+00 -5.000e+00 -5.000e+00 -5.000e+00 -5.000e+00 -5.000e+00 -5.000e+00 -5.000e+00 -5.000e+00 -5.000e+00 -5.000e+00 -5.000e+00 -5.000e+00 -5.000e+00 -5.000e+00 -5.000e+00 -5.000e+00 -5.000e+00 -5.000e+00 -5.000e+00 -5.000e+00 -5.000e+00 -5.000e+00 -5.000e+00 -5.000e+00 -5.000e+00 -5.000e+00 -5.000e+00 -5.000e+00 -5.000e+00 -5.000e+00 -5.000e+00 -5.000e+00 -5.000e+00 -5.000e+00 -5.000e+00 -5.000e+00 -5.000e+00 -5.000e+00 -5.000e+00 -5.000e+00 -5.000e+00 -5.000e+00 -5.000e+00 -1.300e+01 -1.300e+01 -1.300e+01 -1.300e+01 -1.300e+01 -1.300e+01 -1.300e+01 -1.300e+01 -1.300e+01 -1.300e+01 -1.300e+01 -1.300e+01 -1.300e+01 -1.300e+01 -1.300e+01 -1.300e+01 -1.300e+01 -1.300e+01 -1.300e+01 -1.300e+01 -1.300e+01 -1.300e+01 -1.300e+01 -1.300e+01 -1.300e+01 -1.300e+01 -1.300e+01 -1.300e+01 -1.300e+01 -1.300e+01 -1.300e+01 -1.300e+01 -1.300e+01 -1.300e+01 -1.300e+01 -1.300e+01 -1.300e+01 -1.300e+01 -1.300e+01 -1.300e+01 -1.300e+01 -1.300e+01 -1.300e+01 -1.300e+01 -1.300e+01 -1.300e+01 -1.300e+01 -1.300e+01 -1.300e+01 -1.300e+01 -1.300e+01 -1.300e+01 -1.300e+01 -1.300e+01 -1.300e+01 -1.300e+01 -1.300e+01 -1.300e+01 -1.300e+01 -1.300e+01 -1.300e+01 -1.300e+01 -1.300e+01 -1.300e+01 -1.300e+01 -1.300e+01 -1.300e+01 -1.300e+01 -1.300e+01 -1.300e+01 -1.300e+01 -1.300e+01 -1.300e+01 -1.300e+01 -1.300e+01 -1.300e+01 -1.300e+01 -1.300e+01 -1.300e+01 -1.300e+01 -1.300e+01 -1.300e+01 -1.300e+01 -1.300e+01 -1.300e+01 -1.300e+01 -1.300e+01 -1.300e+01 -1.300e+01 -1.300e+01 -1.300e+01 -1.300e+01 -1.300e+01 -1.300e+01 -1.300e+01 -1.300e+01 -1.300e+01 -1.300e+01 -1.300e+01 -1.300e+01 -1.300e+01 -1.300e+01 -1.300e+01 -1.300e+01 -1.300e+01 -1.300e+01 -1.300e+01 -1.300e+01 -1.300e+01 -1.300e+01 -1.300e+01 -1.300e+01 -1.300e+01 -1.300e+01 -1.300e+01 -1.300e+01 -1.300e+01 -1.300e+01 -1.300e+01 -1.300e+01 -1.300e+01 -1.300e+01 -1.300e+01 -1.300e+01 -1.300e+01 -1.300e+01 -1.300e+01 -1.300e+01 -1.300e+01 -1.300e+01 -1.300e+01 -1.300e+01 -1.300e+01 -1.300e+01 -1.300e+01 -1.300e+01 -1.300e+01 -1.300e+01 -1.300e+01 -1.300e+01 -1.300e+01 -1.300e+01 -1.300e+01 -1.300e+01 -1.300e+01 -1.300e+01 -1.300e+01 -1.300e+01 -1.300e+01 -1.300e+01 -1.300e+01 -1.300e+01 -1.300e+01 -1.300e+01 -1.300e+01 -1.300e+01 -1.300e+01 -1.300e+01 -1.300e+01 -1.300e+01 -1.300e+01 -1.300e+01 -1.300e+01 -1.300e+01 -1.300e+01 -1.300e+01 -1.300e+01 -1.300e+01 -1.300e+01 -1.300e+01 -1.300e+01 -1.300e+01 -1.300e+01 -1.300e+01 -1.300e+01 -1.300e+01 -1.300e+01 -1.300e+01 -1.300e+01 -1.300e+01 -1.300e+01 -1.300e+01 -1.300e+01 -1.300e+01 -1.300e+01 -1.300e+01 -1.300e+01 -1.300e+01 -1.300e+01 -1.300e+01 -1.300e+01 -1.300e+01 -1.300e+01 -1.300e+01 -1.300e+01 -1.300e+01 -1.300e+01 -1.300e+01 -1.300e+01 -1.300e+01 -1.300e+01 -1.300e+01 -1.300e+01 -1.300e+01 -1.300e+01 -1.300e+01 -1.300e+01 -1.300e+01 -1.300e+01 -1.300e+01 -1.300e+01 -1.300e+01 -1.300e+01 -1.300e+01 -1.300e+01 -1.300e+01 -1.300e+01 -1.300e+01 -1.300e+01 -1.300e+01 -1.300e+01 -1.300e+01 -1.300e+01 -1.300e+01 -1.300e+01 -1.300e+01 -1.300e+01 -1.300e+01 -1.300e+01 -1.300e+01 -1.300e+01 -1.300e+01 -1.300e+01 -1.300e+01 -1.300e+01 -1.300e+01 -1.300e+01 -1.300e+01 -1.300e+01 -1.300e+01 -1.300e+01 -1.300e+01 -1.300e+01 -1.300e+01 -1.300e+01 -1.300e+01 -1.300e+01 -1.300e+01 -1.300e+01 -1.300e+01 -1.300e+01 -1.300e+01 -1.300e+01 -1.300e+01 -1.300e+01 -1.300e+01 -1.300e+01 -1.300e+01 -1.300e+01 -1.300e+01 -1.300e+01 -1.300e+01 -1.300e+01 -1.300e+01 -1.300e+01 -1.300e+01 -1.300e+01 -1.300e+01 -1.300e+01 -1.300e+01 -1.300e+01 -1.300e+01 -1.300e+01 -1.300e+01 -1.300e+01 -1.300e+01 -1.300e+01 -1.300e+01 -1.300e+01 -1.300e+01 -1.300e+01 -1.300e+01 -1.300e+01 -1.300e+01 -1.300e+01 -1.300e+01 -1.300e+01 -1.300e+01 -1.300e+01 -1.300e+01 -1.300e+01 -1.300e+01 -1.300e+01 -1.300e+01 -1.300e+01 -1.300e+01 -1.300e+01 -1.300e+01 -1.300e+01 -1.300e+01 -1.300e+01 -1.300e+01 -1.300e+01 -1.300e+01 -1.300e+01 -1.300e+01 -1.300e+01 -1.300e+01 -1.300e+01 -1.300e+01 -1.300e+01 -1.300e+01 -1.300e+01 -1.300e+01 -1.300e+01 -1.300e+01 -1.300e+01 -1.300e+01 -1.300e+01 -1.300e+01 -1.300e+01 -1.300e+01 -1.300e+01 -1.300e+01 -1.300e+01 -1.300e+01 -1.300e+01 -1.300e+01 -1.300e+01 -1.300e+01 -1.300e+01 -1.300e+01 -1.300e+01 -1.300e+01 -1.300e+01 -1.300e+01 -1.300e+01 -1.300e+01 -1.300e+01 -1.300e+01 -1.300e+01 -1.300e+01 -1.300e+01 -1.300e+01 -1.300e+01 -1.300e+01 -1.300e+01 -1.300e+01 -1.300e+01 -1.300e+01 -1.300e+01 -1.300e+01 -1.300e+01 -1.300e+01 -1.300e+01 -1.300e+01 -1.300e+01 -1.300e+01 -1.300e+01 -1.300e+01 -1.300e+01 -1.300e+01 -1.300e+01 -1.300e+01 -1.300e+01 -1.300e+01 -1.300e+01 -1.300e+01 -1.300e+01 -1.300e+01 -1.300e+01 -1.300e+01 -1.300e+01 -1.300e+01 -1.300e+01 -1.300e+01 -1.300e+01 -1.300e+01 -1.300e+01 -1.300e+01 -1.300e+01 -1.300e+01 -1.300e+01 -1.300e+01 -1.300e+01 -1.300e+01 -1.300e+01 -1.300e+01 -1.300e+01 -1.300e+01 -1.300e+01 -1.300e+01 -1.300e+01 -1.300e+01 -1.300e+01 -1.300e+01 -1.300e+01 -1.300e+01 -1.300e+01 -1.300e+01 -1.300e+01 -1.300e+01 -1.300e+01 -1.300e+01 -1.300e+01 -1.300e+01 -1.300e+01 -1.300e+01 -1.300e+01 -1.300e+01 -1.300e+01 -1.300e+01 -1.300e+01 -1.300e+01 -1.300e+01 -1.300e+01 -1.300e+01 -1.300e+01 -1.300e+01 -1.300e+01 -1.300e+01 -1.300e+01 -1.300e+01 -1.300e+01 -1.300e+01 -1.300e+01 -1.300e+01 -1.300e+01 -1.300e+01 -1.300e+01 -1.300e+01 -1.300e+01 -1.300e+01 -1.300e+01 -1.300e+01 -1.300e+01 -1.300e+01 -1.300e+01 -1.300e+01 -1.300e+01 -1.300e+01 -1.300e+01 -1.300e+01 -1.300e+01 -1.300e+01 -1.300e+01 -1.300e+01 -1.300e+01 -1.300e+01 -1.300e+01 -1.300e+01 -1.300e+01 -1.300e+01 -1.300e+01 -1.300e+01 -1.300e+01 -1.300e+01 -1.300e+01 -1.300e+01 -1.300e+01 -1.300e+01 -1.300e+01 -1.300e+01 -1.300e+01 -1.300e+01 -1.300e+01 -1.300e+01 -1.300e+01 -1.300e+01 -1.300e+01 -1.300e+01 -1.300e+01 -1.300e+01 -1.300e+01 -1.300e+01 -1.300e+01 -1.300e+01 -1.300e+01 -1.300e+01 -1.300e+01 -1.300e+01 -1.300e+01 -1.300e+01 -1.300e+01 -1.300e+01 -1.300e+01 -1.300e+01 -1.300e+01 -1.300e+01 -1.300e+01 -1.300e+01 -1.300e+01 -1.300e+01 -1.300e+01 -1.300e+01 -1.300e+01 -1.300e+01 -1.300e+01 -1.300e+01 -1.300e+01 -1.300e+01 -1.300e+01 -1.300e+01 -1.300e+01 -1.300e+01 -1.300e+01 -1.300e+01 -1.300e+01 -1.300e+01 -1.300e+01 -1.300e+01 -1.300e+01 -1.300e+01 -1.300e+01 -1.300e+01 -1.300e+01 -1.300e+01 -1.300e+01 -1.300e+01 -1.300e+01 -1.300e+01 -1.300e+01 -1.300e+01 -1.300e+01 -1.300e+01 -1.300e+01 -1.300e+01 -1.300e+01 -1.300e+01 -1.300e+01 -1.300e+01 -1.300e+01 -1.300e+01 -1.300e+01 -1.300e+01 -1.300e+01 -1.300e+01 -1.300e+01 -1.300e+01 -1.300e+01 -1.300e+01 -1.300e+01 -1.300e+01 -1.300e+01 -1.300e+01 -1.300e+01 -1.300e+01 -1.300e+01 -1.300e+01 -1.300e+01 -1.300e+01 -1.300e+01 -1.300e+01 -1.300e+01 -1.300e+01 -1.300e+01 -1.300e+01 -1.300e+01 -1.300e+01 -1.300e+01 -1.300e+01 -1.300e+01 -1.300e+01 -1.300e+01 -1.300e+01 -1.300e+01 -5.000e+00 -5.000e+00 -5.000e+00 -5.000e+00 -5.000e+00 -5.000e+00 -5.000e+00 -5.000e+00 -5.000e+00 -5.000e+00 -5.000e+00 -5.000e+00 -5.000e+00 -5.000e+00 -5.000e+00 -5.000e+00 -5.000e+00 -5.000e+00 -5.000e+00 -5.000e+00 -5.000e+00 -5.000e+00 -5.000e+00 -5.000e+00 -5.000e+00 -5.000e+00 -5.000e+00 -5.000e+00 -5.000e+00 -5.000e+00 -5.000e+00 -5.000e+00 -5.000e+00 -5.000e+00 -5.000e+00 -5.000e+00 -5.000e+00 -5.000e+00 -5.000e+00 -5.000e+00 -5.000e+00 -5.000e+00 -5.000e+00 -5.000e+00 -5.000e+00 -5.000e+00 -5.000e+00 -5.000e+00 -1.300e+01 -1.300e+01 -1.300e+01 -1.300e+01 -1.300e+01 -1.300e+01 -1.300e+01 -1.300e+01 -1.300e+01 -1.300e+01 -1.300e+01 -1.300e+01 -1.300e+01 -1.300e+01 -1.300e+01 -1.300e+01 -1.300e+01 -1.300e+01 -1.300e+01 -1.300e+01 -1.300e+01 -1.300e+01 -1.300e+01 -1.300e+01 -1.300e+01 -1.300e+01 -1.300e+01 -1.300e+01 -1.300e+01 -1.300e+01 -1.300e+01 -1.300e+01 -1.300e+01 -1.300e+01 -1.300e+01 -1.300e+01 -1.300e+01 -1.300e+01 -1.300e+01 -1.300e+01 -1.300e+01 -1.300e+01 -1.300e+01 -1.300e+01 -1.300e+01 -1.300e+01 -1.300e+01 -1.300e+01 -1.300e+01 -1.300e+01 -1.300e+01 -1.300e+01 -1.300e+01 -1.300e+01 -1.300e+01 -1.300e+01 -1.300e+01 -1.300e+01 -1.300e+01 -1.300e+01 -1.300e+01 -1.300e+01 -1.300e+01 -1.300e+01 -1.300e+01 -1.300e+01 -1.300e+01 -1.300e+01 -1.300e+01 -1.300e+01 -1.300e+01 -1.300e+01 -1.300e+01 -1.300e+01 -1.300e+01 -1.300e+01 -1.300e+01 -1.300e+01 -1.300e+01 -1.300e+01 -1.300e+01 -1.300e+01 -1.300e+01 -1.300e+01 -1.300e+01 -1.300e+01 -1.300e+01 -1.300e+01 -1.300e+01 -1.300e+01 -1.300e+01 -1.300e+01 -1.300e+01 -1.300e+01 -1.300e+01 -1.300e+01 -1.300e+01 -1.300e+01 -1.300e+01 -1.300e+01 -1.300e+01 -1.300e+01 -1.300e+01 -1.300e+01 -1.300e+01 -1.300e+01 -1.300e+01 -1.300e+01 -1.300e+01 -1.300e+01 -1.300e+01 -1.300e+01 -1.300e+01 -1.300e+01 -1.300e+01 -1.300e+01 -1.300e+01 -1.300e+01 -1.300e+01 -1.300e+01 -1.300e+01 -1.300e+01 -1.300e+01 -1.300e+01 -1.300e+01 -1.300e+01 -1.300e+01 -1.300e+01 -1.300e+01 -1.300e+01 -1.300e+01 -1.300e+01 -1.300e+01 -1.300e+01 -1.300e+01 -1.300e+01 -1.300e+01 -1.300e+01 -1.300e+01 -1.300e+01 -1.300e+01 -1.300e+01 -1.300e+01 -1.300e+01 -1.300e+01 -1.300e+01 -1.300e+01 -1.300e+01 -1.300e+01 -1.300e+01 -1.300e+01 -1.300e+01 -1.300e+01 -1.300e+01 -1.300e+01 -1.300e+01 -1.300e+01 -1.300e+01 -1.300e+01 -1.300e+01 -1.300e+01 -1.300e+01 -1.300e+01 -1.300e+01 -1.300e+01 -1.300e+01 -1.300e+01 -1.300e+01 -1.300e+01 -1.300e+01 -1.300e+01 -1.300e+01 -1.300e+01 -1.300e+01 -1.300e+01 -1.300e+01 -1.300e+01 -1.300e+01 -1.300e+01 -1.300e+01 -1.300e+01 -1.300e+01 -1.300e+01 -1.300e+01 -1.300e+01 -1.300e+01 -1.300e+01 -1.300e+01 -1.300e+01 -1.300e+01 -1.300e+01 -1.300e+01 -1.300e+01 -1.300e+01 -1.300e+01 -1.300e+01 -1.300e+01 -1.300e+01 -1.300e+01 -1.300e+01 -1.300e+01 -1.300e+01 -1.300e+01 -1.300e+01 -1.300e+01 -1.300e+01 -1.300e+01 -1.300e+01 -1.300e+01 -1.300e+01 -1.300e+01 -1.300e+01 -1.300e+01 -1.300e+01 -1.300e+01 -1.300e+01 -1.300e+01 -1.300e+01 -1.300e+01 -1.300e+01 -1.300e+01 -1.300e+01 -1.300e+01 -1.300e+01 -1.300e+01 -1.300e+01 -1.300e+01 -1.300e+01 -1.300e+01 -1.300e+01 -1.300e+01 -1.300e+01 -1.300e+01 -1.300e+01 -1.300e+01 -1.300e+01 -1.300e+01 -1.300e+01 -1.300e+01 -1.300e+01 -1.300e+01 -1.300e+01 -1.300e+01 -1.300e+01 -1.300e+01 -1.300e+01 -1.300e+01 -1.300e+01 -1.300e+01 -1.300e+01 -1.300e+01 -1.300e+01 -1.300e+01 -1.300e+01 -1.300e+01 -1.300e+01 -1.300e+01 -1.300e+01 -1.300e+01 -1.300e+01 -1.300e+01 -1.300e+01 -1.300e+01 -1.300e+01 -1.300e+01 -1.300e+01 -1.300e+01 -1.300e+01 -1.300e+01 -1.300e+01 -1.300e+01 -1.300e+01 -1.300e+01 -1.300e+01 -1.300e+01 -1.300e+01 -1.300e+01 -1.300e+01 -1.300e+01 -1.300e+01 -1.300e+01 -1.300e+01 -1.300e+01 -1.300e+01 -1.300e+01 -1.300e+01 -1.300e+01 -1.300e+01 -1.300e+01 -1.300e+01 -1.300e+01 -1.300e+01 -1.300e+01 -1.300e+01 -1.300e+01 -1.300e+01 -1.300e+01 -1.300e+01 -1.300e+01 -1.300e+01 -1.300e+01 -1.300e+01 -1.300e+01 -1.300e+01 -1.300e+01 -1.300e+01 -1.300e+01 -1.300e+01 -1.300e+01 -1.300e+01 -1.300e+01 -1.300e+01 -1.300e+01 -1.300e+01 -1.300e+01 -1.300e+01 -1.300e+01 -1.300e+01 -1.300e+01 -1.300e+01 -1.300e+01 -1.300e+01 -1.300e+01 -1.300e+01 -1.300e+01 -1.300e+01 -1.300e+01 -1.300e+01 -1.300e+01 -1.300e+01 -1.300e+01 -1.300e+01 -1.300e+01 -1.300e+01 -1.300e+01 -1.300e+01 -1.300e+01 -1.300e+01 -1.300e+01 -1.300e+01 -1.300e+01 -1.300e+01 -1.300e+01 -1.300e+01 -1.300e+01 -1.300e+01 -1.300e+01 -1.300e+01 -1.300e+01 -1.300e+01 -1.300e+01 -1.300e+01 -1.300e+01 -1.300e+01 -1.300e+01 -1.300e+01 -1.300e+01 -1.300e+01 -1.300e+01 -1.300e+01 -1.300e+01 -1.300e+01 -1.300e+01 -1.300e+01 -1.300e+01 -1.300e+01 -1.300e+01 -1.300e+01 -1.300e+01 -1.300e+01 -1.300e+01 -1.300e+01 -1.300e+01 -1.300e+01 -1.300e+01 -1.300e+01 -1.300e+01 -1.300e+01 -1.300e+01 -1.300e+01 -1.300e+01 -1.300e+01 -1.300e+01 -1.300e+01 -1.300e+01 -1.300e+01 -1.300e+01 -1.300e+01 -1.300e+01 -1.300e+01 -1.300e+01 -1.300e+01 -1.300e+01 -1.300e+01 -1.300e+01 -1.300e+01 -1.300e+01 -1.300e+01 -1.300e+01 -1.300e+01 -1.300e+01 -1.300e+01 -1.300e+01 -1.300e+01 -1.300e+01 -1.300e+01 -1.300e+01 -1.300e+01 -1.300e+01 -1.300e+01 -1.300e+01 -1.300e+01 -1.300e+01 -1.300e+01 -1.300e+01 -1.300e+01 -1.300e+01 -1.300e+01 -1.300e+01 -1.300e+01 -1.300e+01 -1.300e+01 -1.300e+01 -1.300e+01 -1.300e+01 -1.300e+01 -1.300e+01 -1.300e+01 -1.300e+01 -1.300e+01 -1.300e+01 -1.300e+01 -1.300e+01 -1.300e+01 -1.300e+01 -1.300e+01 -1.300e+01 -1.300e+01 -1.300e+01 -1.300e+01 -1.300e+01 -1.300e+01 -1.300e+01 -1.300e+01 -1.300e+01 -1.300e+01 -1.300e+01 -1.300e+01 -1.300e+01 -1.300e+01 -1.300e+01 -1.300e+01 -1.300e+01 -1.300e+01 -1.300e+01 -1.300e+01 -1.300e+01 -1.300e+01 -1.300e+01 -1.300e+01 -1.300e+01 -1.300e+01 -1.300e+01 -1.300e+01 -1.300e+01 -1.300e+01 -1.300e+01 -1.300e+01 -1.300e+01 -1.300e+01 -1.300e+01 -1.300e+01 -1.300e+01 -1.300e+01 -1.300e+01 -1.300e+01 -1.300e+01 -1.300e+01 -1.300e+01 -1.300e+01 -1.300e+01 -1.300e+01 -1.300e+01 -1.300e+01 -1.300e+01 -1.300e+01 -1.300e+01 -1.300e+01 -1.300e+01 -1.300e+01 -1.300e+01 -1.300e+01 -1.300e+01 -1.300e+01 -1.300e+01 -1.300e+01 -1.300e+01 -1.300e+01 -1.300e+01 -1.300e+01 -1.300e+01 -1.300e+01 -1.300e+01 -1.300e+01 -1.300e+01 -1.300e+01 -1.300e+01 -1.300e+01 -1.300e+01 -1.300e+01 -1.300e+01 -1.300e+01 -1.300e+01 -1.300e+01 -1.300e+01 -1.300e+01 -1.300e+01 -1.300e+01 -1.300e+01 -1.300e+01 -1.300e+01 -1.300e+01 -1.300e+01 -1.300e+01 -1.300e+01 -1.300e+01 -1.300e+01 -1.300e+01 -1.300e+01 -1.300e+01 -1.300e+01 -1.300e+01 -1.300e+01 -1.300e+01 -1.300e+01 -1.300e+01 -1.300e+01 -1.300e+01 -1.300e+01 -1.300e+01 -1.300e+01 -1.300e+01 -1.300e+01 -1.300e+01 -1.300e+01 -1.300e+01 -1.300e+01 -1.300e+01 -1.300e+01 -1.300e+01 -1.300e+01 -1.300e+01 -1.300e+01 -1.300e+01 -1.300e+01 -1.300e+01 -1.300e+01 -5.000e+00 -5.000e+00 -5.000e+00 -5.000e+00 -5.000e+00 -5.000e+00 -5.000e+00 -5.000e+00 -5.000e+00 -5.000e+00 -5.000e+00 -5.000e+00 -5.000e+00 -5.000e+00 -5.000e+00 -5.000e+00 -5.000e+00 -5.000e+00 -5.000e+00 -5.000e+00 -5.000e+00 -5.000e+00 -5.000e+00 -5.000e+00 -5.000e+00 -5.000e+00 -5.000e+00 -5.000e+00