<?xml version="1.0"?>
<VTKFile type="UnstructuredGrid" version="0.1" byte_order="LittleEndian">
   <UnstructuredGrid>
      <Piece NumberOfPoints="60610" NumberOfCells="4451">
         <Points>
            <DataArray type="Float32" Name="Position" NumberOfComponents="3" format="ascii">
0.138	-5.019	0.063
0.142	-5.018	0.071
0.141	-5.018	0.080
0.134	-5.018	0.087
0.125	-5.019	0.089
0.117	-5.019	0.084
0.113	-5.020	0.076
0.114	-5.021	0.067
0.121	-5.021	0.060
0.130	-5.020	0.059
0.202	-5.871	0.125
0.206	-5.870	0.133
0.205	-5.869	0.142
0.199	-5.870	0.149
0.190	-5.872	0.151
0.182	-5.874	0.147
0.178	-5.875	0.139
0.179	-5.876	0.130
0.185	-5.875	0.123
0.194	-5.873	0.121
0.484	-6.719	0.181
0.489	-6.717	0.189
0.488	-6.716	0.198
0.482	-6.718	0.205
0.473	-6.720	0.207
0.465	-6.724	0.204
0.461	-6.726	0.196
0.462	-6.727	0.187
0.468	-6.725	0.180
0.476	-6.723	0.178
0.777	-7.489	0.301
0.781	-7.485	0.309
0.779	-7.484	0.318
0.774	-7.485	0.325
0.765	-7.489	0.327
0.758	-7.493	0.324
0.754	-7.496	0.316
0.755	-7.498	0.307
0.761	-7.496	0.300
0.769	-7.493	0.298
0.962	-7.830	0.391
0.966	-7.826	0.398
0.965	-7.824	0.407
0.959	-7.825	0.414
0.951	-7.829	0.417
0.943	-7.834	0.414
0.940	-7.838	0.406
0.941	-7.840	0.397
0.947	-7.838	0.390
0.955	-7.835	0.388
0.260	-5.055	0.132
0.258	-5.048	0.137
0.254	-5.046	0.146
0.250	-5.049	0.153
0.247	-5.057	0.157
0.247	-5.066	0.156
0.249	-5.073	0.151
0.253	-5.075	0.143
0.257	-5.072	0.135
0.260	-5.064	0.131
0.961	-5.105	0.485
0.958	-5.098	0.490
0.955	-5.096	0.499
0.951	-5.099	0.506
0.948	-5.107	0.510
0.948	-5.116	0.509
0.950	-5.123	0.504
0.954	-5.126	0.495
0.958	-5.122	0.488
0.960	-5.114	0.484
1.794	-5.187	0.875
1.792	-5.180	0.880
1.788	-5.177	0.888
1.784	-5.180	0.895
1.780	-5.188	0.900
1.779	-5.197	0.899
1.781	-5.204	0.894
1.785	-5.207	0.886
1.790	-5.204	0.878
1.793	-5.197	0.874
2.451	-5.320	1.298
2.450	-5.312	1.303
2.445	-5.308	1.310
2.440	-5.310	1.317
2.436	-5.317	1.322
2.434	-5.326	1.322
2.435	-5.334	1.317
2.440	-5.338	1.310
2.445	-5.336	1.303
2.450	-5.329	1.298
3.141	-5.447	1.824
3.139	-5.439	1.828
3.135	-5.435	1.835
3.129	-5.436	1.842
3.124	-5.442	1.847
3.122	-5.451	1.847
3.124	-5.460	1.844
3.128	-5.464	1.837
3.134	-5.463	1.830
3.139	-5.456	1.825
3.248	-5.464	1.913
3.253	-5.464	1.921
3.251	-5.464	1.931
3.245	-5.464	1.937
3.235	-5.464	1.939
3.227	-5.464	1.934
3.223	-5.464	1.926
3.224	-5.464	1.917
3.231	-5.464	1.910
3.240	-5.464	1.909
1.335	-5.666	0.701
1.339	-5.657	0.702
1.338	-5.648	0.703
1.331	-5.642	0.704
1.322	-5.641	0.703
1.314	-5.645	0.702
1.310	-5.653	0.700
1.311	-5.662	0.699
1.318	-5.669	0.699
1.327	-5.670	0.700
1.255	-5.776	1.529
1.259	-5.768	1.530
1.257	-5.759	1.531
1.251	-5.752	1.532
1.242	-5.751	1.531
1.233	-5.755	1.530
1.229	-5.763	1.529
1.231	-5.773	1.528
1.238	-5.779	1.528
1.247	-5.780	1.528
1.222	-5.865	2.387
1.227	-5.857	2.388
1.225	-5.848	2.388
1.219	-5.841	2.388
1.210	-5.840	2.388
1.201	-5.844	2.386
1.197	-5.852	2.386
1.199	-5.861	2.385
1.205	-5.868	2.385
1.214	-5.870	2.386
1.109	-5.908	3.259
1.113	-5.900	3.260
1.112	-5.891	3.260
1.106	-5.884	3.260
1.097	-5.882	3.258
1.089	-5.886	3.257
1.084	-5.894	3.256
1.085	-5.903	3.256
1.091	-5.910	3.257
1.101	-5.912	3.258
1.076	-5.911	3.507
1.081	-5.903	3.507
1.080	-5.894	3.507
1.074	-5.887	3.507
1.065	-5.885	3.505
1.056	-5.889	3.504
1.052	-5.897	3.504
1.053	-5.906	3.504
1.059	-5.913	3.504
1.068	-5.915	3.505
7.085	-17.272	3.633
7.080	-17.269	3.640
7.074	-17.262	3.643
7.069	-17.255	3.641
7.067	-17.249	3.634
7.069	-17.248	3.625
7.073	-17.250	3.618
7.079	-17.257	3.614
7.084	-17.264	3.617
7.086	-17.270	3.624
6.463	-17.756	3.442
6.459	-17.754	3.450
6.453	-17.748	3.455
6.447	-17.741	3.453
6.444	-17.735	3.447
6.444	-17.733	3.438
6.447	-17.735	3.430
6.453	-17.741	3.425
6.459	-17.748	3.427
6.463	-17.754	3.433
6.090	-18.105	3.412
6.087	-18.103	3.421
6.081	-18.097	3.426
6.075	-18.091	3.425
6.070	-18.085	3.420
6.069	-18.083	3.411
6.072	-18.085	3.402
6.077	-18.091	3.397
6.084	-18.097	3.397
6.088	-18.103	3.403
7.115	-17.390	3.638
7.123	-17.388	3.641
7.131	-17.391	3.645
7.135	-17.399	3.649
7.133	-17.408	3.652
7.126	-17.414	3.651
7.118	-17.416	3.649
7.110	-17.413	3.645
7.106	-17.405	3.641
7.108	-17.396	3.638
7.393	-17.658	2.889
7.402	-17.656	2.892
7.409	-17.660	2.896
7.413	-17.667	2.900
7.412	-17.676	2.902
7.405	-17.683	2.902
7.397	-17.685	2.899
7.389	-17.682	2.895
7.386	-17.674	2.891
7.387	-17.665	2.889
7.626	-17.779	2.411
7.634	-17.776	2.414
7.641	-17.779	2.419
7.645	-17.787	2.422
7.644	-17.796	2.424
7.638	-17.803	2.423
7.630	-17.805	2.419
7.622	-17.802	2.415
7.618	-17.795	2.411
7.620	-17.786	2.410
7.172	-17.557	3.665
7.167	-17.554	3.672
7.161	-17.548	3.675
7.156	-17.540	3.673
7.154	-17.535	3.666
7.156	-17.533	3.657
7.161	-17.535	3.650
7.167	-17.542	3.647
7.172	-17.549	3.649
7.174	-17.555	3.656
6.579	-18.032	3.441
6.574	-18.029	3.448
6.568	-18.023	3.451
6.563	-18.016	3.449
6.560	-18.010	3.442
6.562	-18.008	3.433
6.567	-18.011	3.426
6.573	-18.017	3.423
6.578	-18.024	3.425
6.580	-18.030	3.432
5.935	-18.557	3.216
5.931	-18.554	3.223
5.925	-18.548	3.227
5.919	-18.541	3.225
5.917	-18.535	3.218
5.918	-18.533	3.209
5.923	-18.535	3.201
5.929	-18.541	3.198
5.934	-18.549	3.200
5.936	-18.554	3.207
5.827	-18.645	3.182
5.823	-18.642	3.189
5.817	-18.636	3.193
5.811	-18.629	3.191
5.809	-18.623	3.184
5.810	-18.621	3.175
5.814	-18.624	3.167
5.820	-18.630	3.164
5.826	-18.637	3.166
5.828	-18.643	3.173
7.212	-17.681	3.661
7.209	-17.675	3.668
7.206	-17.673	3.676
7.203	-17.678	3.684
7.201	-17.686	3.687
7.202	-17.695	3.686
7.204	-17.701	3.680
7.208	-17.703	3.671
7.211	-17.698	3.664
7.212	-17.690	3.660
7.930	-17.692	3.957
7.928	-17.686	3.963
7.924	-17.684	3.972
7.921	-17.688	3.979
7.919	-17.696	3.983
7.919	-17.706	3.982
7.921	-17.712	3.976
7.925	-17.714	3.968
7.929	-17.710	3.960
7.931	-17.702	3.956
8.648	-17.732	4.306
8.646	-17.725	4.312
8.642	-17.723	4.320
8.638	-17.726	4.327
8.636	-17.734	4.331
8.636	-17.743	4.330
8.638	-17.750	4.325
8.642	-17.752	4.316
8.646	-17.749	4.309
8.648	-17.741	4.305
8.708	-17.738	4.334
8.706	-17.731	4.340
8.703	-17.729	4.348
8.699	-17.733	4.356
8.696	-17.740	4.360
8.695	-17.750	4.359
8.697	-17.757	4.353
8.701	-17.759	4.345
8.705	-17.755	4.337
8.708	-17.747	4.333
7.243	-17.819	3.679
7.251	-17.817	3.683
7.259	-17.820	3.687
7.262	-17.828	3.691
7.261	-17.837	3.693
7.255	-17.844	3.692
7.247	-17.846	3.688
7.239	-17.843	3.684
7.236	-17.835	3.680
7.237	-17.826	3.678
7.620	-18.022	2.952
7.628	-18.020	2.956
7.635	-18.024	2.962
7.638	-18.031	2.966
7.636	-18.040	2.968
7.630	-18.047	2.967
7.622	-18.049	2.962
7.615	-18.046	2.957
7.612	-18.038	2.952
7.614	-18.029	2.950
8.039	-18.255	2.440
8.046	-18.253	2.445
8.052	-18.256	2.451
8.055	-18.263	2.457
8.052	-18.272	2.459
8.046	-18.279	2.457
8.039	-18.281	2.452
8.033	-18.278	2.445
8.030	-18.270	2.440
8.033	-18.262	2.438
7.302	-17.986	3.698
7.306	-17.977	3.699
7.305	-17.968	3.699
7.298	-17.962	3.699
7.289	-17.960	3.698
7.281	-17.964	3.697
7.276	-17.972	3.696
7.278	-17.981	3.695
7.284	-17.988	3.696
7.293	-17.990	3.696
7.213	-18.050	4.530
7.217	-18.042	4.530
7.215	-18.032	4.531
7.208	-18.026	4.532
7.199	-18.025	4.532
7.191	-18.030	4.531
7.187	-18.038	4.531
7.189	-18.047	4.530
7.195	-18.053	4.529
7.205	-18.054	4.529
7.255	-18.090	4.949
7.258	-18.082	4.949
7.256	-18.073	4.950
7.249	-18.067	4.951
7.240	-18.066	4.952
7.232	-18.071	4.953
7.229	-18.080	4.952
7.231	-18.089	4.951
7.238	-18.095	4.950
7.247	-18.095	4.949
7.341	-18.130	3.713
7.337	-18.128	3.721
7.331	-18.121	3.724
7.326	-18.114	3.721
7.324	-18.108	3.714
7.325	-18.106	3.705
7.330	-18.109	3.698
7.336	-18.116	3.695
7.341	-18.123	3.697
7.343	-18.129	3.704
6.681	-18.647	3.487
6.677	-18.645	3.496
6.671	-18.640	3.500
6.665	-18.633	3.499
6.662	-18.627	3.493
6.662	-18.624	3.484
6.666	-18.626	3.476
6.672	-18.631	3.471
6.678	-18.638	3.473
6.682	-18.644	3.479
6.225	-19.085	3.348
6.233	-19.085	3.352
6.243	-19.085	3.350
6.249	-19.085	3.344
6.251	-19.085	3.335
6.246	-19.085	3.326
6.238	-19.085	3.322
6.229	-19.085	3.324
6.222	-19.085	3.330
6.221	-19.085	3.339
7.384	-18.274	3.725
7.380	-18.271	3.732
7.374	-18.264	3.736
7.369	-18.257	3.733
7.366	-18.251	3.726
7.367	-18.250	3.717
7.372	-18.253	3.710
7.377	-18.259	3.706
7.383	-18.267	3.709
7.385	-18.272	3.716
6.719	-18.779	3.564
6.714	-18.776	3.571
6.708	-18.769	3.574
6.704	-18.762	3.572
6.701	-18.756	3.565
6.703	-18.755	3.556
6.707	-18.758	3.548
6.713	-18.764	3.545
6.718	-18.772	3.548
6.720	-18.777	3.555
6.213	-19.133	3.390
6.213	-19.129	3.399
6.213	-19.130	3.408
6.213	-19.137	3.414
6.213	-19.146	3.416
6.213	-19.154	3.412
6.213	-19.159	3.403
6.213	-19.157	3.394
6.213	-19.151	3.388
6.213	-19.141	3.386
7.421	-18.418	3.739
7.416	-18.415	3.746
7.410	-18.408	3.748
7.406	-18.401	3.745
7.405	-18.395	3.737
7.407	-18.394	3.728
7.413	-18.397	3.721
7.418	-18.404	3.719
7.423	-18.412	3.723
7.424	-18.417	3.730
6.814	-18.868	3.495
6.810	-18.865	3.502
6.804	-18.858	3.505
6.799	-18.851	3.503
6.797	-18.845	3.495
6.799	-18.844	3.486
6.803	-18.847	3.479
6.809	-18.854	3.476
6.814	-18.862	3.479
6.816	-18.867	3.486
6.227	-19.306	3.391
6.224	-19.303	3.399
6.218	-19.296	3.402
6.213	-19.289	3.400
6.210	-19.284	3.393
6.211	-19.282	3.384
6.215	-19.286	3.376
6.220	-19.292	3.372
6.225	-19.300	3.375
6.228	-19.305	3.382
7.446	-18.540	3.738
7.454	-18.538	3.742
7.461	-18.542	3.747
7.463	-18.550	3.752
7.460	-18.558	3.755
7.452	-18.563	3.755
7.444	-18.565	3.752
7.437	-18.561	3.747
7.435	-18.553	3.742
7.438	-18.545	3.738
7.757	-18.939	3.057
7.765	-18.939	3.061
7.771	-18.943	3.067
7.772	-18.950	3.073
7.768	-18.957	3.077
7.760	-18.962	3.077
7.752	-18.962	3.073
7.746	-18.959	3.067
7.745	-18.952	3.061
7.749	-18.944	3.057
7.969	-19.327	2.694
7.977	-19.326	2.698
7.982	-19.330	2.705
7.981	-19.337	2.712
7.976	-19.343	2.716
7.968	-19.347	2.715
7.960	-19.348	2.711
7.955	-19.344	2.704
7.955	-19.337	2.697
7.961	-19.331	2.693
1.430	-5.725	0.753
1.437	-5.722	0.758
1.444	-5.725	0.763
1.448	-5.733	0.767
1.448	-5.742	0.767
1.443	-5.749	0.764
1.436	-5.752	0.759
1.429	-5.749	0.753
1.425	-5.741	0.750
1.425	-5.732	0.749
1.968	-5.765	0.055
1.975	-5.762	0.061
1.981	-5.765	0.067
1.985	-5.772	0.070
[...]
         <CellData>
           <DataArray type="Float32" Name="combinedRootClassID" NumberOfComponents="1" format="ascii">
 -1.300e+01 -1.300e+01 -1.300e+01 -1.300e+01 -1.300e+01 -1.300e+01 -1.300e+01 -1.300e+01 -1.300e+01 -1.300e+01 -1.300e+01 -1.300e+01 -1.300e+01 -1.300e+01 -1.300e+01 -1.300e+01 -1.300e+01 -1.300e+01 -1.300e+01 -1.300e+01 -1.300e+01 -1.300e+01 -1.300e+01 -1.300e+01 -1.300e+01 -1.300e+01 -1.300e+01 -1.300e+01 -1.300e+01 -1.300e+01 -1.300e+01 -1.300e+01 -1.300e+01 -1.300e+01 -1.300e+01 -1.300e+01 -1.300e+01 -1.300e+01 -1.300e+01 -1.300e+01 -1.300e+01 -1.300e+01 -1.300e+01 -1.300e+01 -1.300e+01 -1.300e+01 -1.300e+01 -1.300e+01 -1.300e+01 -1.300e+01 -1.300e+01 -1.300e+01 -1.300e+01 -1.300e+01 -1.300e+01 -1.300e+01 -1.300e+01 -1.300e+01 -1.300e+01 -1.300e+01 -1.300e+01 -1.300e+01 -1.300e+01 -1.300e+01 -1.300e+01 -1.300e+01 -1.300e+01 -1.300e+01 -1.300e+01 -1.300e+01 -1.300e+01 -1.300e+01 -1.300e+01 -1.300e+01 -1.300e+01 -1.300e+01 -1.300e+01 -1.300e+01 -1.300e+01 -1.300e+01 -1.300e+01 -1.300e+01 -1.300e+01 -1.300e+01 -1.300e+01 -1.300e+01 -1.300e+01 -1.300e+01 -1.300e+01 -1.300e+01 -1.300e+01 -1.300e+01 -1.300e+01 -1.300e+01 -1.300e+01 -1.300e+01 -1.300e+01 -1.300e+01 -1.300e+01 -1.300e+01 -1.300e+01 -1.300e+01 -1.300e+01 -1.300e+01 -1.300e+01 -1.300e+01 -1.300e+01 -1.300e+01 -1.300e+01 -1.300e+01 -1.300e+01 -1.300e+01 -1.300e+01 -1.300e+01 -1.300e+01 -1.300e+01 -1.300e+01 -1.300e+01 -1.300e+01 -1.300e+01 -1.300e+01 -1.300e+01 -1.300e+01 -1.300e+01 -1.300e+01 -1.300e+01 -1.300e+01 -1.300e+01 -1.300e+01 -1.300e+01 -1.300e+01 -1.300e+01 -1.300e+01 -1.300e+01 -1.300e+01 -1.300e+01 -1.300e+01 -1.300e+01 -1.300e+01 -1.300e+01 -1.300e+01 -1.300e+01 -1.300e+01 -1.300e+01 -1.300e+01 -1.300e+01 -1.300e+01 -1.300e+01 -1.300e+01 -1.300e+01 -1.300e+01 -1.300e+01 -1.300e+01 -1.300e+01 -1.300e+01 -1.300e+01 -1.300e+01 -1.300e+01 -1.300e+01 -1.300e+01 -1.300e+01 -1.300e+01 -1.300e+01 -1.300e+01 -1.300e+01 -1.300e+01 -1.300e+01 -1.300e+01 -1.300e+01 -1.300e+01 -1.300e+01 -1.300e+01 -1.300e+01 -1.300e+01 -1.300e+01 -1.300e+01 -1.300e+01 -1.300e+01 -1.300e+01 -1.300e+01 -1.300e+01 -1.300e+01 -1.300e+01 -1.300e+01 -1.300e+01 -1.300e+01 -1.300e+01 -1.300e+01 -1.300e+01 -1.300e+01 -1.300e+01 -1.300e+01 -1.300e+01 -1.300e+01 -1.300e+01 -1.300e+01 -1.300e+01 -1.300e+01 -1.300e+01 -1.300e+01 -1.300e+01 -1.300e+01 -1.300e+01 -1.300e+01 -1.300e+01 -1.300e+01 -1.300e+01 -1.300e+01 -1.300e+01 -1.300e+01 -1.300e+01 -1.300e+01 -1.300e+01 -1.300e+01 -1.300e+01 -1.300e+01 -1.300e+01 -1.300e+01 -1.300e+01 -1.300e+01 -1.300e+01 -1.300e+01 -1.300e+01 -1.300e+01 -1.300e+01 -1.300e+01 -1.300e+01 -1.300e+01 -1.300e+01 -1.300e+01 -1.300e+01 -1.300e+01 -1.300e+01 -1.300e+01 -1.300e+01 -1.300e+01 -1.300e+01 -1.300e+01 -1.300e+01 -1.300e+01 -1.300e+01 -1.300e+01 -1.300e+01 -1.300e+01 -1.300e+01 -1.300e+01 -1.300e+01 -1.300e+01 -1.300e+01 -1.300e+01 -1.300e+01 -1.300e+01 -1.300e+01 -1.300e+01 -1.300e+01 -1.300e+01 -1.300e+01 -1.300e+01 -1.300e+01 -1.300e+01 -1.300e+01 -1.300e+01 -1.300e+01 -1.300e+01 -1.300e+01 -1.300e+01 -1.300e+01 -1.300e+01 -1.300e+01 -1.300e+01 -1.300e+01 -1.300e+01 -1.300e+01 -1.300e+01 -1.300e+01 -1.300e+01 -1.300e+01 -1.300e+01 -1.300e+01 -1.300e+01 -1.300e+01 -1.300e+01 -1.300e+01 -1.300e+01 -1.300e+01 -1.300e+01 -1.300e+01 -1.300e+01 -1.300e+01 -1.300e+01 -1.300e+01 -1.300e+01 -1.300e+01 -1.300e+01 -1.300e+01 -1.300e+01 -1.300e+01 -1.300e+01 -1.300e+01 -1.300e+01 -1.300e+01 -1.300e+01 -1.300e+01 -1.300e+01 -1.300e+01 -1.300e+01 -1.300e+01 -1.300e+01 -1.300e+01 -1.300e+01 -1.300e+01 -1.300e+01 -1.300e+01 -1.300e+01 -1.300e+01 -1.300e+01 -1.300e+01 -1.300e+01 -1.300e+01 -1.300e+01 -1.300e+01 -1.300e+01 -1.300e+01 -1.300e+01 -1.300e+01 -1.300e+01 -1.300e+01 -1.300e+01 -1.300e+01 -1.300e+01 -1.300e+01 -1.300e+01 -1.300e+01 -1.300e+01 -1.300e+01 -1.300e+01 -1.300e+01 -1.300e+01 -1.300e+01 -1.300e+01 -1.300e+01 -1.300e+01 -1.300e+01 -1.300e+01 -1.300e+01 -1.300e+01 -1.300e+01 -1.300e+01 -1.300e+01 -1.300e+01 -1.300e+01 -1.300e+01 -1.300e+01 -1.300e+01 -1.300e+01 -1.300e+01 -1.300e+01 -1.300e+01 -1.300e+01 -1.300e+01 -1.300e+01 -1.300e+01 -1.300e+01 -1.300e+01 -1.300e+01 -1.300e+01 -1.300e+01 -1.300e+01 -1.300e+01 -1.300e+01 -1.300e+01 -1.300e+01 -1.300e+01 -1.300e+01 -1.300e+01 -1.300e+01 -1.300e+01 -1.300e+01 -1.300e+01 -1.300e+01 -1.300e+01 -1.300e+01 -1.300e+01 -1.300e+01 -1.300e+01 -1.300e+01 -1.300e+01 -1.300e+01 -1.300e+01 -1.300e+01 -1.300e+01 -1.300e+01 -1.300e+01 -1.300e+01 -1.300e+01 -1.300e+01 -1.300e+01 -1.300e+01 -1.300e+01 -1.300e+01 -1.300e+01 -1.300e+01 -1.300e+01 -1.300e+01 -1.300e+01 -1.300e+01 -1.300e+01 -1.300e+01 -1.300e+01 -1.300e+01 -1.300e+01 -1.300e+01 -1.300e+01 -1.300e+01 -1.300e+01 -1.300e+01 -1.300e+01 -1.300e+01 -1.300e+01 -1.300e+01 -1.300e+01 -1.300e+01 -1.300e+01 -1.300e+01 -1.300e+01 -1.300e+01 -1.300e+01 -1.300e+01 -1.300e+01 -1.300e+01 -1.300e+01 -1.300e+01 -1.300e+01 -1.300e+01 -1.300e+01 -1.300e+01 -1.300e+01 -1.300e+01 -1.300e+01 -1.300e+01 -1.300e+01 -1.300e+01 -1.300e+01 -1.300e+01 -1.300e+01 -1.300e+01 -1.300e+01 -1.300e+01 -1.300e+01 -1.300e+01 -1.300e+01 -1.300e+01 -1.300e+01 -1.300e+01 -1.300e+01 -1.300e+01 -1.300e+01 -1.300e+01 -1.300e+01 -1.300e+01 -5.000e+00 -5.000e+00 -5.000e+00 -5.000e+00 -5.000e+00 -5.000e+00 -5.000e+00 -5.000e+00 -5.000e+00 -5.000e+00 -5.000e+00 -5.000e+00 -5.000e+00 -5.000e+00 -5.000e+00 -5.000e+00 -5.000e+00 -5.000e+00 -5.000e+00 -5.000e+00 -5.000e+00 -5.000e+00 -5.000e+00 -5.000e+00 -5.000e+00 -5.000e+00 -5.000e+00 -5.000e+00 -5.000e+00 -5.000e+00 -5.000e+00 -5.000e+00 -5.000e+00 -5.000e+00 -5.000e+00 -5.000e+00 -5.000e+00 -5.000e+00 -5.000e+00 -5.000e+00 -5.000e+00 -5.000e+00 -5.000e+00 -1.300e+01 -1.300e+01 -1.300e+01 -1.300e+01 -1.300e+01 -1.300e+01 -1.300e+01 -1.300e+01 -1.300e+01 -1.300e+01 -1.300e+01 -1.300e+01 -1.300e+01 -1.300e+01 -1.300e+01 -1.300e+01 -1.300e+01 -1.300e+01 -1.300e+01 -1.300e+01 -1.300e+01 -1.300e+01 -1.300e+01 -1.300e+01 -1.300e+01 -1.300e+01 -1.300e+01 -1.300e+01 -1.300e+01 -1.300e+01 -1.300e+01 -1.300e+01 -1.300e+01 -1.300e+01 -1.300e+01 -1.300e+01 -1.300e+01 -1.300e+01 -1.300e+01 -1.300e+01 -1.300e+01 -1.300e+01 -1.300e+01 -1.300e+01 -1.300e+01 -1.300e+01 -1.300e+01 -1.300e+01 -1.300e+01 -1.300e+01 -1.300e+01 -1.300e+01 -1.300e+01 -1.300e+01 -1.300e+01 -1.300e+01 -1.300e+01 -1.300e+01 -1.300e+01 -1.300e+01 -1.300e+01 -1.300e+01 -1.300e+01 -1.300e+01 -1.300e+01 -1.300e+01 -1.300e+01 -1.300e+01 -1.300e+01 -1.300e+01 -1.300e+01 -1.300e+01 -1.300e+01 -1.300e+01 -1.300e+01 -1.300e+01 -1.300e+01 -1.300e+01 -1.300e+01 -1.300e+01 -1.300e+01 -1.300e+01 -1.300e+01 -1.300e+01 -1.300e+01 -1.300e+01 -1.300e+01 -1.300e+01 -1.300e+01 -1.300e+01 -1.300e+01 -1.300e+01 -1.300e+01 -1.300e+01 -1.300e+01 -1.300e+01 -1.300e+01 -1.300e+01 -1.300e+01 -1.300e+01 -1.300e+01 -1.300e+01 -1.300e+01 -1.300e+01 -1.300e+01 -1.300e+01 -1.300e+01 -1.300e+01 -1.300e+01 -1.300e+01 -1.300e+01 -1.300e+01 -1.300e+01 -1.300e+01 -1.300e+01 -1.300e+01 -1.300e+01 -1.300e+01 -1.300e+01 -1.300e+01 -1.300e+01 -1.300e+01 -1.300e+01 -1.300e+01 -1.300e+01 -1.300e+01 -1.300e+01 -1.300e+01 -1.300e+01 -1.300e+01 -1.300e+01 -1.300e+01 -1.300e+01 -1.300e+01 -1.300e+01 -1.300e+01 -1.300e+01 -1.300e+01 -1.300e+01 -1.300e+01 -1.300e+01 -1.300e+01 -1.300e+01 -1.300e+01 -1.300e+01 -1.300e+01 -1.300e+01 -1.300e+01 -1.300e+01 -1.300e+01 -1.300e+01 -1.300e+01 -1.300e+01 -1.300e+01 -1.300e+01 -1.300e+01 -1.300e+01 -1.300e+01 -1.300e+01 -1.300e+01 -1.300e+01 -1.300e+01 -1.300e+01 -1.300e+01 -1.300e+01 -1.300e+01 -1.300e+01 -1.300e+01 -1.300e+01 -1.300e+01 -1.300e+01 -1.300e+01 -1.300e+01 -1.300e+01 -1.300e+01 -1.300e+01 -1.300e+01 -1.300e+01 -1.300e+01 -1.300e+01 -1.300e+01 -1.300e+01 -1.300e+01 -1.300e+01 -1.300e+01 -1.300e+01 -1.300e+01 -1.300e+01 -1.300e+01 -1.300e+01 -1.300e+01 -1.300e+01 -1.300e+01 -1.300e+01 -1.300e+01 -1.300e+01 -1.300e+01 -1.300e+01 -1.300e+01 -1.300e+01 -1.300e+01 -1.300e+01 -1.300e+01 -1.300e+01 -1.300e+01 -1.300e+01 -1.300e+01 -1.300e+01 -1.300e+01 -1.300e+01 -1.300e+01 -1.300e+01 -1.300e+01 -1.300e+01 -1.300e+01 -1.300e+01 -1.300e+01 -1.300e+01 -1.300e+01 -1.300e+01 -1.300e+01 -1.300e+01 -1.300e+01 -1.300e+01 -1.300e+01 -1.300e+01 -1.300e+01 -1.300e+01 -1.300e+01 -1.300e+01 -1.300e+01 -1.300e+01 -1.300e+01 -1.300e+01 -1.300e+01 -1.300e+01 -1.300e+01 -1.300e+01 -1.300e+01 -1.300e+01 -1.300e+01 -1.300e+01 -1.300e+01 -1.300e+01 -1.300e+01 -1.300e+01 -1.300e+01 -1.300e+01 -1.300e+01 -1.300e+01 -1.300e+01 -1.300e+01 -1.300e+01 -1.300e+01 -1.300e+01 -1.300e+01 -1.300e+01 -1.300e+01 -1.300e+01 -1.300e+01 -1.300e+01 -1.300e+01 -1.300e+01 -1.300e+01 -1.300e+01 -1.300e+01 -1.300e+01 -1.300e+01 -1.300e+01 -1.300e+01 -1.300e+01 -1.300e+01 -1.300e+01 -1.300e+01 -1.300e+01 -1.300e+01 -1.300e+01 -1.300e+01 -1.300e+01 -1.300e+01 -1.300e+01 -1.300e+01 -1.300e+01 -1.300e+01 -1.300e+01 -1.300e+01 -1.300e+01 -1.300e+01 -1.300e+01 -1.300e+01 -1.300e+01 -1.300e+01 -1.300e+01 -1.300e+01 -1.300e+01 -1.300e+01 -1.300e+01 -1.300e+01 -1.300e+01 -1.300e+01 -1.300e+01 -1.300e+01 -1.300e+01 -1.300e+01 -1.300e+01 -1.300e+01 -1.300e+01 -1.300e+01 -1.300e+01 -1.300e+01 -1.300e+01 -1.300e+01 -1.300e+01 -1.300e+01 -1.300e+01 -1.300e+01 -1.300e+01 -1.300e+01 -1.300e+01 -1.300e+01 -1.300e+01 -1.300e+01 -1.300e+01 -1.300e+01 -1.300e+01 -1.300e+01 -1.300e+01 -1.300e+01 -1.300e+01 -1.300e+01 -1.300e+01 -1.300e+01 -1.300e+01 -1.300e+01 -1.300e+01 -1.300e+01 -1.300e+01 -1.300e+01 -1.300e+01 -1.300e+01 -1.300e+01 -1.300e+01 -1.300e+01 -1.300e+01 -1.300e+01 -1.300e+01 -1.300e+01 -1.300e+01 -1.300e+01 -1.300e+01 -1.300e+01 -1.300e+01 -1.300e+01 -1.300e+01 -1.300e+01 -1.300e+01 -1.300e+01 -1.300e+01 -1.300e+01 -1.300e+01 -1.300e+01 -1.300e+01 -1.300e+01 -1.300e+01 -1.300e+01 -1.300e+01 -1.300e+01 -1.300e+01 -1.300e+01 -1.300e+01 -1.300e+01 -1.300e+01 -1.300e+01 -1.300e+01 -1.300e+01 -1.300e+01 -1.300e+01 -1.300e+01 -1.300e+01 -1.300e+01 -1.300e+01 -1.300e+01 -1.300e+01 -1.300e+01 -1.300e+01 -1.300e+01 -1.300e+01 -1.300e+01 -1.300e+01 -1.300e+01 -1.300e+01 -1.300e+01 -1.300e+01 -1.300e+01 -1.300e+01 -1.300e+01 -1.300e+01 -1.300e+01 -1.300e+01 -1.300e+01 -1.300e+01 -1.300e+01 -1.300e+01 -1.300e+01 -1.300e+01 -1.300e+01 -1.300e+01 -1.300e+01 -1.300e+01 -1.300e+01 -1.300e+01 -1.300e+01 -1.300e+01 -1.300e+01 -1.300e+01 -1.300e+01 -1.300e+01 -1.300e+01 -1.300e+01 -1.300e+01 -1.300e+01 -1.300e+01 -1.300e+01 -1.300e+01 -1.300e+01 -1.300e+01 -1.300e+01 -1.300e+01 -1.300e+01 -1.300e+01 -1.300e+01 -1.300e+01 -1.300e+01 -1.300e+01 -1.300e+01 -1.300e+01 -1.300e+01 -1.300e+01 -1.300e+01 -1.300e+01 -1.300e+01 -1.300e+01 -1.300e+01 -1.300e+01 -1.300e+01 -1.300e+01 -1.300e+01 -1.300e+01 -1.300e+01 -1.300e+01 -1.300e+01 -1.300e+01 -1.300e+01 -1.300e+01 -1.300e+01 -1.300e+01 -1.300e+01 -5.000e+00 -5.000e+00 -5.000e+00 -5.000e+00 -5.000e+00 -5.000e+00 -5.000e+00 -5.000e+00 -5.000e+00 -5.000e+00 -5.000e+00 -5.000e+00 -5.000e+00 -5.000e+00 -5.000e+00 -5.000e+00 -5.000e+00 -5.000e+00 -5.000e+00 -5.000e+00 -5.000e+00 -5.000e+00 -5.000e+00 -5.000e+00 -5.000e+00 -5.000e+00 -5.000e+00 -5.000e+00 -5.000e+00 -5.000e+00 -5.000e+00 -5.000e+00 -5.000e+00 -5.000e+00 -5.000e+00 -5.000e+00 -5.000e+00 -5.000e+00 -5.000e+00 -5.000e+00 -5.000e+00 -5.000e+00 -5.000e+00 -1.300e+01 -1.300e+01 -1.300e+01 -1.300e+01 -1.300e+01 -1.300e+01 -1.300e+01 -1.300e+01 -1.300e+01 -1.300e+01 -1.300e+01 -1.300e+01 -1.300e+01 -1.300e+01 -1.300e+01 -1.300e+01 -1.300e+01 -1.300e+01 -1.300e+01 -1.300e+01 -1.300e+01 -1.300e+01 -1.300e+01 -1.300e+01 -1.300e+01 -1.300e+01 -1.300e+01 -1.300e+01 -1.300e+01 -1.300e+01 -1.300e+01 -1.300e+01 -1.300e+01 -1.300e+01 -1.300e+01 -1.300e+01 -1.300e+01 -1.300e+01 -1.300e+01 -1.300e+01 -1.300e+01 -1.300e+01 -1.300e+01 -1.300e+01 -1.300e+01 -1.300e+01 -1.300e+01 -1.300e+01 -1.300e+01 -1.300e+01 -1.300e+01 -1.300e+01 -1.300e+01 -1.300e+01 -1.300e+01 -1.300e+01 -1.300e+01 -1.300e+01 -1.300e+01 -1.300e+01 -1.300e+01 -1.300e+01 -1.300e+01 -1.300e+01 -1.300e+01 -1.300e+01 -1.300e+01 -1.300e+01 -1.300e+01 -1.300e+01 -1.300e+01 -1.300e+01 -1.300e+01 -1.300e+01 -1.300e+01 -1.300e+01 -1.300e+01 -1.300e+01 -1.300e+01 -1.300e+01 -1.300e+01 -1.300e+01 -1.300e+01 -1.300e+01 -1.300e+01 -1.300e+01 -1.300e+01 -1.300e+01 -1.300e+01 -1.300e+01 -1.300e+01 -1.300e+01 -1.300e+01 -1.300e+01 -1.300e+01 -1.300e+01 -1.300e+01 -1.300e+01 -1.300e+01 -1.300e+01 -1.300e+01 -1.300e+01 -1.300e+01 -1.300e+01 -1.300e+01 -1.300e+01 -1.300e+01 -1.300e+01 -1.300e+01 -1.300e+01 -1.300e+01 -1.300e+01 -1.300e+01 -1.300e+01 -1.300e+01 -1.300e+01 -1.300e+01 -1.300e+01 -1.300e+01 -1.300e+01 -1.300e+01 -1.300e+01 -1.300e+01 -1.300e+01 -1.300e+01 -1.300e+01 -1.300e+01 -1.300e+01 -1.300e+01 -1.300e+01 -1.300e+01 -1.300e+01 -1.300e+01 -1.300e+01 -1.300e+01 -1.300e+01 -1.300e+01 -1.300e+01 -1.300e+01 -1.300e+01 -1.300e+01 -1.300e+01 -1.300e+01 -1.300e+01 -1.300e+01 -1.300e+01 -1.300e+01 -1.300e+01 -1.300e+01 -1.300e+01 -1.300e+01 -1.300e+01 -1.300e+01 -1.300e+01 -1.300e+01 -1.300e+01 -1.300e+01 -1.300e+01 -1.300e+01 -1.300e+01 -1.300e+01 -1.300e+01 -1.300e+01 -1.300e+01 -1.300e+01 -1.300e+01 -1.300e+01 -1.300e+01 -1.300e+01 -1.300e+01 -1.300e+01 -1.300e+01 -1.300e+01 -1.300e+01 -1.300e+01 -1.300e+01 -1.300e+01 -1.300e+01 -1.300e+01 -1.300e+01 -1.300e+01 -1.300e+01 -1.300e+01 -1.300e+01 -1.300e+01 -1.300e+01 -1.300e+01 -1.300e+01 -1.300e+01 -1.300e+01 -1.300e+01 -1.300e+01 -1.300e+01 -1.300e+01 -1.300e+01 -1.300e+01 -1.300e+01 -1.300e+01 -1.300e+01 -1.300e+01 -1.300e+01 -1.300e+01 -1.300e+01 -1.300e+01 -1.300e+01 -1.300e+01 -1.300e+01 -1.300e+01 -1.300e+01 -1.300e+01 -1.300e+01 -1.300e+01 -1.300e+01 -1.300e+01 -1.300e+01 -1.300e+01 -1.300e+01 -1.300e+01 -1.300e+01 -1.300e+01 -1.300e+01 -1.300e+01 -1.300e+01 -1.300e+01 -1.300e+01 -1.300e+01 -1.300e+01 -1.300e+01 -1.300e+01 -1.300e+01 -1.300e+01 -1.300e+01 -1.300e+01 -1.300e+01 -1.300e+01 -1.300e+01 -1.300e+01 -1.300e+01 -1.300e+01 -1.300e+01 -1.300e+01 -1.300e+01 -1.300e+01 -1.300e+01 -1.300e+01 -1.300e+01 -1.300e+01 -1.300e+01 -1.300e+01 -1.300e+01 -1.300e+01 -1.300e+01 -1.300e+01 -1.300e+01 -1.300e+01 -1.300e+01 -1.300e+01 -1.300e+01 -1.300e+01 -1.300e+01 -1.300e+01 -1.300e+01 -1.300e+01 -1.300e+01 -1.300e+01 -1.300e+01 -1.300e+01 -1.300e+01 -1.300e+01 -1.300e+01 -1.300e+01 -1.300e+01 -1.300e+01 -1.300e+01 -1.300e+01 -1.300e+01 -1.300e+01 -1.300e+01 -1.300e+01 -1.300e+01 -1.300e+01 -1.300e+01 -1.300e+01 -1.300e+01 -1.300e+01 -1.300e+01 -1.300e+01 -1.300e+01 -1.300e+01 -1.300e+01 -1.300e+01 -1.300e+01 -1.300e+01 -1.300e+01 -1.300e+01 -1.300e+01 -1.300e+01 -1.300e+01 -1.300e+01 -1.300e+01 -1.300e+01 -1.300e+01 -1.300e+01 -1.300e+01 -1.300e+01 -1.300e+01 -1.300e+01 -1.300e+01 -1.300e+01 -1.300e+01 -1.300e+01 -1.300e+01 -1.300e+01 -1.300e+01 -1.300e+01 -1.300e+01 -1.300e+01 -1.300e+01 -1.300e+01 -1.300e+01 -1.300e+01 -1.300e+01 -1.300e+01 -1.300e+01 -1.300e+01 -1.300e+01 -1.300e+01 -1.300e+01 -1.300e+01 -1.300e+01 -1.300e+01 -1.300e+01 -1.300e+01 -1.300e+01 -1.300e+01 -1.300e+01 -1.300e+01 -1.300e+01 -1.300e+01 -1.300e+01 -1.300e+01 -1.300e+01 -1.300e+01 -1.300e+01 -1.300e+01 -1.300e+01 -1.300e+01 -1.300e+01 -1.300e+01 -1.300e+01 -1.300e+01 -1.300e+01 -1.300e+01 -1.300e+01 -1.300e+01 -1.300e+01 -1.300e+01 -1.300e+01 -1.300e+01 -1.300e+01 -1.300e+01 -1.300e+01 -1.300e+01 -1.300e+01 -1.300e+01 -1.300e+01 -1.300e+01 -1.300e+01 -1.300e+01 -1.300e+01 -1.300e+01 -1.300e+01 -1.300e+01 -1.300e+01 -1.300e+01 -1.300e+01 -1.300e+01 -1.300e+01 -1.300e+01 -1.300e+01 -1.300e+01 -1.300e+01 -1.300e+01 -1.300e+01 -1.300e+01 -1.300e+01 -1.300e+01 -1.300e+01 -1.300e+01 -1.300e+01 -1.300e+01 -1.300e+01 -1.300e+01 -1.300e+01 -1.300e+01 -1.300e+01 -1.300e+01 -1.300e+01 -1.300e+01 -1.300e+01 -1.300e+01 -1.300e+01 -1.300e+01 -1.300e+01 -1.300e+01 -1.300e+01 -1.300e+01 -1.300e+01 -1.300e+01 -1.300e+01 -1.300e+01 -1.300e+01 -1.300e+01 -1.300e+01 -1.300e+01 -1.300e+01 -1.300e+01 -1.300e+01 -1.300e+01 -1.300e+01 -1.300e+01 -1.300e+01 -1.300e+01 -1.300e+01 -1.300e+01 -1.300e+01 -1.300e+01 -1.300e+01 -1.300e+01 -1.300e+01 -1.300e+01 -1.300e+01 -1.300e+01 -1.300e+01 -1.300e+01 -1.300e+01 -1.300e+01 -1.300e+01 -1.300e+01 -1.300e+01 -1.300e+01 -1.300e+01 -1.300e+01 -1.300e+01 -1.300e+01 -1.300e+01 -1.300e+01 -1.300e+01 -1.300e+01 -1.300e+01 -1.300e+01 -1.300e+01 -1.300e+01 -1.300e+01 -1.300e+01 -5.000e+00 -5.000e+00 -5.000e+00 -5.000e+00 -5.000e+00 -5.000e+00 -5.000e+00 -5.000e+00 -5.000e+00 -5.000e+00 -5.000e+00 -5.000e+00 -5.000e+00 -5.000e+00 -5.000e+00 -5.000e+00 -5.000e+00 -5.000e+00 -5.000e+00 -5.000e+00 -5.000e+00 -5.000e+00 -5.000e+00 -5.000e+00 -5.000e+00 -5.000e+00 -5.000e+00 -5.000e+00 -5.000e+00 -5.000e+00 -5.000e+00 -5.000e+00 -5.000e+00 -5.000e+00 -5.000e+00 -5.000e+00 -5.000e+00 -5.000e+00 -5.000e+00 -5.000e+00 -5.000e+00 -5.000e+00 -5.000e+00 -1.300e+01 -1.300e+01 -1.300e+01 -1.300e+01 -1.300e+01 -1.300e+01 -1.300e+01 -1.300e+01 -1.300e+01 -1.300e+01 -1.300e+01 -1.300e+01 -1.300e+01 -1.300e+01 -1.300e+01 -1.300e+01 -1.300e+01 -1.300e+01 -1.300e+01 -1.300e+01 -1.300e+01 -1.300e+01 -1.300e+01 -1.300e+01 -1.300e+01 -1.300e+01 -1.300e+01 -1.300e+01 -1.300e+01 -1.300e+01 -1.300e+01 -1.300e+01 -1.300e+01 -1.300e+01 -1.300e+01 -1.300e+01 -1.300e+01 -1.300e+01 -1.300e+01 -1.300e+01 -1.300e+01 -1.300e+01 -1.300e+01 -1.300e+01 -1.300e+01 -1.300e+01 -1.300e+01 -1.300e+01 -1.300e+01 -1.300e+01 -1.300e+01 -1.300e+01 -1.300e+01 -1.300e+01 -1.300e+01 -1.300e+01 -1.300e+01 -1.300e+01 -1.300e+01 -1.300e+01 -1.300e+01 -1.300e+01 -1.300e+01 -1.300e+01 -1.300e+01 -1.300e+01 -1.300e+01 -1.300e+01 -1.300e+01 -1.300e+01 -1.300e+01 -1.300e+01 -1.300e+01 -1.300e+01 -1.300e+01 -1.300e+01 -1.300e+01 -1.300e+01 -1.300e+01 -1.300e+01 -1.300e+01 -1.300e+01 -1.300e+01 -1.300e+01 -1.300e+01 -1.300e+01 -1.300e+01 -1.300e+01 -1.300e+01 -1.300e+01 -1.300e+01 -1.300e+01 -1.300e+01 -1.300e+01 -1.300e+01 -1.300e+01 -1.300e+01 -1.300e+01 -1.300e+01 -1.300e+01 -1.300e+01 -1.300e+01 -1.300e+01 -1.300e+01 -1.300e+01 -1.300e+01 -1.300e+01 -1.300e+01 -1.300e+01 -1.300e+01 -1.300e+01 -1.300e+01 -1.300e+01 -1.300e+01 -1.300e+01 -1.300e+01 -1.300e+01 -1.300e+01 -1.300e+01 -1.300e+01 -1.300e+01 -1.300e+01 -1.300e+01 -1.300e+01 -1.300e+01 -1.300e+01 -1.300e+01 -1.300e+01 -1.300e+01 -1.300e+01 -1.300e+01 -1.300e+01 -1.300e+01 -1.300e+01 -1.300e+01 -1.300e+01 -1.300e+01 -1.300e+01 -1.300e+01 -1.300e+01 -1.300e+01 -1.300e+01 -1.300e+01 -1.300e+01 -1.300e+01 -1.300e+01 -1.300e+01 -1.300e+01 -1.300e+01 -1.300e+01 -1.300e+01 -1.300e+01 -1.300e+01 -1.300e+01 -1.300e+01 -1.300e+01 -1.300e+01 -1.300e+01 -1.300e+01 -1.300e+01 -1.300e+01 -1.300e+01 -1.300e+01 -1.300e+01 -1.300e+01 -1.300e+01 -1.300e+01 -1.300e+01 -1.300e+01 -1.300e+01 -1.300e+01 -1.300e+01 -1.300e+01 -1.300e+01 -1.300e+01 -1.300e+01 -1.300e+01 -1.300e+01 -1.300e+01 -1.300e+01 -1.300e+01 -1.300e+01 -1.300e+01 -1.300e+01 -1.300e+01 -1.300e+01 -1.300e+01 -1.300e+01 -1.300e+01 -1.300e+01 -1.300e+01 -1.300e+01 -1.300e+01 -1.300e+01 -1.300e+01 -1.300e+01 -1.300e+01 -1.300e+01 -1.300e+01 -1.300e+01 -1.300e+01 -1.300e+01 -1.300e+01 -1.300e+01 -1.300e+01 -1.300e+01 -1.300e+01 -1.300e+01 -1.300e+01 -1.300e+01 -1.300e+01 -1.300e+01 -1.300e+01 -1.300e+01 -1.300e+01 -1.300e+01 -1.300e+01 -1.300e+01 -1.300e+01 -1.300e+01 -1.300e+01 -1.300e+01 -1.300e+01 -1.300e+01 -1.300e+01 -1.300e+01 -1.300e+01 -1.300e+01 -1.300e+01 -1.300e+01 -1.300e+01 -1.300e+01 -1.300e+01 -1.300e+01 -1.300e+01 -1.300e+01 -1.300e+01 -1.300e+01 -1.300e+01 -1.300e+01 -1.300e+01 -1.300e+01 -1.300e+01 -1.300e+01 -1.300e+01 -1.300e+01 -1.300e+01 -1.300e+01 -1.300e+01 -1.300e+01 -1.300e+01 -1.300e+01 -1.300e+01 -1.300e+01 -1.300e+01 -1.300e+01 -1.300e+01 -1.300e+01 -1.300e+01 -1.300e+01 -1.300e+01 -1.300e+01 -1.300e+01 -1.300e+01 -1.300e+01 -1.300e+01 -1.300e+01 -1.300e+01 -1.300e+01 -1.300e+01 -1.300e+01 -1.300e+01 -1.300e+01 -1.300e+01 -1.300e+01 -1.300e+01 -1.300e+01 -1.300e+01 -1.300e+01 -1.300e+01 -1.300e+01 -1.300e+01 -1.300e+01 -1.300e+01 -1.300e+01 -1.300e+01 -1.300e+01 -1.300e+01 -1.300e+01 -1.300e+01 -1.300e+01 -1.300e+01 -1.300e+01 -1.300e+01 -1.300e+01 -1.300e+01 -1.300e+01 -1.300e+01 -1.300e+01 -1.300e+01 -1.300e+01 -1.300e+01 -1.300e+01 -1.300e+01 -1.300e+01 -1.300e+01