<?xml version="1.0"?>
<VTKFile type="UnstructuredGrid" version="0.1" byte_order="LittleEndian">
   <UnstructuredGrid>
      <Piece NumberOfPoints="14060" NumberOfCells="995">
         <Points>
            <DataArray type="Float32" Name="Position" NumberOfComponents="3" format="ascii">
0.138	-5.019	0.063
0.142	-5.018	0.071
0.141	-5.018	0.080
0.134	-5.018	0.087
0.125	-5.019	0.089
0.117	-5.019	0.084
0.113	-5.020	0.076
0.114	-5.021	0.067
0.121	-5.021	0.060
0.130	-5.020	0.059
0.202	-5.871	0.125
0.207	-5.870	0.133
0.205	-5.869	0.142
0.199	-5.870	0.149
0.190	-5.871	0.151
0.182	-5.873	0.147
0.178	-5.875	0.139
0.179	-5.876	0.130
0.185	-5.875	0.123
0.194	-5.873	0.121
0.333	-6.297	0.170
0.338	-6.295	0.177
0.337	-6.294	0.187
0.331	-6.295	0.194
0.322	-6.298	0.196
0.314	-6.301	0.192
0.310	-6.303	0.184
0.311	-6.304	0.175
0.317	-6.303	0.168
0.325	-6.300	0.166
0.260	-5.055	0.132
0.258	-5.048	0.137
0.254	-5.046	0.146
0.250	-5.049	0.153
0.247	-5.057	0.157
0.247	-5.066	0.156
0.249	-5.073	0.151
0.253	-5.075	0.143
0.257	-5.072	0.135
0.260	-5.064	0.131
0.960	-5.105	0.485
0.958	-5.098	0.491
0.955	-5.096	0.499
0.951	-5.099	0.506
0.948	-5.107	0.510
0.948	-5.117	0.509
0.950	-5.124	0.504
0.954	-5.126	0.495
0.958	-5.122	0.488
0.960	-5.114	0.484
1.619	-5.172	0.780
1.617	-5.165	0.786
1.614	-5.163	0.794
1.610	-5.167	0.802
1.607	-5.175	0.806
1.607	-5.184	0.804
1.609	-5.191	0.798
1.612	-5.193	0.790
1.616	-5.189	0.783
1.619	-5.181	0.779
1.335	-5.666	0.701
1.339	-5.657	0.702
1.338	-5.648	0.703
1.331	-5.642	0.704
1.322	-5.641	0.703
1.314	-5.645	0.702
1.310	-5.653	0.700
1.311	-5.662	0.699
1.318	-5.669	0.699
1.327	-5.670	0.700
1.255	-5.776	1.529
1.259	-5.768	1.530
1.257	-5.759	1.531
1.251	-5.752	1.532
1.242	-5.751	1.531
1.233	-5.755	1.530
1.229	-5.763	1.529
1.231	-5.773	1.528
1.238	-5.779	1.527
1.247	-5.780	1.528
1.246	-5.802	1.743
1.250	-5.794	1.744
1.248	-5.785	1.746
1.241	-5.778	1.746
1.232	-5.777	1.746
1.224	-5.782	1.745
1.220	-5.790	1.744
1.222	-5.799	1.743
1.228	-5.805	1.742
1.238	-5.806	1.742
1.430	-5.725	0.753
1.437	-5.722	0.758
1.444	-5.725	0.763
1.448	-5.733	0.767
1.448	-5.742	0.767
1.443	-5.749	0.764
1.436	-5.752	0.759
1.429	-5.749	0.753
1.425	-5.741	0.750
1.425	-5.732	0.749
1.968	-5.765	0.055
1.975	-5.762	0.061
1.981	-5.765	0.067
1.985	-5.772	0.071
1.985	-5.782	0.071
1.981	-5.789	0.067
1.974	-5.792	0.061
1.967	-5.789	0.055
1.964	-5.781	0.051
1.964	-5.772	0.051
2.264	-5.775	-0.218
2.270	-5.772	-0.211
2.276	-5.775	-0.205
2.279	-5.783	-0.201
2.279	-5.792	-0.201
2.275	-5.800	-0.205
2.269	-5.802	-0.211
2.263	-5.799	-0.218
2.259	-5.792	-0.222
2.260	-5.783	-0.222
1.558	-5.831	0.816
1.562	-5.823	0.818
1.561	-5.814	0.819
1.555	-5.807	0.818
1.547	-5.805	0.816
1.538	-5.809	0.813
1.534	-5.816	0.811
1.535	-5.826	0.811
1.541	-5.833	0.812
1.550	-5.835	0.814
1.340	-5.905	1.668
1.344	-5.897	1.670
1.343	-5.888	1.670
1.337	-5.881	1.669
1.328	-5.879	1.668
1.320	-5.883	1.666
1.315	-5.891	1.665
1.316	-5.900	1.664
1.323	-5.907	1.665
1.332	-5.909	1.666
1.276	-5.933	2.188
1.281	-5.925	2.189
1.279	-5.916	2.189
1.273	-5.909	2.189
1.264	-5.907	2.188
1.256	-5.911	2.186
1.251	-5.919	2.185
1.253	-5.928	2.185
1.259	-5.935	2.185
1.268	-5.937	2.187
1.672	-5.906	0.863
1.673	-5.909	0.872
1.670	-5.910	0.880
1.662	-5.907	0.885
1.654	-5.903	0.885
1.648	-5.899	0.880
1.646	-5.896	0.871
1.650	-5.896	0.863
1.657	-5.898	0.857
1.665	-5.902	0.857
1.318	-6.658	0.672
1.318	-6.661	0.681
1.314	-6.661	0.689
1.306	-6.658	0.693
1.299	-6.652	0.692
1.294	-6.647	0.686
1.294	-6.644	0.678
1.298	-6.644	0.670
1.306	-6.647	0.665
1.313	-6.652	0.666
1.008	-7.045	0.498
1.006	-7.048	0.506
1.001	-7.046	0.513
0.993	-7.042	0.516
0.987	-7.035	0.513
0.984	-7.030	0.506
0.986	-7.028	0.498
0.992	-7.029	0.491
0.999	-7.034	0.488
1.006	-7.040	0.490
1.762	-5.978	0.920
1.769	-5.975	0.926
1.776	-5.978	0.932
1.780	-5.985	0.935
1.779	-5.995	0.936
1.775	-6.002	0.932
1.768	-6.005	0.927
1.761	-6.002	0.921
1.758	-5.994	0.917
1.758	-5.985	0.917
2.268	-6.013	0.322
2.274	-6.011	0.328
2.280	-6.014	0.335
2.284	-6.021	0.339
2.283	-6.030	0.339
2.279	-6.038	0.335
2.273	-6.041	0.329
2.267	-6.038	0.322
2.264	-6.030	0.318
2.264	-6.021	0.318
2.506	-6.020	0.139
2.511	-6.017	0.146
2.516	-6.020	0.153
2.520	-6.027	0.157
2.519	-6.037	0.157
2.516	-6.044	0.153
2.511	-6.047	0.146
2.505	-6.044	0.139
2.502	-6.037	0.135
2.502	-6.027	0.135
1.883	-6.074	0.967
1.881	-6.067	0.973
1.877	-6.065	0.981
1.873	-6.069	0.988
1.870	-6.076	0.992
1.869	-6.086	0.991
1.871	-6.093	0.986
1.875	-6.095	0.978
1.879	-6.091	0.970
1.882	-6.084	0.966
2.672	-6.164	1.355
2.670	-6.157	1.361
2.666	-6.154	1.369
2.662	-6.157	1.376
2.658	-6.164	1.380
2.657	-6.173	1.380
2.659	-6.181	1.374
2.663	-6.184	1.366
2.667	-6.181	1.359
2.671	-6.173	1.355
3.056	-6.246	1.584
3.054	-6.239	1.589
3.050	-6.236	1.597
3.046	-6.238	1.604
3.041	-6.245	1.608
3.040	-6.254	1.608
3.041	-6.262	1.603
3.045	-6.265	1.595
3.050	-6.263	1.587
3.054	-6.256	1.583
1.991	-6.188	1.025
1.995	-6.180	1.027
1.993	-6.171	1.029
1.986	-6.164	1.029
1.977	-6.163	1.029
1.969	-6.168	1.027
1.965	-6.176	1.025
1.967	-6.185	1.023
1.974	-6.191	1.023
1.983	-6.192	1.024
1.903	-6.363	1.895
1.906	-6.355	1.897
1.905	-6.346	1.898
1.898	-6.340	1.899
1.889	-6.338	1.898
1.881	-6.343	1.897
1.877	-6.351	1.895
1.879	-6.360	1.893
1.886	-6.366	1.892
1.895	-6.367	1.893
2.090	-6.280	1.064
2.093	-6.284	1.071
2.091	-6.287	1.080
2.084	-6.286	1.087
2.075	-6.283	1.088
2.068	-6.279	1.085
2.065	-6.275	1.077
2.067	-6.272	1.069
2.074	-6.272	1.062
2.082	-6.275	1.060
1.787	-6.990	0.773
1.790	-6.994	0.780
1.788	-6.997	0.789
1.782	-6.997	0.795
1.773	-6.994	0.797
1.766	-6.989	0.794
1.763	-6.985	0.786
1.765	-6.982	0.777
1.771	-6.983	0.771
1.780	-6.985	0.769
2.168	-6.372	1.117
2.176	-6.369	1.122
2.183	-6.372	1.128
2.186	-6.380	1.132
2.185	-6.389	1.133
2.180	-6.396	1.130
2.172	-6.399	1.126
2.165	-6.396	1.120
2.162	-6.388	1.116
2.163	-6.379	1.115
2.639	-6.508	0.444
2.646	-6.505	0.449
2.653	-6.508	0.455
2.657	-6.516	0.458
2.656	-6.525	0.459
2.651	-6.532	0.456
2.644	-6.535	0.451
2.637	-6.532	0.446
2.633	-6.524	0.442
2.634	-6.515	0.442
2.748	-6.513	0.295
2.755	-6.511	0.300
2.762	-6.514	0.305
2.766	-6.521	0.309
2.766	-6.530	0.309
2.761	-6.538	0.306
2.754	-6.541	0.301
2.747	-6.538	0.296
2.743	-6.530	0.292
2.743	-6.521	0.292
2.279	-6.500	1.175
2.283	-6.493	1.178
2.282	-6.483	1.179
2.276	-6.476	1.178
2.268	-6.474	1.175
2.260	-6.477	1.171
2.256	-6.485	1.169
2.257	-6.494	1.168
2.262	-6.501	1.169
2.271	-6.504	1.172
1.992	-6.612	1.893
1.996	-6.604	1.896
1.995	-6.595	1.897
1.989	-6.588	1.896
1.981	-6.585	1.893
1.973	-6.588	1.889
1.969	-6.596	1.886
1.970	-6.605	1.885
1.976	-6.613	1.887
1.984	-6.615	1.890
1.923	-6.632	2.057
1.928	-6.624	2.059
1.927	-6.615	2.060
1.921	-6.608	2.059
1.913	-6.605	2.055
1.905	-6.608	2.052
1.901	-6.616	2.049
1.901	-6.625	2.048
1.907	-6.633	2.050
1.916	-6.635	2.053
0.389	-5.117	0.214
0.393	-5.109	0.216
0.392	-5.100	0.216
0.386	-5.093	0.216
0.377	-5.091	0.214
0.369	-5.095	0.212
0.364	-5.103	0.210
0.366	-5.112	0.209
0.372	-5.119	0.210
0.381	-5.121	0.212
0.198	-5.220	1.094
0.203	-5.212	1.096
0.202	-5.202	1.096
0.196	-5.195	1.095
0.188	-5.193	1.093
0.179	-5.197	1.090
0.175	-5.205	1.089
0.176	-5.214	1.088
0.181	-5.221	1.089
0.190	-5.223	1.092
0.064	-5.228	1.480
0.069	-5.221	1.482
0.069	-5.211	1.482
0.063	-5.204	1.480
0.055	-5.202	1.478
0.047	-5.205	1.475
0.042	-5.213	1.473
0.042	-5.222	1.473
0.048	-5.229	1.475
0.056	-5.232	1.477
2.374	-6.605	1.225
2.378	-6.597	1.227
2.377	-6.588	1.228
2.371	-6.581	1.227
2.363	-6.579	1.224
2.355	-6.582	1.221
2.351	-6.590	1.218
2.352	-6.599	1.218
2.358	-6.606	1.219
2.366	-6.609	1.221
2.102	-6.712	1.979
2.107	-6.705	1.982
2.106	-6.695	1.982
2.101	-6.688	1.980
2.092	-6.686	1.977
2.084	-6.689	1.973
2.080	-6.696	1.971
2.081	-6.706	1.970
2.086	-6.713	1.972
2.095	-6.715	1.975
2.047	-6.718	2.083
2.052	-6.711	2.086
2.051	-6.701	2.087
2.046	-6.694	2.084
2.038	-6.691	2.080
2.031	-6.694	2.076
2.026	-6.702	2.073
2.027	-6.711	2.073
2.032	-6.719	2.075
2.040	-6.721	2.079
2.461	-6.695	1.256
2.459	-6.689	1.263
2.457	-6.688	1.272
2.454	-6.693	1.279
2.453	-6.702	1.282
2.453	-6.711	1.280
2.454	-6.717	1.273
2.457	-6.717	1.264
2.460	-6.713	1.257
2.461	-6.704	1.254
3.225	-6.743	1.485
3.224	-6.737	1.493
3.222	-6.737	1.502
3.219	-6.741	1.509
3.217	-6.750	1.512
3.217	-6.759	1.510
3.218	-6.765	1.502
3.220	-6.765	1.493
3.223	-6.760	1.486
3.225	-6.752	1.483
3.340	-6.768	1.508
3.339	-6.762	1.516
3.338	-6.762	1.525
3.335	-6.766	1.532
3.333	-6.775	1.535
3.331	-6.784	1.533
3.332	-6.789	1.525
3.333	-6.790	1.516
3.336	-6.785	1.509
3.338	-6.777	1.506
2.558	-6.810	1.301
2.555	-6.802	1.304
2.550	-6.798	1.311
2.545	-6.800	1.318
2.541	-6.806	1.323
2.540	-6.816	1.324
2.542	-6.824	1.321
2.547	-6.828	1.314
2.553	-6.826	1.307
2.557	-6.819	1.302
3.258	-6.832	1.834
3.255	-6.824	1.838
3.250	-6.820	1.844
3.245	-6.821	1.851
3.241	-6.828	1.856
3.240	-6.837	1.857
3.242	-6.845	1.854
3.247	-6.849	1.847
3.253	-6.848	1.840
3.257	-6.841	1.835
2.634	-6.910	1.351
2.642	-6.908	1.356
2.649	-6.911	1.361
2.653	-6.918	1.365
2.652	-6.928	1.366
2.647	-6.935	1.363
2.640	-6.938	1.358
2.633	-6.935	1.353
2.629	-6.927	1.349
2.629	-6.918	1.348
3.117	-6.992	0.674
3.124	-6.989	0.679
3.132	-6.992	0.684
3.136	-7.000	0.688
3.135	-7.009	0.688
3.131	-7.016	0.685
3.123	-7.019	0.680
3.116	-7.016	0.675
3.112	-7.008	0.672
3.112	-6.999	0.672
3.236	-6.994	0.497
3.244	-6.991	0.501
3.251	-6.994	0.506
3.255	-7.002	0.509
3.255	-7.011	0.509
3.251	-7.019	0.506
3.243	-7.021	0.502
3.236	-7.019	0.497
3.232	-7.011	0.494
3.232	-7.002	0.494
2.743	-7.043	1.402
2.747	-7.035	1.404
2.746	-7.026	1.404
2.739	-7.020	1.404
2.730	-7.018	1.403
2.722	-7.022	1.401
2.718	-7.030	1.399
2.719	-7.039	1.399
2.726	-7.046	1.399
2.735	-7.047	1.400
2.611	-7.131	2.194
2.615	-7.123	2.196
2.614	-7.114	2.197
2.607	-7.107	2.197
2.598	-7.106	2.196
2.590	-7.110	2.195
2.586	-7.118	2.193
2.587	-7.127	2.192
2.594	-7.134	2.192
2.603	-7.135	2.193
2.586	-7.141	2.396
2.586	-7.137	2.405
2.586	-7.138	2.414
2.586	-7.145	2.420
2.586	-7.154	2.422
2.586	-7.162	2.418
2.586	-7.166	2.409
2.586	-7.165	2.400
2.586	-7.158	2.394
2.586	-7.149	2.392
[...]
         <CellData>
           <DataArray type="Float32" Name="combinedRootClassID" NumberOfComponents="1" format="ascii">
 -1.300e+01 -1.300e+01 -1.300e+01 -1.300e+01 -1.300e+01 -1.300e+01 -1.300e+01 -1.300e+01 -1.300e+01 -1.300e+01 -1.300e+01 -1.300e+01 -1.300e+01 -1.300e+01 -1.300e+01 -1.300e+01 -1.300e+01 -1.300e+01 -1.300e+01 -1.300e+01 -1.300e+01 -1.300e+01 -1.300e+01 -1.300e+01 -1.300e+01 -1.300e+01 -1.300e+01 -1.300e+01 -1.300e+01 -1.300e+01 -1.300e+01 -1.300e+01 -1.300e+01 -1.300e+01 -1.300e+01 -1.300e+01 -1.300e+01 -1.300e+01 -1.300e+01 -1.300e+01 -1.300e+01 -1.300e+01 -1.300e+01 -1.300e+01 -1.300e+01 -1.300e+01 -1.300e+01 -1.300e+01 -1.300e+01 -1.300e+01 -1.300e+01 -1.300e+01 -1.300e+01 -1.300e+01 -1.300e+01 -1.300e+01 -1.300e+01 -1.300e+01 -1.300e+01 -1.300e+01 -1.300e+01 -1.300e+01 -1.300e+01 -1.300e+01 -1.300e+01 -1.300e+01 -1.300e+01 -1.300e+01 -1.300e+01 -1.300e+01 -1.300e+01 -1.300e+01 -1.300e+01 -1.300e+01 -1.300e+01 -1.300e+01 -1.300e+01 -1.300e+01 -1.300e+01 -1.300e+01 -1.300e+01 -1.300e+01 -1.300e+01 -1.300e+01 -1.300e+01 -5.000e+00 -5.000e+00 -5.000e+00 -5.000e+00 -5.000e+00 -5.000e+00 -5.000e+00 -5.000e+00 -5.000e+00 -5.000e+00 -5.000e+00 -5.000e+00 -5.000e+00 -5.000e+00 -5.000e+00 -5.000e+00 -5.000e+00 -5.000e+00 -5.000e+00 -5.000e+00 -5.000e+00 -5.000e+00 -5.000e+00 -1.300e+01 -1.300e+01 -1.300e+01 -1.300e+01 -1.300e+01 -1.300e+01 -1.300e+01 -1.300e+01 -1.300e+01 -1.300e+01 -1.300e+01 -1.300e+01 -1.300e+01 -1.300e+01 -1.300e+01 -1.300e+01 -1.300e+01 -1.300e+01 -1.300e+01 -1.300e+01 -1.300e+01 -1.300e+01 -1.300e+01 -1.300e+01 -1.300e+01 -1.300e+01 -1.300e+01 -1.300e+01 -1.300e+01 -1.300e+01 -1.300e+01 -1.300e+01 -1.300e+01 -1.300e+01 -1.300e+01 -1.300e+01 -1.300e+01 -1.300e+01 -1.300e+01 -1.300e+01 -1.300e+01 -1.300e+01 -1.300e+01 -1.300e+01 -1.300e+01 -1.300e+01 -1.300e+01 -1.300e+01 -1.300e+01 -1.300e+01 -1.300e+01 -1.300e+01 -1.300e+01 -1.300e+01 -1.300e+01 -1.300e+01 -1.300e+01 -1.300e+01 -1.300e+01 -1.300e+01 -1.300e+01 -1.300e+01 -1.300e+01 -1.300e+01 -1.300e+01 -1.300e+01 -1.300e+01 -1.300e+01 -1.300e+01 -1.300e+01 -1.300e+01 -1.300e+01 -1.300e+01 -1.300e+01 -1.300e+01 -1.300e+01 -1.300e+01 -1.300e+01 -1.300e+01 -1.300e+01 -1.300e+01 -1.300e+01 -1.300e+01 -1.300e+01 -1.300e+01 -1.300e+01 -5.000e+00 -5.000e+00 -5.000e+00 -5.000e+00 -5.000e+00 -5.000e+00 -5.000e+00 -5.000e+00 -5.000e+00 -5.000e+00 -5.000e+00 -5.000e+00 -5.000e+00 -5.000e+00 -5.000e+00 -5.000e+00 -5.000e+00 -5.000e+00 -5.000e+00 -5.000e+00 -5.000e+00 -5.000e+00 -5.000e+00 -1.300e+01 -1.300e+01 -1.300e+01 -1.300e+01 -1.300e+01 -1.300e+01 -1.300e+01 -1.300e+01 -1.300e+01 -1.300e+01 -1.300e+01 -1.300e+01 -1.300e+01 -1.300e+01 -1.300e+01 -1.300e+01 -1.300e+01 -1.300e+01 -1.300e+01 -1.300e+01 -1.300e+01 -1.300e+01 -1.300e+01 -1.300e+01 -1.300e+01 -1.300e+01 -1.300e+01 -1.300e+01 -1.300e+01 -1.300e+01 -1.300e+01 -1.300e+01 -1.300e+01 -1.300e+01 -1.300e+01 -1.300e+01 -1.300e+01 -1.300e+01 -1.300e+01 -1.300e+01 -1.300e+01 -1.300e+01 -1.300e+01 -1.300e+01 -1.300e+01 -1.300e+01 -1.300e+01 -1.300e+01 -1.300e+01 -1.300e+01 -1.300e+01 -1.300e+01 -1.300e+01 -1.300e+01 -1.300e+01 -1.300e+01 -1.300e+01 -1.300e+01 -1.300e+01 -1.300e+01 -1.300e+01 -1.300e+01 -1.300e+01 -1.300e+01 -1.300e+01 -1.300e+01 -1.300e+01 -1.300e+01 -1.300e+01 -1.300e+01 -1.300e+01 -1.300e+01 -1.300e+01 -1.300e+01 -1.300e+01 -1.300e+01 -1.300e+01 -1.300e+01 -1.300e+01 -1.300e+01 -1.300e+01 -1.300e+01 -1.300e+01 -1.300e+01 -1.300e+01 -1.300e+01 -5.000e+00 -5.000e+00 -5.000e+00 -5.000e+00 -5.000e+00 -5.000e+00 -5.000e+00 -5.000e+00 -5.000e+00 -5.000e+00 -5.000e+00 -5.000e+00 -5.000e+00 -5.000e+00 -5.000e+00 -5.000e+00 -5.000e+00 -5.000e+00 -5.000e+00 -5.000e+00 -5.000e+00 -5.000e+00 -5.000e+00 -1.300e+01 -1.300e+01 -1.300e+01 -1.300e+01 -1.300e+01 -1.300e+01 -1.300e+01 -1.300e+01 -1.300e+01 -1.300e+01 -1.300e+01 -1.300e+01 -1.300e+01 -1.300e+01 -1.300e+01 -1.300e+01 -1.300e+01 -1.300e+01 -1.300e+01 -1.300e+01 -1.300e+01 -1.300e+01 -1.300e+01 -1.300e+01 -1.300e+01 -1.300e+01 -1.300e+01 -1.300e+01 -1.300e+01 -1.300e+01 -1.300e+01 -1.300e+01 -1.300e+01 -1.300e+01 -1.300e+01 -1.300e+01 -1.300e+01 -1.300e+01 -1.300e+01 -1.300e+01 -1.300e+01 -1.300e+01 -1.300e+01 -1.300e+01 -1.300e+01 -1.300e+01 -1.300e+01 -1.300e+01 -1.300e+01 -1.300e+01 -1.300e+01 -1.300e+01 -1.300e+01 -1.300e+01 -1.300e+01 -1.300e+01 -1.300e+01 -1.300e+01 -1.300e+01 -1.300e+01 -1.300e+01 -1.300e+01 -1.300e+01 -1.300e+01 -1.300e+01 -1.300e+01 -1.300e+01 -1.300e+01 -1.300e+01 -1.300e+01 -1.300e+01 -1.300e+01 -1.300e+01 -1.300e+01 -1.300e+01 -1.300e+01 -1.300e+01 -1.300e+01 -1.300e+01 -1.300e+01 -1.300e+01 -1.300e+01 -1.300e+01 -1.300e+01 -1.300e+01 -5.000e+00 -5.000e+00 -5.000e+00 -5.000e+00 -5.000e+00 -5.000e+00 -5.000e+00 -5.000e+00 -5.000e+00 -5.000e+00 -5.000e+00 -5.000e+00 -5.000e+00 -5.000e+00 -5.000e+00 -5.000e+00 -5.000e+00 -5.000e+00 -5.000e+00 -5.000e+00 -5.000e+00 -5.000e+00 -5.000e+00 -1.100e+01 -1.100e+01 -1.100e+01 -1.100e+01 -1.100e+01 -1.100e+01 -1.100e+01 -1.100e+01 -1.100e+01 -1.100e+01 -1.100e+01 -1.100e+01 -1.100e+01 -1.100e+01 -1.100e+01 -1.100e+01 -1.100e+01 -1.100e+01 -1.100e+01 -1.100e+01 -1.100e+01 -1.100e+01 -1.100e+01 -1.100e+01 -1.100e+01 -1.100e+01 -1.100e+01 -1.100e+01 -1.100e+01 -1.100e+01 -1.100e+01 -1.100e+01 -1.100e+01 -1.100e+01 -1.100e+01 -1.100e+01 -1.100e+01 -1.100e+01 -1.100e+01 -1.100e+01 -1.100e+01 -1.100e+01 -1.100e+01 -1.100e+01 -1.100e+01 -1.100e+01 -1.100e+01 -1.100e+01 -1.100e+01 -1.100e+01 -1.100e+01 -1.100e+01 -2.000e+00 -2.000e+00 -2.000e+00 -2.000e+00 -2.000e+00 -2.000e+00 -2.000e+00 -2.000e+00 -2.000e+00 -2.000e+00 -2.000e+00 -2.000e+00 -7.000e+00 -7.000e+00 -7.000e+00 -7.000e+00 -7.000e+00 -7.000e+00 -7.000e+00 -7.000e+00 -7.000e+00 -7.000e+00 -7.000e+00 -7.000e+00 -7.000e+00 -7.000e+00 -7.000e+00 -7.000e+00 -7.000e+00 -7.000e+00 -7.000e+00 -7.000e+00 -7.000e+00 -7.000e+00 -7.000e+00 -7.000e+00 -7.000e+00 -7.000e+00 -7.000e+00 -7.000e+00 -7.000e+00 -7.000e+00 -7.000e+00 -7.000e+00 -7.000e+00 -7.000e+00 -7.000e+00 -7.000e+00 -7.000e+00 -7.000e+00 -7.000e+00 -7.000e+00 -7.000e+00 -7.000e+00 -7.000e+00 -7.000e+00 -7.000e+00 -7.000e+00 -7.000e+00 -7.000e+00 -7.000e+00 -7.000e+00 -7.000e+00 -7.000e+00 -7.000e+00 -7.000e+00 -7.000e+00 -7.000e+00 -7.000e+00 -7.000e+00 -7.000e+00 -7.000e+00 -7.000e+00 -7.000e+00 -7.000e+00 -7.000e+00 -7.000e+00 -7.000e+00 -7.000e+00 -7.000e+00 -7.000e+00 -7.000e+00 -7.000e+00 -7.000e+00 -7.000e+00 -7.000e+00 -7.000e+00 -7.000e+00 -7.000e+00 -7.000e+00 -7.000e+00 -7.000e+00 -7.000e+00 -7.000e+00 -7.000e+00 -7.000e+00 -7.000e+00 -7.000e+00 -7.000e+00 -7.000e+00 -7.000e+00 -7.000e+00 -7.000e+00 -7.000e+00 -7.000e+00 -7.000e+00 -7.000e+00 -7.000e+00 -7.000e+00 -7.000e+00 -7.000e+00 -7.000e+00 -7.000e+00 -1.700e+01 -7.000e+00 -7.000e+00 -7.000e+00 -7.000e+00 -7.000e+00 -7.000e+00 -1.700e+01 -7.000e+00 -7.000e+00 -7.000e+00 -7.000e+00 -7.000e+00 -7.000e+00 -7.000e+00 -7.000e+00 -7.000e+00 -7.000e+00 -7.000e+00 -7.000e+00 -7.000e+00 -7.000e+00 -7.000e+00 -7.000e+00 -7.000e+00 -7.000e+00 -7.000e+00 -7.000e+00 -7.000e+00 -7.000e+00 -7.000e+00 -7.000e+00 -7.000e+00 -7.000e+00 -7.000e+00 -7.000e+00 -7.000e+00 -7.000e+00 -7.000e+00 -7.000e+00 -7.000e+00 -7.000e+00 -7.000e+00 -7.000e+00 -7.000e+00 -7.000e+00 -7.000e+00 -7.000e+00 -7.000e+00 -7.000e+00 -7.000e+00 -7.000e+00 -7.000e+00 -7.000e+00 -7.000e+00 -7.000e+00 -7.000e+00 -7.000e+00 -7.000e+00 -7.000e+00 -1.700e+01 -7.000e+00 -7.000e+00 -7.000e+00 -7.000e+00 -7.000e+00 -7.000e+00 -7.000e+00 -7.000e+00 -7.000e+00 -7.000e+00 -7.000e+00 -7.000e+00 -7.000e+00 -7.000e+00 -7.000e+00 -7.000e+00 -7.000e+00 -7.000e+00 -7.000e+00 -7.000e+00 -7.000e+00 -7.000e+00 -7.000e+00 -7.000e+00 -7.000e+00 -7.000e+00 -7.000e+00 -7.000e+00 -7.000e+00 -7.000e+00 -7.000e+00 -7.000e+00 -7.000e+00 -7.000e+00 -7.000e+00 -7.000e+00 -7.000e+00 -7.000e+00 -7.000e+00 -7.000e+00 -7.000e+00 -7.000e+00 -7.000e+00 -7.000e+00 -7.000e+00 -7.000e+00 -7.000e+00 -7.000e+00 -7.000e+00 -7.000e+00 -1.700e+01 -7.000e+00 -7.000e+00 -7.000e+00 -7.000e+00 -7.000e+00 -7.000e+00 -7.000e+00 -7.000e+00 -7.000e+00 -7.000e+00 -7.000e+00 -7.000e+00 -7.000e+00 -7.000e+00 -7.000e+00 -7.000e+00 -7.000e+00 -7.000e+00 -7.000e+00 -7.000e+00 -7.000e+00 -7.000e+00 -7.000e+00 -7.000e+00 -7.000e+00 -7.000e+00 -7.000e+00 -7.000e+00 -7.000e+00 -7.000e+00 -7.000e+00 -7.000e+00 -7.000e+00 -7.000e+00 -7.000e+00 -7.000e+00 -7.000e+00 -7.000e+00 -7.000e+00 -7.000e+00 -7.000e+00 -7.000e+00 -7.000e+00 -7.000e+00 -7.000e+00 -7.000e+00 -7.000e+00 -7.000e+00 -7.000e+00 -7.000e+00 -7.000e+00 -7.000e+00 -7.000e+00 -7.000e+00 -7.000e+00 -7.000e+00 -7.000e+00 -7.000e+00 -7.000e+00 -7.000e+00 -7.000e+00 -7.000e+00 -7.000e+00 -7.000e+00 -7.000e+00 -7.000e+00 -7.000e+00 -7.000e+00 -7.000e+00 -7.000e+00 -7.000e+00 -7.000e+00 -7.000e+00 -7.000e+00 -7.000e+00 -7.000e+00 -7.000e+00 -7.000e+00 -7.000e+00 -7.000e+00 -7.000e+00 -7.000e+00 -7.000e+00 -7.000e+00 -7.000e+00 -7.000e+00 -7.000e+00 -7.000e+00 -7.000e+00 -7.000e+00 -7.000e+00 -7.000e+00 -7.000e+00 -7.000e+00 -7.000e+00 -7.000e+00 -7.000e+00 -7.000e+00 -7.000e+00 -7.000e+00 -7.000e+00 -7.000e+00 -7.000e+00 -7.000e+00 -7.000e+00 -7.000e+00 -7.000e+00 -7.000e+00 -7.000e+00 -7.000e+00 -7.000e+00 -7.000e+00 -7.000e+00 -7.000e+00 -7.000e+00 -7.000e+00 -7.000e+00 -7.000e+00 -7.000e+00 -7.000e+00 -7.000e+00 -7.000e+00 -7.000e+00 -7.000e+00 -7.000e+00 -7.000e+00 -7.000e+00 -7.000e+00 -7.000e+00 -7.000e+00 -7.000e+00 -7.000e+00 -7.000e+00 -7.000e+00 -7.000e+00 -7.000e+00 -7.000e+00 -7.000e+00 -7.000e+00 -7.000e+00 -7.000e+00 -7.000e+00 -7.000e+00 -7.000e+00 -7.000e+00 -7.000e+00 -7.000e+00 -7.000e+00 -7.000e+00 -7.000e+00 -7.000e+00 -7.000e+00 -7.000e+00 -7.000e+00 -7.000e+00 -7.000e+00 -1.700e+01 -7.000e+00 -7.000e+00 -7.000e+00 -7.000e+00 -7.000e+00 -7.000e+00 -7.000e+00 -7.000e+00 -7.000e+00 -7.000e+00 -7.000e+00 -7.000e+00 -7.000e+00 -7.000e+00 -7.000e+00 -7.000e+00 -7.000e+00 -7.000e+00 -7.000e+00 -7.000e+00 -7.000e+00 -7.000e+00 -7.000e+00 -7.000e+00 -7.000e+00 -7.000e+00 -7.000e+00 -1.700e+01 -7.000e+00 -7.000e+00 -7.000e+00 -7.000e+00 -7.000e+00 -7.000e+00 -7.000e+00 -7.000e+00 -7.000e+00 -7.000e+00 -7.000e+00 -7.000e+00 -7.000e+00 -7.000e+00 -7.000e+00 -7.000e+00 -7.000e+00 -7.000e+00 -7.000e+00 -7.000e+00 -7.000e+00 -7.000e+00 -7.000e+00 -7.000e+00 -7.000e+00 -7.000e+00 -7.000e+00 -1.500e+01 -1.500e+01 -1.500e+01 -1.500e+01 -9.000e+00 -9.000e+00 -9.000e+00 -9.000e+00 -9.000e+00 -9.000e+00 -9.000e+00 -9.000e+00 -9.000e+00 -9.000e+00 -9.000e+00 -9.000e+00 -9.000e+00 -9.000e+00 -9.000e+00 -9.000e+00 -9.000e+00 -9.000e+00 -9.000e+00 -4.000e+00 -4.000e+00 -4.000e+00 -4.000e+00 -4.000e+00 -4.000e+00 -4.000e+00 -4.000e+00 -4.000e+00 -4.000e+00 -4.000e+00 -4.000e+00 -4.000e+00 -4.000e+00 -4.000e+00 -4.000e+00 -4.000e+00 -4.000e+00 -4.000e+00 -4.000e+00 -4.000e+00 -4.000e+00 -4.000e+00 -4.000e+00 -4.000e+00 -4.000e+00 -4.000e+00 -4.000e+00 -4.000e+00 -4.000e+00 -4.000e+00 -4.000e+00 -4.000e+00 -4.000e+00 -4.000e+00 -4.000e+00 -4.000e+00 -4.000e+00 -4.000e+00 -4.000e+00 -4.000e+00 -4.000e+00 -4.000e+00 -4.000e+00 -4.000e+00 -4.000e+00 -4.000e+00 -4.000e+00 -4.000e+00
           </DataArray>
           <DataArray type="Float32" Name="nitrate/minimalNutrientConcentration" NumberOfComponents="1" format="ascii">