<?xml version="1.0"?>
<VTKFile type="UnstructuredGrid" version="0.1" byte_order="LittleEndian">
   <UnstructuredGrid>
      <Piece NumberOfPoints="4680" NumberOfCells="331">
         <Points>
            <DataArray type="Float32" Name="Position" NumberOfComponents="3" format="ascii">
0.117	-5.061	0.060
0.116	-5.053	0.065
0.112	-5.049	0.072
0.106	-5.050	0.079
0.101	-5.057	0.083
0.099	-5.066	0.084
0.101	-5.074	0.079
0.105	-5.078	0.072
0.111	-5.076	0.065
0.115	-5.070	0.060
0.291	-5.096	0.185
0.289	-5.088	0.190
0.285	-5.084	0.197
0.279	-5.086	0.204
0.275	-5.092	0.208
0.273	-5.101	0.209
0.274	-5.109	0.204
0.279	-5.113	0.197
0.284	-5.112	0.190
0.289	-5.105	0.185
0.195	-5.154	0.125
0.200	-5.151	0.132
0.205	-5.154	0.139
0.207	-5.162	0.144
0.206	-5.171	0.145
0.202	-5.178	0.142
0.196	-5.181	0.135
0.192	-5.178	0.127
0.189	-5.171	0.122
0.191	-5.162	0.121
0.351	-5.186	0.018
0.359	-5.182	0.018
0.368	-5.184	0.018
0.375	-5.190	0.018
0.376	-5.199	0.018
0.372	-5.208	0.018
0.364	-5.212	0.018
0.354	-5.210	0.018
0.348	-5.204	0.018
0.346	-5.195	0.018
0.289	-5.290	0.192
0.292	-5.282	0.197
0.290	-5.274	0.200
0.283	-5.267	0.200
0.275	-5.265	0.197
0.268	-5.268	0.191
0.265	-5.275	0.186
0.267	-5.284	0.183
0.273	-5.290	0.183
0.282	-5.293	0.187
0.213	-5.362	0.337
0.216	-5.354	0.342
0.214	-5.346	0.345
0.207	-5.339	0.345
0.199	-5.337	0.341
0.192	-5.340	0.336
0.189	-5.347	0.331
0.191	-5.356	0.328
0.198	-5.362	0.328
0.206	-5.365	0.331
0.360	-5.407	0.241
0.358	-5.411	0.249
0.352	-5.410	0.256
0.344	-5.406	0.259
0.338	-5.399	0.257
0.335	-5.393	0.251
0.337	-5.390	0.242
0.343	-5.391	0.235
0.351	-5.395	0.232
0.357	-5.402	0.234
0.301	-5.479	0.200
0.299	-5.482	0.208
0.293	-5.482	0.215
0.285	-5.477	0.219
0.279	-5.471	0.216
0.276	-5.465	0.210
0.278	-5.461	0.201
0.284	-5.462	0.194
0.292	-5.467	0.191
0.298	-5.473	0.193
0.425	-5.520	0.286
0.423	-5.512	0.289
0.418	-5.508	0.296
0.412	-5.510	0.303
0.408	-5.517	0.308
0.408	-5.526	0.309
0.410	-5.534	0.305
0.415	-5.538	0.299
0.421	-5.536	0.291
0.425	-5.529	0.286
0.520	-5.523	0.357
0.518	-5.514	0.361
0.513	-5.510	0.368
0.507	-5.512	0.375
0.503	-5.519	0.380
0.502	-5.528	0.381
0.505	-5.536	0.377
0.510	-5.540	0.371
0.515	-5.539	0.363
0.519	-5.532	0.358
0.494	-5.646	0.337
0.492	-5.638	0.340
0.487	-5.633	0.346
0.480	-5.633	0.352
0.476	-5.639	0.358
0.474	-5.648	0.359
0.476	-5.657	0.356
0.481	-5.662	0.350
0.487	-5.661	0.344
0.492	-5.655	0.338
0.569	-5.650	0.405
0.567	-5.641	0.408
0.562	-5.636	0.414
0.556	-5.637	0.421
0.551	-5.643	0.426
0.549	-5.652	0.427
0.551	-5.660	0.424
0.556	-5.665	0.419
0.562	-5.665	0.412
0.567	-5.659	0.407
0.556	-5.784	0.394
0.553	-5.786	0.403
0.547	-5.784	0.409
0.540	-5.779	0.411
0.534	-5.772	0.408
0.532	-5.766	0.400
0.535	-5.764	0.392
0.542	-5.766	0.385
0.549	-5.772	0.383
0.555	-5.778	0.387
0.521	-5.823	0.372
0.518	-5.825	0.381
0.512	-5.823	0.387
0.505	-5.818	0.389
0.499	-5.811	0.386
0.498	-5.806	0.379
0.501	-5.804	0.370
0.507	-5.806	0.364
0.514	-5.811	0.362
0.520	-5.818	0.365
0.611	-5.906	0.434
0.609	-5.897	0.436
0.604	-5.892	0.441
0.597	-5.892	0.448
0.592	-5.897	0.453
0.589	-5.906	0.455
0.591	-5.915	0.453
0.596	-5.920	0.448
0.603	-5.920	0.441
0.609	-5.915	0.436
0.647	-5.908	0.470
0.645	-5.899	0.472
0.640	-5.893	0.478
0.633	-5.893	0.484
0.628	-5.899	0.489
0.625	-5.907	0.491
0.627	-5.916	0.489
0.632	-5.922	0.484
0.639	-5.922	0.477
0.644	-5.917	0.472
0.661	-6.050	0.496
0.665	-6.043	0.500
0.664	-6.033	0.501
0.659	-6.026	0.499
0.652	-6.023	0.494
0.645	-6.026	0.488
0.642	-6.033	0.484
0.642	-6.043	0.483
0.647	-6.050	0.485
0.654	-6.053	0.491
0.651	-6.052	0.510
0.654	-6.045	0.514
0.654	-6.036	0.515
0.649	-6.028	0.512
0.642	-6.025	0.507
0.635	-6.028	0.501
0.631	-6.035	0.497
0.632	-6.045	0.496
0.637	-6.052	0.499
0.644	-6.055	0.504
0.023	-4.987	-0.025
0.029	-4.974	-0.010
0.024	-4.967	0.010
0.010	-4.969	0.025
-0.007	-4.979	0.032
-0.022	-4.993	0.026
-0.028	-5.006	0.010
-0.023	-5.013	-0.009
-0.009	-5.011	-0.025
0.008	-5.001	-0.031
0.462	-5.559	0.288
0.469	-5.548	0.304
0.464	-5.542	0.324
0.450	-5.543	0.339
0.432	-5.551	0.345
0.416	-5.563	0.338
0.409	-5.575	0.322
0.413	-5.581	0.302
0.427	-5.580	0.287
0.446	-5.571	0.281
0.789	-6.330	0.576
0.797	-6.321	0.593
0.793	-6.316	0.613
0.778	-6.316	0.628
0.758	-6.322	0.633
0.741	-6.331	0.625
0.733	-6.339	0.607
0.737	-6.345	0.588
0.752	-6.344	0.572
0.771	-6.339	0.568
0.986	-6.959	0.765
0.995	-6.952	0.783
0.991	-6.948	0.803
0.976	-6.949	0.818
0.956	-6.953	0.822
0.938	-6.960	0.813
0.929	-6.967	0.795
0.933	-6.971	0.775
0.948	-6.971	0.760
0.968	-6.966	0.756
1.165	-7.725	0.925
1.174	-7.720	0.943
1.171	-7.717	0.963
1.156	-7.718	0.978
1.136	-7.721	0.982
1.117	-7.727	0.973
1.108	-7.732	0.955
1.111	-7.734	0.935
1.126	-7.734	0.919
1.146	-7.731	0.916
1.268	-8.312	1.007
1.277	-8.307	1.025
1.274	-8.305	1.046
1.259	-8.305	1.060
1.239	-8.308	1.064
1.220	-8.312	1.055
1.211	-8.316	1.036
1.214	-8.318	1.016
1.229	-8.318	1.001
1.250	-8.316	0.997
1.352	-8.952	1.105
1.361	-8.948	1.124
1.358	-8.946	1.145
1.342	-8.946	1.159
1.322	-8.947	1.162
1.303	-8.951	1.153
1.294	-8.954	1.134
1.298	-8.957	1.114
1.313	-8.957	1.099
1.334	-8.955	1.096
1.408	-9.649	1.189
1.417	-9.646	1.207
1.414	-9.644	1.228
1.399	-9.643	1.243
1.378	-9.645	1.246
1.360	-9.648	1.236
1.350	-9.651	1.218
1.354	-9.653	1.197
1.369	-9.653	1.182
1.390	-9.652	1.179
1.493	-10.395	1.276
1.503	-10.392	1.295
1.499	-10.390	1.315
1.484	-10.390	1.330
1.464	-10.392	1.333
1.445	-10.395	1.324
1.436	-10.398	1.305
1.439	-10.400	1.285
1.454	-10.400	1.270
1.475	-10.398	1.267
1.579	-11.179	1.369
1.589	-11.176	1.388
1.586	-11.175	1.408
1.571	-11.175	1.423
1.551	-11.178	1.427
1.532	-11.181	1.418
1.523	-11.184	1.400
1.526	-11.186	1.379
1.540	-11.185	1.364
1.561	-11.183	1.360
1.706	-11.967	1.426
1.716	-11.964	1.444
1.713	-11.963	1.465
1.699	-11.964	1.480
1.678	-11.966	1.484
1.659	-11.969	1.475
1.649	-11.972	1.457
1.652	-11.973	1.436
1.667	-11.972	1.421
1.687	-11.970	1.417
1.794	-12.760	1.486
1.804	-12.757	1.505
1.801	-12.756	1.525
1.787	-12.757	1.541
1.766	-12.759	1.544
1.747	-12.762	1.535
1.737	-12.764	1.517
1.740	-12.765	1.496
1.755	-12.765	1.481
1.776	-12.762	1.477
1.886	-13.553	1.540
1.895	-13.551	1.558
1.892	-13.550	1.579
1.878	-13.551	1.594
1.857	-13.552	1.598
1.838	-13.554	1.588
1.829	-13.556	1.570
1.832	-13.557	1.549
1.846	-13.557	1.534
1.867	-13.555	1.531
1.908	-13.952	1.557
1.918	-13.951	1.576
1.914	-13.950	1.597
1.900	-13.950	1.612
1.879	-13.951	1.615
1.860	-13.953	1.606
1.851	-13.954	1.587
1.854	-13.955	1.566
1.869	-13.955	1.551
1.889	-13.954	1.548
0.076	-5.060	-0.125
0.078	-5.057	-0.117
0.075	-5.054	-0.109
0.067	-5.051	-0.104
0.058	-5.049	-0.106
0.051	-5.049	-0.112
0.049	-5.051	-0.121
0.052	-5.054	-0.129
0.060	-5.058	-0.133
0.069	-5.060	-0.132
0.020	-5.267	-0.057
0.024	-5.258	-0.057
0.023	-5.249	-0.057
0.016	-5.243	-0.057
0.007	-5.241	-0.057
-0.001	-5.245	-0.057
-0.005	-5.254	-0.057
-0.004	-5.263	-0.057
0.003	-5.269	-0.057
0.012	-5.271	-0.057
0.116	-5.127	-0.231
0.124	-5.124	-0.227
0.132	-5.127	-0.223
0.137	-5.134	-0.220
0.136	-5.144	-0.220
0.132	-5.151	-0.222
0.124	-5.154	-0.226
0.116	-5.151	-0.230
0.111	-5.144	-0.233
0.111	-5.134	-0.233
0.187	-5.131	-0.371
0.195	-5.128	-0.367
0.203	-5.131	-0.363
0.207	-5.138	-0.361
0.207	-5.148	-0.360
0.202	-5.155	-0.363
0.195	-5.158	-0.367
0.187	-5.155	-0.371
0.182	-5.148	-0.373
0.182	-5.139	-0.374
0.173	-5.217	-0.338
0.180	-5.215	-0.333
0.188	-5.218	-0.327
0.192	-5.225	-0.324
0.191	-5.234	-0.324
0.186	-5.242	-0.327
0.179	-5.245	-0.331
0.172	-5.242	-0.337
0.168	-5.234	-0.340
0.168	-5.225	-0.340
0.249	-5.225	-0.447
0.257	-5.222	-0.442
0.264	-5.225	-0.437
0.268	-5.233	-0.434
0.268	-5.242	-0.433
0.263	-5.250	-0.436
0.255	-5.252	-0.441
0.248	-5.249	-0.446
0.244	-5.242	-0.450
0.245	-5.233	-0.450
0.218	-5.332	-0.424
0.215	-5.324	-0.426
0.216	-5.316	-0.431
0.221	-5.313	-0.439
0.227	-5.316	-0.445
0.233	-5.323	-0.448
0.235	-5.331	-0.446
0.234	-5.339	-0.441
0.230	-5.342	-0.433
0.224	-5.339	-0.427
0.112	-5.383	-0.508
0.109	-5.374	-0.510
0.110	-5.367	-0.516
0.115	-5.364	-0.523
0.121	-5.366	-0.529
0.126	-5.373	-0.532
0.129	-5.382	-0.531
0.128	-5.389	-0.525
0.124	-5.392	-0.517
0.117	-5.390	-0.511
0.279	-5.434	-0.546
0.281	-5.430	-0.538
0.278	-5.426	-0.530
0.271	-5.423	-0.526
0.262	-5.422	-0.526
0.254	-5.424	-0.531
0.252	-5.428	-0.539
0.254	-5.431	-0.547
0.262	-5.434	-0.552
0.271	-5.435	-0.551
0.269	-5.519	-0.507
0.272	-5.516	-0.498
0.269	-5.512	-0.491
0.262	-5.509	-0.486
0.252	-5.508	-0.486
0.245	-5.510	-0.492
0.242	-5.513	-0.500
0.245	-5.517	-0.508
0.253	-5.520	-0.512
0.262	-5.521	-0.512
0.315	-5.540	-0.646
0.318	-5.536	-0.638
0.315	-5.532	-0.630
0.307	-5.529	-0.626
0.298	-5.527	-0.627
0.291	-5.528	-0.632
0.288	-5.532	-0.641
0.291	-5.536	-0.648
0.299	-5.539	-0.653
0.308	-5.541	-0.652
0.299	-5.622	-0.608
0.301	-5.619	-0.600
0.298	-5.615	-0.592
0.291	-5.611	-0.588
0.281	-5.610	-0.589
0.274	-5.611	-0.595
0.272	-5.615	-0.603
0.275	-5.619	-0.610
0.282	-5.622	-0.615
0.292	-5.624	-0.614
0.349	-5.648	-0.743
0.352	-5.644	-0.735
0.349	-5.639	-0.728
0.341	-5.635	-0.724
0.332	-5.634	-0.725
0.325	-5.636	-0.731
0.322	-5.641	-0.739
0.325	-5.646	-0.746
0.333	-5.649	-0.750
0.342	-5.651	-0.749
0.339	-5.701	-0.707
0.343	-5.693	-0.707
0.342	-5.683	-0.707
0.335	-5.677	-0.707
0.326	-5.675	-0.707
0.318	-5.680	-0.707
0.314	-5.688	-0.707
0.315	-5.697	-0.707
0.322	-5.704	-0.707
0.331	-5.705	-0.707
0.373	-5.745	-0.845
0.374	-5.740	-0.837
0.373	-5.740	-0.828
0.370	-5.745	-0.821
0.368	-5.753	-0.818
0.365	-5.762	-0.821
0.365	-5.767	-0.828
0.366	-5.767	-0.838
0.368	-5.762	-0.845
0.371	-5.754	-0.848
0.419	-5.765	-0.839
0.423	-5.765	-0.831
0.421	-5.765	-0.822
0.415	-5.765	-0.815
0.406	-5.765	-0.814
0.397	-5.765	-0.818
0.393	-5.765	-0.826
0.395	-5.765	-0.836
0.401	-5.765	-0.842
0.410	-5.765	-0.844
0.392	-5.873	-0.913
0.391	-5.864	-0.913
0.393	-5.856	-0.918
0.397	-5.853	-0.926
0.402	-5.855	-0.933
0.406	-5.862	-0.937
0.407	-5.871	-0.937
0.406	-5.879	-0.932
0.401	-5.882	-0.925
0.396	-5.880	-0.917
0.371	-5.860	-0.936
0.379	-5.856	-0.936
0.388	-5.857	-0.936
0.395	-5.864	-0.936
0.396	-5.873	-0.936
0.392	-5.881	-0.936
0.384	-5.886	-0.936
0.375	-5.884	-0.936
[...]
         <CellData>
           <DataArray type="Float32" Name="combinedRootClassID" NumberOfComponents="1" format="ascii">
 -1.300e+01 -1.300e+01 -1.300e+01 -1.300e+01 -1.300e+01 -1.300e+01 -1.300e+01 -1.300e+01 -1.300e+01 -5.000e+00 -5.000e+00 -5.000e+00 -5.000e+00 -5.000e+00 -5.000e+00 -5.000e+00 -5.000e+00 -5.000e+00 -5.000e+00 -5.000e+00 -5.000e+00 -5.000e+00 -1.300e+01 -1.300e+01 -1.300e+01 -1.300e+01 -1.300e+01 -1.300e+01 -1.300e+01 -1.300e+01 -1.300e+01 -5.000e+00 -5.000e+00 -5.000e+00 -5.000e+00 -5.000e+00 -5.000e+00 -5.000e+00 -5.000e+00 -5.000e+00 -5.000e+00 -5.000e+00 -5.000e+00 -5.000e+00 -1.300e+01 -1.300e+01 -1.300e+01 -1.300e+01 -1.300e+01 -1.300e+01 -1.300e+01 -1.300e+01 -1.300e+01 -5.000e+00 -5.000e+00 -5.000e+00 -5.000e+00 -5.000e+00 -5.000e+00 -5.000e+00 -5.000e+00 -5.000e+00 -5.000e+00 -5.000e+00 -5.000e+00 -5.000e+00 -1.300e+01 -1.300e+01 -1.300e+01 -1.300e+01 -1.300e+01 -1.300e+01 -1.300e+01 -1.300e+01 -1.300e+01 -5.000e+00 -5.000e+00 -5.000e+00 -5.000e+00 -5.000e+00 -5.000e+00 -5.000e+00 -5.000e+00 -5.000e+00 -5.000e+00 -5.000e+00 -5.000e+00 -5.000e+00 -1.100e+01 -1.100e+01 -1.100e+01 -1.100e+01 -1.100e+01 -1.100e+01 -1.100e+01 -1.100e+01 -1.100e+01 -1.100e+01 -1.100e+01 -1.100e+01 -2.000e+00 -2.000e+00 -2.000e+00 -2.000e+00 -2.000e+00 -2.000e+00 -2.000e+00 -2.000e+00 -2.000e+00 -2.000e+00 -7.000e+00 -7.000e+00 -7.000e+00 -7.000e+00 -7.000e+00 -7.000e+00 -7.000e+00 -7.000e+00 -7.000e+00 -7.000e+00 -7.000e+00 -7.000e+00 -7.000e+00 -7.000e+00 -7.000e+00 -7.000e+00 -7.000e+00 -7.000e+00 -7.000e+00 -7.000e+00 -7.000e+00 -7.000e+00 -7.000e+00 -7.000e+00 -7.000e+00 -7.000e+00 -7.000e+00 -7.000e+00 -7.000e+00 -7.000e+00 -7.000e+00 -7.000e+00 -7.000e+00 -7.000e+00 -7.000e+00 -7.000e+00 -7.000e+00 -7.000e+00 -7.000e+00 -7.000e+00 -7.000e+00 -7.000e+00 -7.000e+00 -7.000e+00 -7.000e+00 -7.000e+00 -7.000e+00 -7.000e+00 -7.000e+00 -7.000e+00 -7.000e+00 -7.000e+00 -7.000e+00 -7.000e+00 -7.000e+00 -7.000e+00 -7.000e+00 -7.000e+00 -7.000e+00 -7.000e+00 -7.000e+00 -7.000e+00 -7.000e+00 -7.000e+00 -7.000e+00 -7.000e+00 -7.000e+00 -7.000e+00 -7.000e+00 -7.000e+00 -7.000e+00 -7.000e+00 -7.000e+00 -7.000e+00 -7.000e+00 -7.000e+00 -7.000e+00 -7.000e+00 -7.000e+00 -7.000e+00 -7.000e+00 -7.000e+00 -7.000e+00 -7.000e+00 -7.000e+00 -7.000e+00 -7.000e+00 -7.000e+00 -7.000e+00 -7.000e+00 -7.000e+00 -7.000e+00 -7.000e+00 -7.000e+00 -7.000e+00 -7.000e+00 -7.000e+00 -7.000e+00 -7.000e+00 -7.000e+00 -7.000e+00 -7.000e+00 -7.000e+00 -7.000e+00 -7.000e+00 -7.000e+00 -7.000e+00 -7.000e+00 -7.000e+00 -7.000e+00 -7.000e+00 -7.000e+00 -7.000e+00 -7.000e+00 -7.000e+00 -7.000e+00 -7.000e+00 -7.000e+00 -7.000e+00 -7.000e+00 -7.000e+00 -7.000e+00 -7.000e+00 -7.000e+00 -7.000e+00 -7.000e+00 -7.000e+00 -7.000e+00 -7.000e+00 -7.000e+00 -7.000e+00 -7.000e+00 -7.000e+00 -7.000e+00 -7.000e+00 -7.000e+00 -7.000e+00 -7.000e+00 -7.000e+00 -7.000e+00 -7.000e+00 -7.000e+00 -7.000e+00 -7.000e+00 -7.000e+00 -7.000e+00 -7.000e+00 -7.000e+00 -7.000e+00 -7.000e+00 -7.000e+00 -7.000e+00 -7.000e+00 -7.000e+00 -7.000e+00 -7.000e+00 -7.000e+00 -7.000e+00 -7.000e+00 -7.000e+00 -7.000e+00 -7.000e+00 -7.000e+00 -7.000e+00 -7.000e+00 -7.000e+00 -7.000e+00 -7.000e+00 -7.000e+00 -7.000e+00 -7.000e+00 -7.000e+00 -7.000e+00 -7.000e+00 -7.000e+00 -7.000e+00 -7.000e+00 -7.000e+00 -7.000e+00 -7.000e+00 -7.000e+00 -7.000e+00 -7.000e+00 -7.000e+00 -7.000e+00 -7.000e+00 -7.000e+00 -7.000e+00 -9.000e+00 -9.000e+00 -9.000e+00 -9.000e+00 -9.000e+00 -9.000e+00 -4.000e+00 -4.000e+00 -4.000e+00 -4.000e+00 -4.000e+00 -4.000e+00 -4.000e+00 -4.000e+00 -4.000e+00 -4.000e+00 -4.000e+00 -4.000e+00 -4.000e+00 -4.000e+00 -4.000e+00 -4.000e+00 -4.000e+00 -4.000e+00 -4.000e+00 -4.000e+00 -4.000e+00 -4.000e+00 -4.000e+00 -4.000e+00 -4.000e+00 -4.000e+00 -4.000e+00
           </DataArray>
           <DataArray type="Float32" Name="nitrate/minimalNutrientConcentration" NumberOfComponents="1" format="ascii">
 6.000e+02 6.000e+02 6.000e+02 6.000e+02 6.000e+02 6.000e+02 6.000e+02 6.000e+02 6.000e+02 6.000e+02 6.000e+02 6.000e+02 6.000e+02 6.000e+02 6.000e+02 6.000e+02 6.000e+02 6.000e+02 6.000e+02 6.000e+02 6.000e+02 6.000e+02 6.000e+02 6.000e+02 6.000e+02 6.000e+02 6.000e+02 6.000e+02 6.000e+02 6.000e+02 6.000e+02 6.000e+02 6.000e+02 6.000e+02 6.000e+02 6.000e+02 6.000e+02 6.000e+02 6.000e+02 6.000e+02 6.000e+02 6.000e+02 6.000e+02 6.000e+02 6.000e+02 6.000e+02 6.000e+02 6.000e+02 6.000e+02 6.000e+02 6.000e+02 6.000e+02 6.000e+02 6.000e+02 6.000e+02 6.000e+02 6.000e+02 6.000e+02 6.000e+02 6.000e+02 6.000e+02 6.000e+02 6.000e+02 6.000e+02 6.000e+02 6.000e+02 6.000e+02 6.000e+02 6.000e+02 6.000e+02 6.000e+02 6.000e+02 6.000e+02 6.000e+02 6.000e+02 6.000e+02 6.000e+02 6.000e+02 6.000e+02 6.000e+02 6.000e+02 6.000e+02 6.000e+02 6.000e+02 6.000e+02 6.000e+02 6.000e+02 6.000e+02 6.000e+02 6.000e+02 6.000e+02 6.000e+02 6.000e+02 6.000e+02 6.000e+02 6.000e+02 6.000e+02 6.000e+02 6.000e+02 6.000e+02 6.000e+02 6.000e+02 6.000e+02 6.000e+02 6.000e+02 6.000e+02 6.000e+02 6.000e+02 6.000e+02 6.000e+02 6.000e+02 6.000e+02 6.000e+02 6.000e+02 6.000e+02 6.000e+02 6.000e+02 6.000e+02 6.000e+02 6.000e+02 6.000e+02 6.000e+02 6.000e+02 6.000e+02 6.000e+02 6.000e+02 6.000e+02 6.000e+02 6.000e+02 6.000e+02 6.000e+02 6.000e+02 6.000e+02 6.000e+02 6.000e+02 6.000e+02 6.000e+02 6.000e+02 6.000e+02 6.000e+02 6.000e+02 6.000e+02 6.000e+02 6.000e+02 6.000e+02 6.000e+02 6.000e+02 6.000e+02 6.000e+02 6.000e+02 6.000e+02 6.000e+02 6.000e+02 6.000e+02 6.000e+02 6.000e+02 6.000e+02 6.000e+02 6.000e+02 6.000e+02 6.000e+02 6.000e+02 6.000e+02 6.000e+02 6.000e+02 6.000e+02 6.000e+02 6.000e+02 6.000e+02 6.000e+02 6.000e+02 6.000e+02 6.000e+02 6.000e+02 6.000e+02 6.000e+02 6.000e+02 6.000e+02 6.000e+02 6.000e+02 6.000e+02 6.000e+02 6.000e+02 6.000e+02 6.000e+02 6.000e+02 6.000e+02 6.000e+02 6.000e+02 6.000e+02 6.000e+02 6.000e+02 6.000e+02 6.000e+02 6.000e+02 6.000e+02 6.000e+02 6.000e+02 6.000e+02 6.000e+02 6.000e+02 6.000e+02 6.000e+02 6.000e+02 6.000e+02 6.000e+02 6.000e+02 6.000e+02 6.000e+02 6.000e+02 6.000e+02 6.000e+02 6.000e+02 6.000e+02 6.000e+02 6.000e+02 6.000e+02 6.000e+02 6.000e+02 6.000e+02 6.000e+02 6.000e+02 6.000e+02 6.000e+02 6.000e+02 6.000e+02 6.000e+02 6.000e+02 6.000e+02 6.000e+02 6.000e+02 6.000e+02 6.000e+02 6.000e+02 6.000e+02 6.000e+02 6.000e+02 6.000e+02 6.000e+02 6.000e+02 6.000e+02 6.000e+02 6.000e+02 6.000e+02 6.000e+02 6.000e+02 6.000e+02 6.000e+02 6.000e+02 6.000e+02 6.000e+02 6.000e+02 6.000e+02 6.000e+02 6.000e+02 6.000e+02 6.000e+02 6.000e+02 6.000e+02 6.000e+02 6.000e+02 6.000e+02 6.000e+02 6.000e+02 6.000e+02 6.000e+02 6.000e+02 6.000e+02 6.000e+02 6.000e+02 6.000e+02 6.000e+02 6.000e+02 6.000e+02 6.000e+02 6.000e+02 6.000e+02 6.000e+02 6.000e+02 6.000e+02 6.000e+02 6.000e+02 6.000e+02 6.000e+02 6.000e+02 6.000e+02 6.000e+02 6.000e+02 6.000e+02 6.000e+02 6.000e+02 6.000e+02 6.000e+02 6.000e+02 6.000e+02 6.000e+02 6.000e+02 6.000e+02 6.000e+02 6.000e+02 6.000e+02 6.000e+02 6.000e+02 6.000e+02 6.000e+02 6.000e+02 6.000e+02 6.000e+02 6.000e+02 6.000e+02 6.000e+02 6.000e+02 6.000e+02 6.000e+02 6.000e+02 6.000e+02 6.000e+02 6.000e+02 6.000e+02 6.000e+02 6.000e+02 6.000e+02 6.000e+02 6.000e+02 6.000e+02 6.000e+02 6.000e+02 6.000e+02 6.000e+02 6.000e+02 6.000e+02
           </DataArray>
           <DataArray type="Float32" Name="nitrate/optimalNutrientConcentration" NumberOfComponents="1" format="ascii">
 1.200e+03 1.200e+03 1.200e+03 1.200e+03 1.200e+03 1.200e+03 1.200e+03 1.200e+03 1.200e+03 1.200e+03 1.200e+03 1.200e+03 1.200e+03 1.200e+03 1.200e+03 1.200e+03 1.200e+03 1.200e+03 1.200e+03 1.200e+03 1.200e+03 1.200e+03 1.200e+03 1.200e+03 1.200e+03 1.200e+03 1.200e+03 1.200e+03 1.200e+03 1.200e+03 1.200e+03 1.200e+03 1.200e+03 1.200e+03 1.200e+03 1.200e+03 1.200e+03 1.200e+03 1.200e+03 1.200e+03 1.200e+03 1.200e+03 1.200e+03 1.200e+03 1.200e+03 1.200e+03 1.200e+03 1.200e+03 1.200e+03 1.200e+03 1.200e+03 1.200e+03 1.200e+03 1.200e+03 1.200e+03 1.200e+03 1.200e+03 1.200e+03 1.200e+03 1.200e+03 1.200e+03 1.200e+03 1.200e+03 1.200e+03 1.200e+03 1.200e+03 1.200e+03 1.200e+03 1.200e+03 1.200e+03 1.200e+03 1.200e+03 1.200e+03 1.200e+03 1.200e+03 1.200e+03 1.200e+03 1.200e+03 1.200e+03 1.200e+03 1.200e+03 1.200e+03 1.200e+03 1.200e+03 1.200e+03 1.200e+03 1.200e+03 1.200e+03 1.200e+03 1.200e+03 1.200e+03 1.200e+03 1.200e+03 1.200e+03 1.200e+03 1.200e+03 1.200e+03 1.200e+03 1.200e+03 1.200e+03 1.200e+03 1.200e+03 1.200e+03 1.200e+03 1.200e+03 1.200e+03 1.200e+03 1.200e+03 1.200e+03 1.200e+03 1.200e+03 1.200e+03 1.200e+03 1.200e+03 1.200e+03 1.200e+03 1.200e+03 1.200e+03 1.200e+03 1.200e+03 1.200e+03 1.200e+03 1.200e+03 1.200e+03 1.200e+03 1.200e+03 1.200e+03 1.200e+03 1.200e+03 1.200e+03 1.200e+03 1.200e+03 1.200e+03 1.200e+03 1.200e+03 1.200e+03 1.200e+03 1.200e+03 1.200e+03 1.200e+03 1.200e+03 1.200e+03 1.200e+03 1.200e+03 1.200e+03 1.200e+03 1.200e+03 1.200e+03 1.200e+03 1.200e+03 1.200e+03 1.200e+03 1.200e+03 1.200e+03 1.200e+03 1.200e+03 1.200e+03 1.200e+03 1.200e+03 1.200e+03 1.200e+03 1.200e+03 1.200e+03 1.200e+03 1.200e+03 1.200e+03 1.200e+03 1.200e+03 1.200e+03 1.200e+03 1.200e+03 1.200e+03 1.200e+03 1.200e+03 1.200e+03 1.200e+03 1.200e+03 1.200e+03 1.200e+03 1.200e+03 1.200e+03 1.200e+03 1.200e+03 1.200e+03 1.200e+03 1.200e+03 1.200e+03 1.200e+03 1.200e+03 1.200e+03 1.200e+03 1.200e+03 1.200e+03 1.200e+03 1.200e+03 1.200e+03 1.200e+03 1.200e+03 1.200e+03 1.200e+03 1.200e+03 1.200e+03 1.200e+03 1.200e+03 1.200e+03 1.200e+03 1.200e+03 1.200e+03 1.200e+03 1.200e+03 1.200e+03 1.200e+03 1.200e+03 1.200e+03 1.200e+03 1.200e+03 1.200e+03 1.200e+03 1.200e+03 1.200e+03 1.200e+03 1.200e+03 1.200e+03 1.200e+03 1.200e+03 1.200e+03 1.200e+03 1.200e+03 1.200e+03 1.200e+03 1.200e+03 1.200e+03 1.200e+03 1.200e+03 1.200e+03 1.200e+03 1.200e+03 1.200e+03 1.200e+03 1.200e+03 1.200e+03 1.200e+03 1.200e+03 1.200e+03 1.200e+03 1.200e+03 1.200e+03 1.200e+03 1.200e+03 1.200e+03 1.200e+03 1.200e+03 1.200e+03 1.200e+03 1.200e+03 1.200e+03 1.200e+03 1.200e+03 1.200e+03 1.200e+03 1.200e+03 1.200e+03 1.200e+03 1.200e+03 1.200e+03 1.200e+03 1.200e+03 1.200e+03 1.200e+03 1.200e+03 1.200e+03 1.200e+03 1.200e+03 1.200e+03 1.200e+03 1.200e+03 1.200e+03 1.200e+03 1.200e+03 1.200e+03 1.200e+03 1.200e+03 1.200e+03 1.200e+03 1.200e+03 1.200e+03 1.200e+03 1.200e+03 1.200e+03 1.200e+03 1.200e+03 1.200e+03 1.200e+03 1.200e+03 1.200e+03 1.200e+03 1.200e+03 1.200e+03 1.200e+03 1.200e+03 1.200e+03 1.200e+03 1.200e+03 1.200e+03 1.200e+03 1.200e+03 1.200e+03 1.200e+03 1.200e+03 1.200e+03 1.200e+03 1.200e+03 1.200e+03 1.200e+03 1.200e+03 1.200e+03 1.200e+03 1.200e+03 1.200e+03 1.200e+03 1.200e+03 1.200e+03 1.200e+03 1.200e+03 1.200e+03 1.200e+03 1.200e+03 1.200e+03 1.200e+03 1.200e+03 1.200e+03
           </DataArray>
           <DataArray type="Float32" Name="nitrate/radiusDepletionZone" NumberOfComponents="1" format="ascii">
 1.500e-02 1.500e-02 1.500e-02 1.500e-02 1.500e-02 1.500e-02 1.500e-02 1.500e-02 1.500e-02 3.409e-02 3.401e-02 3.400e-02 3.400e-02 3.400e-02 3.400e-02 3.400e-02 3.400e-02 3.400e-02 3.400e-02 3.400e-02 3.400e-02 3.400e-02 1.500e-02 1.500e-02 1.500e-02 1.500e-02 1.500e-02 1.500e-02 1.500e-02 1.500e-02 1.500e-02 3.409e-02 3.401e-02 1.487e+00 1.422e+00 1.190e+00 9.947e-01 9.650e-01 7.874e-01 7.653e-01 6.029e-01 4.492e-01 3.034e-01 2.958e-01 1.500e-02 1.500e-02 1.500e-02 1.500e-02 1.500e-02 1.500e-02 1.500e-02 1.500e-02 1.500e-02 3.409e-02 3.401e-02 1.497e+00 1.422e+00 1.190e+00 9.947e-01 9.650e-01 7.874e-01 7.653e-01 6.029e-01 4.492e-01 3.034e-01 2.958e-01 1.500e-02 1.500e-02 1.500e-02 1.500e-02 1.500e-02 1.500e-02 1.500e-02 1.500e-02 1.500e-02 3.409e-02 3.401e-02 1.497e+00 1.422e+00 1.190e+00 9.947e-01 9.650e-01 7.874e-01 7.653e-01 6.029e-01 4.492e-01 3.034e-01 2.958e-01 3.400e-02 3.400e-02 4.802e-01 3.400e-02 3.400e-02 4.430e-01 3.400e-02 3.400e-02 3.841e-01 3.400e-02 3.400e-02 4.947e-01 2.929e+00 8.084e+00 2.796e+01 1.939e+01 1.640e+01 1.267e+01 1.066e+01 2.076e-01 2.061e-01 2.037e-01 1.503e-02 1.501e-02 6.438e-01 2.819e-01 1.503e-02 1.501e-02 6.295e-01 1.449e-01 1.503e-02 1.501e-02 7.177e-01 3.808e-01 1.503e-02 1.501e-02 1.267e+00 1.502e-02 1.501e-02 8.220e-01 1.500e-02 1.502e-02 1.501e-02 8.598e-01 1.502e-02 1.501e-02 5.515e-01 1.502e-02 1.501e-02 5.682e-01 1.502e-02 1.501e-02 4.314e-01 1.502e-02 1.501e-02 5.522e-01 1.502e-02 1.500e-02 3.501e-01 1.502e-02 1.501e-02 3.471e-01 1.503e-02 1.501e-02 8.742e-01 4.227e-01 1.502e-02 1.501e-02 6.701e-01 1.502e-02 1.501e-02 1.500e-02 1.502e-02 1.500e-02 3.852e-01 1.502e-02 1.500e-02 1.500e-02 1.502e-02 1.501e-02 4.829e-01 1.502e-02 1.500e-02 4.411e-01 1.502e-02 1.500e-02 2.611e-01 1.501e-02 1.500e-02 1.501e-02 1.500e-02 4.155e-01 1.501e-02 1.500e-02 2.968e-01 1.503e-02 1.502e-02 1.466e+00 1.500e-02 1.501e-02 1.500e-02 1.501e-02 1.500e-02 1.501e-02 1.500e-02 3.171e-01 1.501e-02 1.500e-02 1.501e-02 1.500e-02 1.501e-02 1.500e-02 1.500e-02 1.501e-02 1.500e-02 1.501e-02 1.500e-02 1.501e-02 1.500e-02 1.501e-02 1.500e-02 1.503e-02 1.501e-02 9.779e-01 1.459e-01 1.501e-02 1.500e-02 1.501e-02 1.500e-02 1.501e-02 1.500e-02 1.501e-02 1.500e-02 1.501e-02 1.500e-02 1.501e-02 1.500e-02 1.501e-02 1.500e-02 1.501e-02 1.500e-02 1.501e-02 1.500e-02 1.500e-02 1.500e-02 1.503e-02 1.501e-02 9.007e-01 4.683e-01 1.500e-02 1.500e-02 1.500e-02 1.500e-02 1.500e-02 1.500e-02 1.500e-02 1.500e-02 1.500e-02 1.500e-02 1.500e-02 1.500e-02 1.500e-02 1.500e-02 1.500e-02 1.500e-02 1.500e-02 1.500e-02 1.500e-02 1.503e-02 1.501e-02 6.595e-01 1.500e-02 1.500e-02 1.500e-02 1.500e-02 1.500e-02 1.500e-02 1.500e-02 1.500e-02 1.500e-02 1.500e-02 1.500e-02 1.503e-02 1.501e-02 7.234e-01 2.874e-01 1.500e-02 1.500e-02 1.500e-02 1.500e-02 1.500e-02 1.500e-02 1.500e-02 1.500e-02 1.500e-02 1.500e-02 1.503e-02 1.501e-02 8.226e-01 1.500e-02 1.500e-02 1.500e-02 1.500e-02 1.500e-02 1.500e-02 1.500e-02 1.500e-02 1.503e-02 1.501e-02 1.500e-02 1.504e-02 1.501e-02 4.437e-01 1.501e-02 1.500e-02 1.500e-02 2.250e+00 6.543e+01 2.997e+01 1.883e+01 1.411e+01 1.060e+01 8.829e+00 7.073e+00 5.756e+00 5.115e+00 4.258e+00 3.869e+00 3.259e+00 3.008e+00 2.547e+00 2.376e+00 2.012e+00 1.894e+00 1.597e+00 1.513e+00 1.437e+00 1.204e+00 9.932e-01 9.499e-01 7.669e-01 5.986e-01 4.432e-01
           </DataArray>
           <DataArray type="Float32" Name="nitrate/rootSegmentMinimalNutrientContent" NumberOfComponents="1" format="ascii">
 8.669e-03 8.064e-03 7.171e-03 4.044e-03 4.743e-03 4.052e-03 2.275e-03 2.036e-03 6.723e-04 1.646e-01 1.814e-01 1.406e-01 1.646e-01 1.230e-01 1.337e-01 1.443e-01 1.550e-01 1.630e-01 1.639e-01 1.639e-01 1.639e-01 8.193e-02 8.735e-03 6.281e-03 5.339e-03 5.777e-03 3.797e-03 3.697e-03 2.270e-03 1.622e-03 8.476e-04 1.646e-01 1.814e-01 1.406e-01 1.646e-01 1.230e-01 1.337e-01 1.443e-01 1.550e-01 1.630e-01 1.639e-01 1.639e-01 1.639e-01 8.193e-02 9.635e-03 9.037e-03 5.132e-03 5.333e-03 4.201e-03 3.042e-03 2.556e-03 1.289e-03 6.965e-04 1.646e-01 1.814e-01 1.406e-01 1.646e-01 1.230e-01 1.337e-01 1.443e-01 1.550e-01 1.630e-01 1.639e-01 1.639e-01 1.639e-01 8.193e-02 8.571e-03 7.617e-03 5.682e-03 6.332e-03 4.001e-03 3.372e-03 2.825e-03 1.894e-03 8.177e-04 1.646e-01 1.814e-01 1.406e-01 1.646e-01 1.230e-01 1.337e-01 1.443e-01 1.550e-01 1.630e-01 1.639e-01 1.639e-01 1.639e-01 8.193e-02 1.683e-01 1.833e-01 9.197e-02 1.683e-01 1.833e-01 9.197e-02 1.683e-01 1.833e-01 9.197e-02 1.683e-01 1.833e-01 9.197e-02 6.371e+00 5.743e+00 7.053e+00 4.862e+00 7.208e+00 7.113e+00 6.711e+00 6.772e+00 6.596e+00 1.839e+00 3.579e-02 3.522e-02 3.516e-02 7.636e-03 3.539e-02 3.463e-02 3.457e-02 1.439e-03 3.546e-02 3.571e-02 3.566e-02 1.069e-02 3.501e-02 3.498e-02 3.334e-02 3.535e-02 3.507e-02 3.502e-02 1.667e-03 3.540e-02 3.491e-02 2.577e-02 3.499e-02 3.585e-02 3.092e-02 3.484e-02 3.707e-02 2.736e-02 3.585e-02 3.471e-02 1.734e-02 3.559e-02 3.743e-02 2.889e-02 3.554e-02 3.542e-02 9.526e-03 3.569e-02 3.534e-02 1.842e-02 3.499e-02 3.554e-02 3.547e-02 1.128e-02 3.563e-02 3.505e-02 1.675e-02 3.521e-02 3.435e-02 2.288e-02 3.513e-02 3.563e-02 1.548e-02 3.549e-02 3.577e-02 1.787e-02 3.489e-02 3.311e-02 3.124e-02 3.545e-02 3.523e-02 2.288e-02 3.508e-02 3.467e-02 5.773e-03 3.588e-02 3.392e-02 3.477e-02 3.542e-02 7.693e-03 3.473e-02 3.517e-02 9.584e-03 3.443e-02 3.477e-02 3.471e-02 2.081e-02 3.541e-02 2.450e-02 3.496e-02 3.211e-02 3.557e-02 3.527e-02 8.391e-03 3.479e-02 2.883e-02 3.470e-02 3.251e-02 3.568e-02 3.464e-02 3.297e-03 3.498e-02 3.224e-02 3.375e-02 2.212e-02 3.581e-02 1.982e-02 3.539e-02 3.024e-02 3.513e-02 3.517e-02 3.511e-02 3.051e-03 3.479e-02 1.470e-02 3.414e-02 2.575e-02 3.482e-02 1.762e-02 3.461e-02 3.492e-02 3.464e-02 2.363e-02 3.561e-02 1.362e-02 3.478e-02 1.792e-02 3.584e-02 1.917e-02 3.468e-02 1.689e-02 3.463e-02 1.752e-02 3.535e-02 3.517e-02 3.511e-02 1.169e-02 3.490e-02 5.004e-03 3.520e-02 1.222e-02 3.481e-02 1.255e-02 3.589e-02 9.224e-03 3.511e-02 2.650e-03 3.436e-02 9.524e-03 3.433e-02 1.214e-02 3.304e-02 3.475e-02 6.589e-03 3.519e-02 1.514e-03 3.593e-02 3.552e-02 3.103e-02 3.443e-02 1.537e-03 3.222e-02 3.444e-02 3.294e-02 3.043e-02 2.798e-02 2.952e-02 2.778e-02 2.427e-02 2.198e-02 3.596e-02 3.524e-02 3.518e-02 1.406e-02 1.940e-02 2.182e-02 2.222e-02 1.954e-02 1.909e-02 1.624e-02 1.802e-02 1.623e-02 1.300e-02 1.027e-02 3.458e-02 3.521e-02 2.929e-02 1.112e-02 8.881e-03 6.037e-03 5.435e-03 4.496e-03 3.213e-03 2.282e-03 7.110e-04 3.514e-02 3.555e-02 2.810e-02 3.557e-02 3.439e-02 3.217e-02 3.456e-02 1.929e-02 2.095e-02 4.017e-01 3.882e-01 3.751e-01 3.627e-01 3.507e-01 3.396e-01 3.292e-01 3.195e-01 3.106e-01 3.023e-01 2.947e-01 2.880e-01 2.824e-01 2.780e-01 2.745e-01 2.713e-01 2.683e-01 2.657e-01 2.633e-01 2.612e-01 2.594e-01 2.578e-01 2.565e-01 2.554e-01 2.546e-01 2.541e-01 1.692e-01
           </DataArray>
           <DataArray type="Float32" Name="nitrate/rootSegmentNutrientUptake" NumberOfComponents="1" format="ascii">