<?xml version="1.0"?>
<VTKFile type="UnstructuredGrid" version="0.1" byte_order="LittleEndian">
   <UnstructuredGrid>
      <Piece NumberOfPoints="8530" NumberOfCells="584">
         <Points>
            <DataArray type="Float32" Name="Position" NumberOfComponents="3" format="ascii">
0.118	-5.061	0.060
0.116	-5.053	0.064
0.111	-5.049	0.071
0.106	-5.050	0.078
0.101	-5.056	0.083
0.099	-5.065	0.083
0.101	-5.074	0.080
0.105	-5.078	0.073
0.111	-5.077	0.066
0.116	-5.070	0.061
0.789	-5.159	0.599
0.787	-5.151	0.603
0.782	-5.147	0.610
0.776	-5.148	0.617
0.772	-5.154	0.621
0.770	-5.163	0.622
0.772	-5.172	0.618
0.776	-5.176	0.612
0.782	-5.175	0.605
0.787	-5.169	0.600
0.193	-5.154	0.126
0.199	-5.151	0.133
0.205	-5.154	0.139
0.208	-5.162	0.144
0.207	-5.171	0.144
0.203	-5.178	0.140
0.197	-5.181	0.134
0.192	-5.178	0.127
0.189	-5.171	0.123
0.189	-5.162	0.122
0.845	-5.228	-0.435
0.853	-5.228	-0.431
0.863	-5.228	-0.433
0.869	-5.228	-0.439
0.871	-5.228	-0.448
0.866	-5.228	-0.457
0.858	-5.228	-0.461
0.849	-5.228	-0.459
0.842	-5.228	-0.453
0.841	-5.228	-0.444
0.759	-6.295	0.578
0.766	-6.300	0.581
0.769	-6.306	0.587
0.766	-6.311	0.595
0.759	-6.313	0.601
0.750	-6.311	0.602
0.743	-6.306	0.600
0.740	-6.300	0.593
0.743	-6.295	0.586
0.750	-6.293	0.580
0.578	-6.778	0.236
0.587	-6.776	0.234
0.592	-6.770	0.228
0.592	-6.764	0.222
0.587	-6.759	0.217
0.578	-6.757	0.215
0.569	-6.759	0.217
0.564	-6.764	0.222
0.564	-6.770	0.228
0.569	-6.776	0.234
0.814	-6.444	0.630
0.812	-6.449	0.638
0.806	-6.449	0.645
0.798	-6.445	0.649
0.792	-6.438	0.647
0.789	-6.431	0.641
0.791	-6.427	0.633
0.797	-6.427	0.626
0.804	-6.431	0.623
0.811	-6.438	0.624
0.454	-6.857	0.331
0.452	-6.861	0.339
0.446	-6.861	0.346
0.439	-6.857	0.350
0.433	-6.851	0.348
0.430	-6.844	0.342
0.432	-6.840	0.334
0.438	-6.840	0.327
0.445	-6.844	0.324
0.451	-6.851	0.325
0.854	-6.571	0.667
0.852	-6.563	0.671
0.847	-6.560	0.678
0.841	-6.562	0.685
0.837	-6.569	0.690
0.837	-6.578	0.691
0.839	-6.586	0.687
0.844	-6.590	0.680
0.849	-6.588	0.672
0.853	-6.581	0.667
1.341	-6.601	1.017
1.338	-6.593	1.021
1.334	-6.589	1.028
1.328	-6.591	1.036
1.324	-6.598	1.040
1.323	-6.607	1.041
1.326	-6.615	1.037
1.331	-6.619	1.030
1.336	-6.617	1.023
1.340	-6.610	1.018
0.881	-6.701	0.712
0.889	-6.699	0.716
0.896	-6.703	0.722
0.898	-6.710	0.727
0.896	-6.719	0.729
0.889	-6.725	0.728
0.881	-6.727	0.724
0.875	-6.724	0.718
0.872	-6.716	0.713
0.875	-6.708	0.711
1.101	-6.859	0.366
1.109	-6.857	0.370
1.115	-6.860	0.376
1.118	-6.867	0.381
1.115	-6.876	0.383
1.109	-6.883	0.382
1.101	-6.884	0.378
1.094	-6.881	0.372
1.092	-6.874	0.367
1.094	-6.865	0.365
0.925	-6.840	0.750
0.930	-6.837	0.757
0.935	-6.840	0.765
0.936	-6.847	0.770
0.935	-6.856	0.771
0.931	-6.863	0.768
0.926	-6.866	0.760
0.922	-6.864	0.753
0.920	-6.856	0.747
0.921	-6.847	0.746
1.290	-6.938	0.536
1.295	-6.930	0.536
1.293	-6.921	0.536
1.287	-6.914	0.536
1.278	-6.913	0.536
1.269	-6.917	0.536
1.265	-6.925	0.536
1.267	-6.935	0.536
1.273	-6.941	0.536
1.282	-6.943	0.536
0.979	-7.002	0.799
0.983	-6.994	0.802
0.982	-6.985	0.803
0.977	-6.978	0.802
0.968	-6.976	0.798
0.961	-6.979	0.794
0.957	-6.987	0.791
0.958	-6.996	0.790
0.964	-7.003	0.791
0.972	-7.005	0.794
0.729	-7.070	1.279
0.738	-7.067	1.278
0.746	-7.070	1.279
0.752	-7.077	1.280
0.752	-7.086	1.283
0.746	-7.094	1.285
0.738	-7.097	1.285
0.729	-7.094	1.285
0.723	-7.086	1.283
0.723	-7.077	1.280
1.011	-7.144	0.839
1.004	-7.140	0.843
0.998	-7.133	0.843
0.995	-7.126	0.838
0.997	-7.120	0.830
1.003	-7.120	0.823
1.010	-7.124	0.819
1.017	-7.130	0.819
1.019	-7.138	0.824
1.017	-7.143	0.832
0.725	-7.410	0.584
0.717	-7.406	0.588
0.711	-7.399	0.587
0.709	-7.392	0.583
0.711	-7.386	0.575
0.716	-7.386	0.568
0.724	-7.390	0.564
0.730	-7.397	0.564
0.732	-7.404	0.569
0.730	-7.409	0.576
1.031	-7.269	0.870
1.033	-7.263	0.864
1.039	-7.261	0.857
1.046	-7.264	0.852
1.052	-7.271	0.852
1.055	-7.279	0.856
1.053	-7.285	0.863
1.047	-7.287	0.869
1.039	-7.284	0.874
1.033	-7.277	0.874
0.821	-7.445	0.637
0.823	-7.439	0.631
0.829	-7.437	0.624
0.837	-7.440	0.619
0.843	-7.447	0.619
0.846	-7.455	0.623
0.843	-7.461	0.630
0.837	-7.463	0.636
0.830	-7.460	0.641
0.824	-7.453	0.641
1.075	-7.405	0.884
1.082	-7.403	0.890
1.087	-7.406	0.897
1.088	-7.413	0.902
1.085	-7.422	0.905
1.079	-7.428	0.903
1.072	-7.430	0.897
1.067	-7.427	0.890
1.065	-7.420	0.884
1.068	-7.412	0.882
1.355	-7.583	0.607
1.362	-7.581	0.612
1.367	-7.584	0.619
1.368	-7.591	0.625
1.365	-7.599	0.628
1.359	-7.606	0.626
1.352	-7.608	0.620
1.347	-7.605	0.613
1.345	-7.598	0.607
1.348	-7.589	0.605
1.116	-7.573	0.923
1.118	-7.566	0.929
1.116	-7.558	0.932
1.110	-7.551	0.930
1.104	-7.547	0.925
1.098	-7.549	0.917
1.097	-7.556	0.911
1.099	-7.564	0.908
1.105	-7.572	0.910
1.111	-7.575	0.915
0.873	-7.704	1.131
0.873	-7.696	1.135
0.873	-7.687	1.134
0.873	-7.680	1.127
0.873	-7.679	1.118
0.873	-7.683	1.110
0.873	-7.691	1.106
0.873	-7.700	1.107
0.873	-7.707	1.114
0.873	-7.708	1.123
0.289	-5.289	0.191
0.292	-5.282	0.196
0.290	-5.274	0.200
0.283	-5.267	0.200
0.274	-5.266	0.197
0.267	-5.269	0.192
0.264	-5.276	0.187
0.266	-5.284	0.184
0.273	-5.290	0.183
0.282	-5.292	0.186
-0.024	-5.679	0.905
-0.021	-5.672	0.910
-0.024	-5.664	0.914
-0.030	-5.657	0.914
-0.039	-5.655	0.911
-0.046	-5.659	0.907
-0.049	-5.666	0.901
-0.047	-5.674	0.898
-0.040	-5.680	0.897
-0.031	-5.682	0.900
1.139	-7.717	0.955
1.132	-7.712	0.958
1.127	-7.704	0.956
1.126	-7.697	0.950
1.129	-7.694	0.942
1.135	-7.695	0.936
1.142	-7.700	0.933
1.147	-7.708	0.935
1.148	-7.715	0.941
1.145	-7.718	0.948
0.919	-7.908	0.770
0.912	-7.902	0.773
0.907	-7.895	0.771
0.906	-7.888	0.765
0.909	-7.884	0.757
0.916	-7.885	0.750
0.923	-7.890	0.747
0.928	-7.898	0.749
0.929	-7.905	0.755
0.925	-7.909	0.763
1.176	-7.863	0.970
1.180	-7.855	0.974
1.178	-7.846	0.975
1.172	-7.839	0.974
1.164	-7.837	0.971
1.156	-7.840	0.967
1.152	-7.848	0.963
1.154	-7.857	0.961
1.160	-7.864	0.962
1.168	-7.866	0.966
1.018	-7.949	1.311
1.022	-7.941	1.314
1.021	-7.932	1.316
1.015	-7.925	1.315
1.006	-7.923	1.312
0.999	-7.926	1.307
0.995	-7.934	1.304
0.996	-7.943	1.302
1.002	-7.950	1.303
1.011	-7.952	1.306
1.207	-8.006	0.988
1.204	-8.007	0.997
1.197	-8.005	1.003
1.190	-7.999	1.005
1.185	-7.993	1.001
1.183	-7.988	0.994
1.186	-7.986	0.985
1.192	-7.989	0.979
1.200	-7.994	0.977
1.205	-8.001	0.981
1.042	-8.193	0.896
1.039	-8.194	0.904
1.032	-8.192	0.911
1.025	-8.186	0.912
1.020	-8.180	0.909
1.018	-8.175	0.901
1.021	-8.173	0.892
1.027	-8.175	0.886
1.035	-8.181	0.884
1.040	-8.188	0.888
1.206	-8.137	1.016
1.209	-8.132	1.009
1.216	-8.131	1.003
1.224	-8.135	0.999
1.229	-8.142	1.000
1.230	-8.150	1.004
1.227	-8.156	1.011
1.220	-8.157	1.017
1.213	-8.153	1.020
1.207	-8.145	1.020
1.024	-8.286	0.798
1.028	-8.280	0.791
1.034	-8.279	0.785
1.042	-8.283	0.781
1.048	-8.290	0.782
1.049	-8.298	0.786
1.046	-8.304	0.793
1.039	-8.305	0.799
1.031	-8.301	0.802
1.026	-8.294	0.802
1.239	-8.279	1.019
1.245	-8.277	1.025
1.251	-8.280	1.032
1.252	-8.287	1.037
1.249	-8.296	1.040
1.243	-8.302	1.037
1.236	-8.305	1.032
1.231	-8.302	1.024
1.230	-8.295	1.019
1.232	-8.286	1.017
1.413	-8.379	0.848
1.420	-8.377	0.854
1.425	-8.380	0.861
1.427	-8.387	0.867
1.424	-8.396	0.869
1.418	-8.403	0.867
1.411	-8.405	0.861
1.406	-8.402	0.854
1.404	-8.395	0.848
1.407	-8.386	0.846
1.258	-8.426	1.042
1.265	-8.423	1.048
1.271	-8.426	1.054
1.273	-8.434	1.059
1.271	-8.443	1.061
1.266	-8.450	1.058
1.259	-8.452	1.052
1.254	-8.449	1.046
1.251	-8.442	1.041
1.253	-8.433	1.039
1.401	-8.475	0.896
1.408	-8.473	0.902
1.414	-8.476	0.909
1.416	-8.483	0.914
1.414	-8.492	0.915
1.409	-8.499	0.913
1.402	-8.502	0.907
1.397	-8.499	0.900
1.394	-8.491	0.895
1.396	-8.482	0.894
1.293	-8.596	1.074
1.296	-8.589	1.080
1.293	-8.581	1.083
1.287	-8.574	1.082
1.280	-8.571	1.077
1.274	-8.573	1.071
1.271	-8.580	1.065
1.273	-8.588	1.062
1.279	-8.595	1.063
1.287	-8.598	1.068
1.146	-8.695	1.250
1.148	-8.688	1.256
1.146	-8.680	1.259
1.140	-8.673	1.258
1.133	-8.670	1.253
1.127	-8.672	1.247
1.124	-8.679	1.241
1.126	-8.688	1.238
1.132	-8.695	1.239
1.140	-8.697	1.244
1.299	-8.720	1.086
1.303	-8.717	1.094
1.306	-8.719	1.102
1.308	-8.726	1.108
1.307	-8.736	1.108
1.305	-8.743	1.104
1.301	-8.747	1.096
1.297	-8.744	1.088
1.295	-8.737	1.083
1.296	-8.728	1.082
1.476	-8.740	1.005
1.480	-8.737	1.013
1.483	-8.740	1.021
1.485	-8.747	1.027
1.484	-8.756	1.028
1.481	-8.764	1.023
1.478	-8.767	1.016
1.474	-8.764	1.007
1.472	-8.757	1.002
1.473	-8.748	1.001
1.317	-8.867	1.108
1.323	-8.865	1.115
1.327	-8.867	1.123
1.328	-8.874	1.129
1.326	-8.883	1.131
1.321	-8.890	1.127
1.316	-8.893	1.120
1.312	-8.891	1.113
1.310	-8.884	1.107
1.313	-8.875	1.105
1.482	-8.925	1.006
1.487	-8.922	1.013
1.491	-8.925	1.021
1.492	-8.932	1.027
1.490	-8.941	1.028
1.485	-8.948	1.025
1.480	-8.951	1.018
1.476	-8.948	1.010
1.475	-8.941	1.004
1.477	-8.932	1.003
1.325	-9.015	1.136
1.333	-9.014	1.132
1.341	-9.018	1.131
1.346	-9.025	1.134
1.346	-9.033	1.138
1.341	-9.039	1.144
1.332	-9.039	1.148
1.324	-9.035	1.149
1.319	-9.028	1.146
1.319	-9.020	1.141
1.278	-9.083	1.023
1.287	-9.082	1.019
1.295	-9.087	1.019
1.300	-9.094	1.021
1.300	-9.102	1.026
1.294	-9.107	1.031
1.286	-9.108	1.035
1.278	-9.104	1.036
1.273	-9.096	1.034
1.273	-9.088	1.029
0.358	-5.411	0.246
0.355	-5.410	0.255
0.349	-5.405	0.260
0.342	-5.398	0.260
0.338	-5.392	0.254
0.337	-5.389	0.245
0.340	-5.391	0.237
0.346	-5.396	0.232
0.353	-5.402	0.232
0.357	-5.408	0.237
-0.035	-5.790	0.154
-0.038	-5.788	0.163
-0.044	-5.784	0.168
-0.050	-5.777	0.168
-0.055	-5.771	0.162
-0.056	-5.768	0.153
-0.052	-5.769	0.145
-0.046	-5.774	0.139
-0.040	-5.781	0.140
-0.036	-5.787	0.145
1.355	-9.182	1.156
1.357	-9.173	1.156
1.353	-9.164	1.157
1.346	-9.160	1.160
1.337	-9.161	1.164
1.331	-9.168	1.166
1.329	-9.177	1.166
1.333	-9.185	1.165
1.340	-9.190	1.161
1.349	-9.188	1.158
1.392	-9.185	1.251
1.394	-9.176	1.251
1.390	-9.168	1.253
1.383	-9.164	1.256
1.374	-9.165	1.259
1.368	-9.171	1.262
1.366	-9.180	1.262
1.370	-9.189	1.260
1.377	-9.193	1.257
1.386	-9.192	1.254
1.362	-9.335	1.185
1.365	-9.328	1.190
1.363	-9.319	1.191
1.359	-9.311	1.189
1.352	-9.308	1.183
1.346	-9.311	1.176
1.343	-9.318	1.172
1.344	-9.327	1.170
1.349	-9.335	1.173
[...]
         <CellData>
           <DataArray type="Float32" Name="combinedRootClassID" NumberOfComponents="1" format="ascii">
 -1.300e+01 -1.300e+01 -1.300e+01 -1.300e+01 -1.300e+01 -1.300e+01 -1.300e+01 -1.300e+01 -1.300e+01 -1.300e+01 -1.300e+01 -1.300e+01 -1.300e+01 -1.300e+01 -1.300e+01 -1.300e+01 -1.300e+01 -1.300e+01 -1.300e+01 -1.300e+01 -1.300e+01 -1.300e+01 -1.300e+01 -1.300e+01 -1.300e+01 -1.300e+01 -1.300e+01 -1.300e+01 -1.300e+01 -1.300e+01 -1.300e+01 -1.300e+01 -1.300e+01 -1.300e+01 -1.300e+01 -1.300e+01 -5.000e+00 -5.000e+00 -5.000e+00 -5.000e+00 -5.000e+00 -5.000e+00 -5.000e+00 -5.000e+00 -5.000e+00 -5.000e+00 -5.000e+00 -5.000e+00 -5.000e+00 -5.000e+00 -5.000e+00 -5.000e+00 -5.000e+00 -5.000e+00 -1.300e+01 -1.300e+01 -1.300e+01 -1.300e+01 -1.300e+01 -1.300e+01 -1.300e+01 -1.300e+01 -1.300e+01 -1.300e+01 -1.300e+01 -1.300e+01 -1.300e+01 -1.300e+01 -1.300e+01 -1.300e+01 -1.300e+01 -1.300e+01 -1.300e+01 -1.300e+01 -1.300e+01 -1.300e+01 -1.300e+01 -1.300e+01 -1.300e+01 -1.300e+01 -1.300e+01 -1.300e+01 -1.300e+01 -1.300e+01 -1.300e+01 -1.300e+01 -1.300e+01 -1.300e+01 -1.300e+01 -1.300e+01 -5.000e+00 -5.000e+00 -5.000e+00 -5.000e+00 -5.000e+00 -5.000e+00 -5.000e+00 -5.000e+00 -5.000e+00 -5.000e+00 -5.000e+00 -5.000e+00 -5.000e+00 -5.000e+00 -5.000e+00 -5.000e+00 -5.000e+00 -5.000e+00 -1.300e+01 -1.300e+01 -1.300e+01 -1.300e+01 -1.300e+01 -1.300e+01 -1.300e+01 -1.300e+01 -1.300e+01 -1.300e+01 -1.300e+01 -1.300e+01 -1.300e+01 -1.300e+01 -1.300e+01 -1.300e+01 -1.300e+01 -1.300e+01 -1.300e+01 -1.300e+01 -1.300e+01 -1.300e+01 -1.300e+01 -1.300e+01 -1.300e+01 -1.300e+01 -1.300e+01 -1.300e+01 -1.300e+01 -1.300e+01 -1.300e+01 -1.300e+01 -1.300e+01 -1.300e+01 -1.300e+01 -1.300e+01 -1.300e+01 -1.300e+01 -5.000e+00 -5.000e+00 -5.000e+00 -5.000e+00 -5.000e+00 -5.000e+00 -5.000e+00 -5.000e+00 -5.000e+00 -5.000e+00 -5.000e+00 -5.000e+00 -5.000e+00 -5.000e+00 -5.000e+00 -5.000e+00 -5.000e+00 -5.000e+00 -1.300e+01 -1.300e+01 -1.300e+01 -1.300e+01 -1.300e+01 -1.300e+01 -1.300e+01 -1.300e+01 -1.300e+01 -1.300e+01 -1.300e+01 -1.300e+01 -1.300e+01 -1.300e+01 -1.300e+01 -1.300e+01 -1.300e+01 -1.300e+01 -1.300e+01 -1.300e+01 -1.300e+01 -1.300e+01 -1.300e+01 -1.300e+01 -1.300e+01 -1.300e+01 -1.300e+01 -1.300e+01 -1.300e+01 -1.300e+01 -1.300e+01 -1.300e+01 -1.300e+01 -1.300e+01 -1.300e+01 -1.300e+01 -5.000e+00 -5.000e+00 -5.000e+00 -5.000e+00 -5.000e+00 -5.000e+00 -5.000e+00 -5.000e+00 -5.000e+00 -5.000e+00 -5.000e+00 -5.000e+00 -5.000e+00 -5.000e+00 -5.000e+00 -5.000e+00 -5.000e+00 -5.000e+00 -1.100e+01 -1.100e+01 -1.100e+01 -1.100e+01 -1.100e+01 -1.100e+01 -1.100e+01 -1.100e+01 -1.100e+01 -1.100e+01 -1.100e+01 -1.100e+01 -1.100e+01 -1.100e+01 -1.100e+01 -1.100e+01 -1.100e+01 -1.100e+01 -1.100e+01 -1.100e+01 -1.100e+01 -1.100e+01 -1.100e+01 -1.100e+01 -1.100e+01 -1.100e+01 -1.100e+01 -1.100e+01 -2.000e+00 -2.000e+00 -2.000e+00 -2.000e+00 -2.000e+00 -2.000e+00 -2.000e+00 -2.000e+00 -2.000e+00 -2.000e+00 -7.000e+00 -7.000e+00 -7.000e+00 -7.000e+00 -7.000e+00 -7.000e+00 -7.000e+00 -7.000e+00 -7.000e+00 -7.000e+00 -7.000e+00 -7.000e+00 -7.000e+00 -7.000e+00 -7.000e+00 -7.000e+00 -7.000e+00 -7.000e+00 -7.000e+00 -7.000e+00 -7.000e+00 -7.000e+00 -7.000e+00 -7.000e+00 -7.000e+00 -7.000e+00 -7.000e+00 -7.000e+00 -7.000e+00 -7.000e+00 -7.000e+00 -7.000e+00 -7.000e+00 -7.000e+00 -7.000e+00 -7.000e+00 -7.000e+00 -7.000e+00 -7.000e+00 -7.000e+00 -7.000e+00 -7.000e+00 -7.000e+00 -7.000e+00 -7.000e+00 -7.000e+00 -7.000e+00 -7.000e+00 -7.000e+00 -7.000e+00 -7.000e+00 -7.000e+00 -7.000e+00 -7.000e+00 -7.000e+00 -7.000e+00 -7.000e+00 -7.000e+00 -7.000e+00 -7.000e+00 -7.000e+00 -7.000e+00 -7.000e+00 -7.000e+00 -7.000e+00 -7.000e+00 -7.000e+00 -7.000e+00 -7.000e+00 -7.000e+00 -7.000e+00 -7.000e+00 -7.000e+00 -7.000e+00 -7.000e+00 -7.000e+00 -7.000e+00 -7.000e+00 -7.000e+00 -7.000e+00 -7.000e+00 -7.000e+00 -7.000e+00 -7.000e+00 -7.000e+00 -7.000e+00 -7.000e+00 -7.000e+00 -7.000e+00 -7.000e+00 -7.000e+00 -7.000e+00 -7.000e+00 -7.000e+00 -7.000e+00 -7.000e+00 -7.000e+00 -7.000e+00 -7.000e+00 -7.000e+00 -7.000e+00 -7.000e+00 -7.000e+00 -7.000e+00 -7.000e+00 -7.000e+00 -7.000e+00 -7.000e+00 -7.000e+00 -7.000e+00 -7.000e+00 -7.000e+00 -7.000e+00 -7.000e+00 -7.000e+00 -7.000e+00 -7.000e+00 -7.000e+00 -7.000e+00 -7.000e+00 -7.000e+00 -7.000e+00 -7.000e+00 -7.000e+00 -7.000e+00 -7.000e+00 -7.000e+00 -7.000e+00 -7.000e+00 -7.000e+00 -7.000e+00 -7.000e+00 -7.000e+00 -7.000e+00 -7.000e+00 -7.000e+00 -7.000e+00 -7.000e+00 -7.000e+00 -7.000e+00 -7.000e+00 -7.000e+00 -7.000e+00 -7.000e+00 -7.000e+00 -7.000e+00 -7.000e+00 -7.000e+00 -7.000e+00 -7.000e+00 -7.000e+00 -7.000e+00 -7.000e+00 -7.000e+00 -7.000e+00 -7.000e+00 -7.000e+00 -7.000e+00 -7.000e+00 -7.000e+00 -7.000e+00 -7.000e+00 -7.000e+00 -7.000e+00 -7.000e+00 -7.000e+00 -7.000e+00 -7.000e+00 -7.000e+00 -7.000e+00 -7.000e+00 -7.000e+00 -7.000e+00 -7.000e+00 -7.000e+00 -7.000e+00 -7.000e+00 -7.000e+00 -7.000e+00 -7.000e+00 -7.000e+00 -7.000e+00 -7.000e+00 -7.000e+00 -7.000e+00 -7.000e+00 -7.000e+00 -7.000e+00 -7.000e+00 -7.000e+00 -7.000e+00 -7.000e+00 -7.000e+00 -7.000e+00 -7.000e+00 -7.000e+00 -7.000e+00 -7.000e+00 -7.000e+00 -7.000e+00 -7.000e+00 -7.000e+00 -7.000e+00 -7.000e+00 -7.000e+00 -7.000e+00 -7.000e+00 -7.000e+00 -7.000e+00 -7.000e+00 -7.000e+00 -7.000e+00 -7.000e+00 -7.000e+00 -7.000e+00 -7.000e+00 -7.000e+00 -7.000e+00 -7.000e+00 -7.000e+00 -7.000e+00 -7.000e+00 -7.000e+00 -7.000e+00 -7.000e+00 -7.000e+00 -7.000e+00 -7.000e+00 -7.000e+00 -7.000e+00 -7.000e+00 -7.000e+00 -7.000e+00 -7.000e+00 -7.000e+00 -7.000e+00 -7.000e+00 -7.000e+00 -7.000e+00 -7.000e+00 -7.000e+00 -7.000e+00 -7.000e+00 -7.000e+00 -7.000e+00 -7.000e+00 -7.000e+00 -7.000e+00 -7.000e+00 -7.000e+00 -7.000e+00 -7.000e+00 -7.000e+00 -7.000e+00 -7.000e+00 -7.000e+00 -7.000e+00 -7.000e+00 -7.000e+00 -7.000e+00 -7.000e+00 -7.000e+00 -7.000e+00 -7.000e+00 -7.000e+00 -7.000e+00 -7.000e+00 -7.000e+00 -7.000e+00 -7.000e+00 -7.000e+00 -7.000e+00 -7.000e+00 -7.000e+00 -7.000e+00 -7.000e+00 -7.000e+00 -7.000e+00 -7.000e+00 -7.000e+00 -7.000e+00 -7.000e+00 -7.000e+00 -7.000e+00 -7.000e+00 -7.000e+00 -7.000e+00 -7.000e+00 -9.000e+00 -9.000e+00 -9.000e+00 -9.000e+00 -9.000e+00 -9.000e+00 -9.000e+00 -9.000e+00 -9.000e+00 -9.000e+00 -4.000e+00 -4.000e+00 -4.000e+00 -4.000e+00 -4.000e+00 -4.000e+00 -4.000e+00 -4.000e+00 -4.000e+00 -4.000e+00 -4.000e+00 -4.000e+00 -4.000e+00 -4.000e+00 -4.000e+00 -4.000e+00 -4.000e+00 -4.000e+00 -4.000e+00 -4.000e+00 -4.000e+00 -4.000e+00 -4.000e+00 -4.000e+00 -4.000e+00 -4.000e+00 -4.000e+00 -4.000e+00 -4.000e+00 -4.000e+00
           </DataArray>
           <DataArray type="Float32" Name="nitrate/minimalNutrientConcentration" NumberOfComponents="1" format="ascii">
 6.000e+02 6.000e+02 6.000e+02 6.000e+02 6.000e+02 6.000e+02 6.000e+02 6.000e+02 6.000e+02 6.000e+02 6.000e+02 6.000e+02 6.000e+02 6.000e+02 6.000e+02 6.000e+02 6.000e+02 6.000e+02 6.000e+02 6.000e+02 6.000e+02 6.000e+02 6.000e+02 6.000e+02 6.000e+02 6.000e+02 6.000e+02 6.000e+02 6.000e+02 6.000e+02 6.000e+02 6.000e+02 6.000e+02 6.000e+02 6.000e+02 6.000e+02 6.000e+02 6.000e+02 6.000e+02 6.000e+02 6.000e+02 6.000e+02 6.000e+02 6.000e+02 6.000e+02 6.000e+02 6.000e+02 6.000e+02 6.000e+02 6.000e+02 6.000e+02 6.000e+02 6.000e+02 6.000e+02 6.000e+02 6.000e+02 6.000e+02 6.000e+02 6.000e+02 6.000e+02 6.000e+02 6.000e+02 6.000e+02 6.000e+02 6.000e+02 6.000e+02 6.000e+02 6.000e+02 6.000e+02 6.000e+02 6.000e+02 6.000e+02 6.000e+02 6.000e+02 6.000e+02 6.000e+02 6.000e+02 6.000e+02 6.000e+02 6.000e+02 6.000e+02 6.000e+02 6.000e+02 6.000e+02 6.000e+02 6.000e+02 6.000e+02 6.000e+02 6.000e+02 6.000e+02 6.000e+02 6.000e+02 6.000e+02 6.000e+02 6.000e+02 6.000e+02 6.000e+02 6.000e+02 6.000e+02 6.000e+02 6.000e+02 6.000e+02 6.000e+02 6.000e+02 6.000e+02 6.000e+02 6.000e+02 6.000e+02 6.000e+02 6.000e+02 6.000e+02 6.000e+02 6.000e+02 6.000e+02 6.000e+02 6.000e+02 6.000e+02 6.000e+02 6.000e+02 6.000e+02 6.000e+02 6.000e+02 6.000e+02 6.000e+02 6.000e+02 6.000e+02 6.000e+02 6.000e+02 6.000e+02 6.000e+02 6.000e+02 6.000e+02 6.000e+02 6.000e+02 6.000e+02 6.000e+02 6.000e+02 6.000e+02 6.000e+02 6.000e+02 6.000e+02 6.000e+02 6.000e+02 6.000e+02 6.000e+02 6.000e+02 6.000e+02 6.000e+02 6.000e+02 6.000e+02 6.000e+02 6.000e+02 6.000e+02 6.000e+02 6.000e+02 6.000e+02 6.000e+02 6.000e+02 6.000e+02 6.000e+02 6.000e+02 6.000e+02 6.000e+02 6.000e+02 6.000e+02 6.000e+02 6.000e+02 6.000e+02 6.000e+02 6.000e+02 6.000e+02 6.000e+02 6.000e+02 6.000e+02 6.000e+02 6.000e+02 6.000e+02 6.000e+02 6.000e+02 6.000e+02 6.000e+02 6.000e+02 6.000e+02 6.000e+02 6.000e+02 6.000e+02 6.000e+02 6.000e+02 6.000e+02 6.000e+02 6.000e+02 6.000e+02 6.000e+02 6.000e+02 6.000e+02 6.000e+02 6.000e+02 6.000e+02 6.000e+02 6.000e+02 6.000e+02 6.000e+02 6.000e+02 6.000e+02 6.000e+02 6.000e+02 6.000e+02 6.000e+02 6.000e+02 6.000e+02 6.000e+02 6.000e+02 6.000e+02 6.000e+02 6.000e+02 6.000e+02 6.000e+02 6.000e+02 6.000e+02 6.000e+02 6.000e+02 6.000e+02 6.000e+02 6.000e+02 6.000e+02 6.000e+02 6.000e+02 6.000e+02 6.000e+02 6.000e+02 6.000e+02 6.000e+02 6.000e+02 6.000e+02 6.000e+02 6.000e+02 6.000e+02 6.000e+02 6.000e+02 6.000e+02 6.000e+02 6.000e+02 6.000e+02 6.000e+02 6.000e+02 6.000e+02 6.000e+02 6.000e+02 6.000e+02 6.000e+02 6.000e+02 6.000e+02 6.000e+02 6.000e+02 6.000e+02 6.000e+02 6.000e+02 6.000e+02 6.000e+02 6.000e+02 6.000e+02 6.000e+02 6.000e+02 6.000e+02 6.000e+02 6.000e+02 6.000e+02 6.000e+02 6.000e+02 6.000e+02 6.000e+02 6.000e+02 6.000e+02 6.000e+02 6.000e+02 6.000e+02 6.000e+02 6.000e+02 6.000e+02 6.000e+02 6.000e+02 6.000e+02 6.000e+02 6.000e+02 6.000e+02 6.000e+02 6.000e+02 6.000e+02 6.000e+02 6.000e+02 6.000e+02 6.000e+02 6.000e+02 6.000e+02 6.000e+02 6.000e+02 6.000e+02 6.000e+02 6.000e+02 6.000e+02 6.000e+02 6.000e+02 6.000e+02 6.000e+02 6.000e+02 6.000e+02 6.000e+02 6.000e+02 6.000e+02 6.000e+02 6.000e+02 6.000e+02 6.000e+02 6.000e+02 6.000e+02 6.000e+02 6.000e+02 6.000e+02 6.000e+02 6.000e+02 6.000e+02 6.000e+02 6.000e+02 6.000e+02 6.000e+02 6.000e+02 6.000e+02 6.000e+02 6.000e+02 6.000e+02 6.000e+02 6.000e+02 6.000e+02 6.000e+02 6.000e+02 6.000e+02 6.000e+02 6.000e+02 6.000e+02 6.000e+02 6.000e+02 6.000e+02 6.000e+02 6.000e+02 6.000e+02 6.000e+02 6.000e+02 6.000e+02 6.000e+02 6.000e+02 6.000e+02 6.000e+02 6.000e+02 6.000e+02 6.000e+02 6.000e+02 6.000e+02 6.000e+02 6.000e+02 6.000e+02 6.000e+02 6.000e+02 6.000e+02 6.000e+02 6.000e+02 6.000e+02 6.000e+02 6.000e+02 6.000e+02 6.000e+02 6.000e+02 6.000e+02 6.000e+02 6.000e+02 6.000e+02 6.000e+02 6.000e+02 6.000e+02 6.000e+02 6.000e+02 6.000e+02 6.000e+02 6.000e+02 6.000e+02 6.000e+02 6.000e+02 6.000e+02 6.000e+02 6.000e+02 6.000e+02 6.000e+02 6.000e+02 6.000e+02 6.000e+02 6.000e+02 6.000e+02 6.000e+02 6.000e+02 6.000e+02 6.000e+02 6.000e+02 6.000e+02 6.000e+02 6.000e+02 6.000e+02 6.000e+02 6.000e+02 6.000e+02 6.000e+02 6.000e+02 6.000e+02 6.000e+02 6.000e+02 6.000e+02 6.000e+02 6.000e+02 6.000e+02 6.000e+02 6.000e+02 6.000e+02 6.000e+02 6.000e+02 6.000e+02 6.000e+02 6.000e+02 6.000e+02 6.000e+02 6.000e+02 6.000e+02 6.000e+02 6.000e+02 6.000e+02 6.000e+02 6.000e+02 6.000e+02 6.000e+02 6.000e+02 6.000e+02 6.000e+02 6.000e+02 6.000e+02 6.000e+02 6.000e+02 6.000e+02 6.000e+02 6.000e+02 6.000e+02 6.000e+02 6.000e+02 6.000e+02 6.000e+02 6.000e+02 6.000e+02 6.000e+02 6.000e+02 6.000e+02 6.000e+02 6.000e+02 6.000e+02 6.000e+02 6.000e+02 6.000e+02 6.000e+02 6.000e+02 6.000e+02 6.000e+02 6.000e+02 6.000e+02 6.000e+02 6.000e+02 6.000e+02 6.000e+02 6.000e+02 6.000e+02 6.000e+02 6.000e+02 6.000e+02 6.000e+02 6.000e+02 6.000e+02 6.000e+02 6.000e+02 6.000e+02 6.000e+02 6.000e+02 6.000e+02 6.000e+02 6.000e+02 6.000e+02 6.000e+02 6.000e+02 6.000e+02 6.000e+02 6.000e+02 6.000e+02 6.000e+02 6.000e+02 6.000e+02 6.000e+02 6.000e+02 6.000e+02 6.000e+02 6.000e+02 6.000e+02 6.000e+02 6.000e+02 6.000e+02 6.000e+02 6.000e+02 6.000e+02 6.000e+02 6.000e+02 6.000e+02 6.000e+02 6.000e+02 6.000e+02 6.000e+02 6.000e+02 6.000e+02 6.000e+02 6.000e+02 6.000e+02 6.000e+02 6.000e+02 6.000e+02 6.000e+02 6.000e+02 6.000e+02 6.000e+02 6.000e+02 6.000e+02 6.000e+02 6.000e+02 6.000e+02 6.000e+02 6.000e+02 6.000e+02 6.000e+02 6.000e+02 6.000e+02 6.000e+02 6.000e+02 6.000e+02 6.000e+02 6.000e+02 6.000e+02 6.000e+02 6.000e+02 6.000e+02 6.000e+02 6.000e+02 6.000e+02 6.000e+02 6.000e+02 6.000e+02 6.000e+02 6.000e+02 6.000e+02 6.000e+02 6.000e+02 6.000e+02 6.000e+02 6.000e+02 6.000e+02 6.000e+02 6.000e+02 6.000e+02 6.000e+02 6.000e+02 6.000e+02 6.000e+02 6.000e+02 6.000e+02 6.000e+02 6.000e+02 6.000e+02 6.000e+02 6.000e+02 6.000e+02 6.000e+02 6.000e+02 6.000e+02 6.000e+02 6.000e+02
           </DataArray>
           <DataArray type="Float32" Name="nitrate/optimalNutrientConcentration" NumberOfComponents="1" format="ascii">
 1.200e+03 1.200e+03 1.200e+03 1.200e+03 1.200e+03 1.200e+03 1.200e+03 1.200e+03 1.200e+03 1.200e+03 1.200e+03 1.200e+03 1.200e+03 1.200e+03 1.200e+03 1.200e+03 1.200e+03 1.200e+03 1.200e+03 1.200e+03 1.200e+03 1.200e+03 1.200e+03 1.200e+03 1.200e+03 1.200e+03 1.200e+03 1.200e+03 1.200e+03 1.200e+03 1.200e+03 1.200e+03 1.200e+03 1.200e+03 1.200e+03 1.200e+03 1.200e+03 1.200e+03 1.200e+03 1.200e+03 1.200e+03 1.200e+03 1.200e+03 1.200e+03 1.200e+03 1.200e+03 1.200e+03 1.200e+03 1.200e+03 1.200e+03 1.200e+03 1.200e+03 1.200e+03 1.200e+03 1.200e+03 1.200e+03 1.200e+03 1.200e+03 1.200e+03 1.200e+03 1.200e+03 1.200e+03 1.200e+03 1.200e+03 1.200e+03 1.200e+03 1.200e+03 1.200e+03 1.200e+03 1.200e+03 1.200e+03 1.200e+03 1.200e+03 1.200e+03 1.200e+03 1.200e+03 1.200e+03 1.200e+03 1.200e+03 1.200e+03 1.200e+03 1.200e+03 1.200e+03 1.200e+03 1.200e+03 1.200e+03 1.200e+03 1.200e+03 1.200e+03 1.200e+03 1.200e+03 1.200e+03 1.200e+03 1.200e+03 1.200e+03 1.200e+03 1.200e+03 1.200e+03 1.200e+03 1.200e+03 1.200e+03 1.200e+03 1.200e+03 1.200e+03 1.200e+03 1.200e+03 1.200e+03 1.200e+03 1.200e+03 1.200e+03 1.200e+03 1.200e+03 1.200e+03 1.200e+03 1.200e+03 1.200e+03 1.200e+03 1.200e+03 1.200e+03 1.200e+03 1.200e+03 1.200e+03 1.200e+03 1.200e+03 1.200e+03 1.200e+03 1.200e+03 1.200e+03 1.200e+03 1.200e+03 1.200e+03 1.200e+03 1.200e+03 1.200e+03 1.200e+03 1.200e+03 1.200e+03 1.200e+03 1.200e+03 1.200e+03 1.200e+03 1.200e+03 1.200e+03 1.200e+03 1.200e+03 1.200e+03 1.200e+03 1.200e+03 1.200e+03 1.200e+03 1.200e+03 1.200e+03 1.200e+03 1.200e+03 1.200e+03 1.200e+03 1.200e+03 1.200e+03 1.200e+03 1.200e+03 1.200e+03 1.200e+03 1.200e+03 1.200e+03 1.200e+03 1.200e+03 1.200e+03 1.200e+03 1.200e+03 1.200e+03 1.200e+03 1.200e+03 1.200e+03 1.200e+03 1.200e+03 1.200e+03 1.200e+03 1.200e+03 1.200e+03 1.200e+03 1.200e+03 1.200e+03 1.200e+03 1.200e+03 1.200e+03 1.200e+03 1.200e+03 1.200e+03 1.200e+03 1.200e+03 1.200e+03 1.200e+03 1.200e+03 1.200e+03 1.200e+03 1.200e+03 1.200e+03 1.200e+03 1.200e+03 1.200e+03 1.200e+03 1.200e+03 1.200e+03 1.200e+03 1.200e+03 1.200e+03 1.200e+03 1.200e+03 1.200e+03 1.200e+03 1.200e+03 1.200e+03 1.200e+03 1.200e+03 1.200e+03 1.200e+03 1.200e+03 1.200e+03 1.200e+03 1.200e+03 1.200e+03 1.200e+03 1.200e+03 1.200e+03 1.200e+03 1.200e+03 1.200e+03 1.200e+03 1.200e+03 1.200e+03 1.200e+03 1.200e+03 1.200e+03 1.200e+03 1.200e+03 1.200e+03 1.200e+03 1.200e+03 1.200e+03 1.200e+03 1.200e+03 1.200e+03 1.200e+03 1.200e+03 1.200e+03 1.200e+03 1.200e+03 1.200e+03 1.200e+03 1.200e+03 1.200e+03 1.200e+03 1.200e+03 1.200e+03 1.200e+03 1.200e+03 1.200e+03 1.200e+03 1.200e+03 1.200e+03 1.200e+03 1.200e+03 1.200e+03 1.200e+03 1.200e+03 1.200e+03 1.200e+03 1.200e+03 1.200e+03 1.200e+03 1.200e+03 1.200e+03 1.200e+03 1.200e+03 1.200e+03 1.200e+03 1.200e+03 1.200e+03 1.200e+03 1.200e+03 1.200e+03 1.200e+03 1.200e+03 1.200e+03 1.200e+03 1.200e+03 1.200e+03 1.200e+03 1.200e+03 1.200e+03 1.200e+03 1.200e+03 1.200e+03 1.200e+03 1.200e+03 1.200e+03 1.200e+03 1.200e+03 1.200e+03 1.200e+03 1.200e+03 1.200e+03 1.200e+03 1.200e+03 1.200e+03 1.200e+03 1.200e+03 1.200e+03 1.200e+03 1.200e+03 1.200e+03 1.200e+03 1.200e+03 1.200e+03 1.200e+03 1.200e+03 1.200e+03 1.200e+03 1.200e+03 1.200e+03 1.200e+03 1.200e+03 1.200e+03 1.200e+03 1.200e+03 1.200e+03 1.200e+03 1.200e+03 1.200e+03 1.200e+03 1.200e+03 1.200e+03 1.200e+03 1.200e+03 1.200e+03 1.200e+03 1.200e+03 1.200e+03 1.200e+03 1.200e+03 1.200e+03 1.200e+03 1.200e+03 1.200e+03 1.200e+03 1.200e+03 1.200e+03 1.200e+03 1.200e+03 1.200e+03 1.200e+03 1.200e+03 1.200e+03 1.200e+03 1.200e+03 1.200e+03 1.200e+03 1.200e+03 1.200e+03 1.200e+03 1.200e+03 1.200e+03 1.200e+03 1.200e+03 1.200e+03 1.200e+03 1.200e+03 1.200e+03 1.200e+03 1.200e+03 1.200e+03 1.200e+03 1.200e+03 1.200e+03 1.200e+03 1.200e+03 1.200e+03 1.200e+03 1.200e+03 1.200e+03 1.200e+03 1.200e+03 1.200e+03 1.200e+03 1.200e+03 1.200e+03 1.200e+03 1.200e+03 1.200e+03 1.200e+03 1.200e+03 1.200e+03 1.200e+03 1.200e+03 1.200e+03 1.200e+03 1.200e+03 1.200e+03 1.200e+03 1.200e+03 1.200e+03 1.200e+03 1.200e+03 1.200e+03 1.200e+03 1.200e+03 1.200e+03 1.200e+03 1.200e+03 1.200e+03 1.200e+03 1.200e+03 1.200e+03 1.200e+03 1.200e+03 1.200e+03 1.200e+03 1.200e+03 1.200e+03 1.200e+03 1.200e+03 1.200e+03 1.200e+03 1.200e+03 1.200e+03 1.200e+03 1.200e+03 1.200e+03 1.200e+03 1.200e+03 1.200e+03 1.200e+03 1.200e+03 1.200e+03 1.200e+03 1.200e+03 1.200e+03 1.200e+03 1.200e+03 1.200e+03 1.200e+03 1.200e+03 1.200e+03 1.200e+03 1.200e+03 1.200e+03 1.200e+03 1.200e+03 1.200e+03 1.200e+03 1.200e+03 1.200e+03 1.200e+03 1.200e+03 1.200e+03 1.200e+03 1.200e+03 1.200e+03 1.200e+03 1.200e+03 1.200e+03 1.200e+03 1.200e+03 1.200e+03 1.200e+03 1.200e+03 1.200e+03 1.200e+03 1.200e+03 1.200e+03 1.200e+03 1.200e+03 1.200e+03 1.200e+03 1.200e+03 1.200e+03 1.200e+03 1.200e+03 1.200e+03 1.200e+03 1.200e+03 1.200e+03 1.200e+03 1.200e+03 1.200e+03 1.200e+03 1.200e+03 1.200e+03 1.200e+03 1.200e+03 1.200e+03 1.200e+03 1.200e+03 1.200e+03 1.200e+03 1.200e+03 1.200e+03 1.200e+03 1.200e+03 1.200e+03 1.200e+03 1.200e+03 1.200e+03 1.200e+03 1.200e+03 1.200e+03 1.200e+03 1.200e+03 1.200e+03 1.200e+03 1.200e+03 1.200e+03 1.200e+03 1.200e+03 1.200e+03 1.200e+03 1.200e+03 1.200e+03 1.200e+03 1.200e+03 1.200e+03 1.200e+03 1.200e+03 1.200e+03 1.200e+03 1.200e+03 1.200e+03 1.200e+03 1.200e+03 1.200e+03 1.200e+03 1.200e+03 1.200e+03 1.200e+03 1.200e+03 1.200e+03 1.200e+03 1.200e+03 1.200e+03 1.200e+03 1.200e+03 1.200e+03 1.200e+03 1.200e+03 1.200e+03 1.200e+03 1.200e+03 1.200e+03 1.200e+03 1.200e+03 1.200e+03 1.200e+03 1.200e+03 1.200e+03 1.200e+03 1.200e+03 1.200e+03 1.200e+03 1.200e+03 1.200e+03 1.200e+03 1.200e+03 1.200e+03 1.200e+03 1.200e+03 1.200e+03 1.200e+03 1.200e+03 1.200e+03 1.200e+03 1.200e+03 1.200e+03 1.200e+03 1.200e+03 1.200e+03 1.200e+03 1.200e+03 1.200e+03 1.200e+03 1.200e+03 1.200e+03 1.200e+03 1.200e+03 1.200e+03
           </DataArray>
           <DataArray type="Float32" Name="nitrate/radiusDepletionZone" NumberOfComponents="1" format="ascii">