<?xml version="1.0"?>
<VTKFile type="UnstructuredGrid" version="0.1" byte_order="LittleEndian">
   <UnstructuredGrid>
      <Piece NumberOfPoints="210" NumberOfCells="19">
         <Points>
            <DataArray type="Float32" Name="Position" NumberOfComponents="3" format="ascii">
-0.143	-4.999	0.142
-0.033	-5.002	0.199
0.091	-5.004	0.180
0.179	-5.005	0.092
0.200	-5.004	-0.031
0.143	-5.001	-0.142
0.033	-4.998	-0.199
-0.091	-4.996	-0.180
-0.179	-4.995	-0.092
-0.200	-4.996	0.031
-0.126	-4.250	0.152
-0.016	-4.252	0.209
0.107	-4.253	0.189
0.195	-4.253	0.101
0.215	-4.252	-0.021
0.159	-4.251	-0.132
0.048	-4.249	-0.189
-0.075	-4.248	-0.170
-0.163	-4.248	-0.082
-0.183	-4.248	0.041
-0.124	-3.561	0.155
-0.014	-3.561	0.211
0.109	-3.561	0.191
0.197	-3.561	0.103
0.216	-3.560	-0.019
0.159	-3.560	-0.130
0.048	-3.559	-0.186
-0.074	-3.560	-0.167
-0.162	-3.560	-0.079
-0.181	-3.560	0.044
-0.125	-2.701	0.160
-0.014	-2.702	0.216
0.108	-2.701	0.196
0.196	-2.701	0.108
0.215	-2.700	-0.015
0.158	-2.699	-0.125
0.047	-2.699	-0.181
-0.075	-2.700	-0.161
-0.163	-2.700	-0.073
-0.182	-2.701	0.049
-0.126	-2.101	0.162
-0.015	-2.101	0.218
0.107	-2.101	0.199
0.195	-2.100	0.111
0.214	-2.100	-0.012
0.157	-2.100	-0.122
0.046	-2.100	-0.178
-0.076	-2.100	-0.158
-0.163	-2.101	-0.070
-0.182	-2.101	0.052
-0.129	-1.201	0.164
-0.018	-1.201	0.220
0.104	-1.201	0.200
0.192	-1.201	0.113
0.211	-1.201	-0.010
0.155	-1.200	-0.120
0.044	-1.200	-0.176
-0.078	-1.200	-0.157
-0.166	-1.200	-0.069
-0.185	-1.200	0.054
-0.124	-0.301	0.169
-0.013	-0.301	0.225
0.109	-0.301	0.205
0.196	-0.301	0.118
0.216	-0.301	-0.004
0.159	-0.300	-0.115
0.049	-0.300	-0.171
-0.073	-0.300	-0.151
-0.161	-0.300	-0.064
-0.180	-0.300	0.059
-0.123	0.560	0.170
-0.013	0.560	0.227
0.109	0.560	0.207
0.196	0.560	0.120
0.216	0.560	-0.002
0.160	0.559	-0.113
0.049	0.559	-0.169
-0.073	0.559	-0.149
-0.160	0.559	-0.062
-0.180	0.559	0.060
-0.125	1.440	0.166
-0.015	1.441	0.223
0.108	1.441	0.204
0.195	1.440	0.117
0.215	1.439	-0.005
0.159	1.439	-0.116
0.049	1.438	-0.172
-0.073	1.438	-0.153
-0.161	1.439	-0.066
-0.180	1.440	0.056
0.017	1.858	0.162
0.017	1.968	0.218
0.017	2.090	0.199
0.017	2.178	0.111
0.017	2.197	-0.011
0.017	2.141	-0.121
0.017	2.031	-0.177
0.017	1.909	-0.158
0.017	1.821	-0.070
0.017	1.802	0.052
0.032	-4.999	-0.033
0.045	-4.996	-0.008
0.041	-4.994	0.020
0.021	-4.994	0.041
-0.007	-4.997	0.046
-0.032	-5.001	0.033
-0.045	-5.004	0.008
-0.041	-5.006	-0.020
-0.021	-5.006	-0.041
0.007	-5.003	-0.046
0.105	-5.699	0.024
0.118	-5.694	0.049
0.114	-5.692	0.077
0.095	-5.694	0.097
0.067	-5.697	0.103
0.042	-5.703	0.091
0.029	-5.707	0.066
0.033	-5.709	0.038
0.052	-5.708	0.017
0.080	-5.704	0.012
0.249	-6.384	0.095
0.263	-6.378	0.119
0.260	-6.377	0.147
0.242	-6.380	0.168
0.215	-6.386	0.175
0.190	-6.393	0.164
0.176	-6.398	0.140
0.179	-6.400	0.112
0.197	-6.397	0.090
0.224	-6.391	0.084
0.443	-7.061	0.126
0.457	-7.055	0.150
0.455	-7.054	0.178
0.437	-7.058	0.200
0.411	-7.066	0.206
0.386	-7.073	0.196
0.372	-7.079	0.172
0.374	-7.080	0.144
0.392	-7.076	0.123
0.418	-7.068	0.116
0.644	-7.739	0.168
0.657	-7.734	0.192
0.655	-7.732	0.220
0.637	-7.735	0.241
0.610	-7.742	0.248
0.585	-7.749	0.237
0.571	-7.754	0.213
0.574	-7.755	0.185
0.592	-7.752	0.164
0.619	-7.746	0.158
0.787	-8.431	0.223
0.800	-8.427	0.248
0.797	-8.425	0.275
0.778	-8.427	0.296
0.751	-8.431	0.302
0.726	-8.437	0.290
0.713	-8.441	0.266
0.716	-8.443	0.238
0.735	-8.441	0.218
0.762	-8.437	0.212
0.906	-9.125	0.287
0.919	-9.121	0.311
0.916	-9.119	0.339
0.897	-9.121	0.359
0.870	-9.125	0.365
0.845	-9.130	0.353
0.832	-9.135	0.329
0.836	-9.137	0.301
0.854	-9.135	0.281
0.881	-9.131	0.275
1.038	-9.816	0.345
1.051	-9.811	0.369
1.048	-9.810	0.396
1.029	-9.812	0.417
1.003	-9.817	0.423
0.978	-9.823	0.412
0.964	-9.828	0.388
0.968	-9.830	0.360
0.986	-9.828	0.339
1.013	-9.822	0.334
1.198	-10.501	0.405
1.211	-10.496	0.429
1.208	-10.494	0.456
1.190	-10.497	0.477
1.163	-10.503	0.483
1.139	-10.510	0.472
1.125	-10.515	0.448
1.128	-10.517	0.421
1.147	-10.514	0.400
1.173	-10.508	0.394
1.373	-11.184	0.464
1.386	-11.178	0.488
1.383	-11.176	0.515
1.365	-11.178	0.536
1.338	-11.185	0.542
1.314	-11.192	0.531
1.301	-11.198	0.508
1.304	-11.200	0.480
1.322	-11.198	0.459
1.348	-11.191	0.453
1.555	-11.862	0.547
1.568	-11.856	0.571
1.565	-11.853	0.599
1.546	-11.856	0.619
1.520	-11.862	0.626
1.495	-11.870	0.615
1.482	-11.876	0.591
1.486	-11.879	0.563
1.504	-11.876	0.543
1.531	-11.870	0.537
		    </DataArray>
         </Points>
         <Cells>
            <DataArray type="Int32" Name="connectivity" NumberOfComponents="1" format="ascii">
 0 10 1 11 2 12 3 13 4 14 5 15 6 16 7 17 8 18 9 19 0 10
 10 20 11 21 12 22 13 23 14 24 15 25 16 26 17 27 18 28 19 29 10 20
 20 30 21 31 22 32 23 33 24 34 25 35 26 36 27 37 28 38 29 39 20 30
 30 40 31 41 32 42 33 43 34 44 35 45 36 46 37 47 38 48 39 49 30 40
 40 50 41 51 42 52 43 53 44 54 45 55 46 56 47 57 48 58 49 59 40 50
 50 60 51 61 52 62 53 63 54 64 55 65 56 66 57 67 58 68 59 69 50 60
 60 70 61 71 62 72 63 73 64 74 65 75 66 76 67 77 68 78 69 79 60 70
 70 80 71 81 72 82 73 83 74 84 75 85 76 86 77 87 78 88 79 89 70 80
 80 90 81 91 82 92 83 93 84 94 85 95 86 96 87 97 88 98 89 99 80 90
 100 110 101 111 102 112 103 113 104 114 105 115 106 116 107 117 108 118 109 119 100 110
 110 120 111 121 112 122 113 123 114 124 115 125 116 126 117 127 118 128 119 129 110 120
 120 130 121 131 122 132 123 133 124 134 125 135 126 136 127 137 128 138 129 139 120 130
 130 140 131 141 132 142 133 143 134 144 135 145 136 146 137 147 138 148 139 149 130 140
 140 150 141 151 142 152 143 153 144 154 145 155 146 156 147 157 148 158 149 159 140 150
 150 160 151 161 152 162 153 163 154 164 155 165 156 166 157 167 158 168 159 169 150 160
 160 170 161 171 162 172 163 173 164 174 165 175 166 176 167 177 168 178 169 179 160 170
 170 180 171 181 172 182 173 183 174 184 175 185 176 186 177 187 178 188 179 189 170 180
 180 190 181 191 182 192 183 193 184 194 185 195 186 196 187 197 188 198 189 199 180 190
 190 200 191 201 192 202 193 203 194 204 195 205 196 206 197 207 198 208 199 209 190 200

            </DataArray>
            <DataArray type="Int32" Name="offsets" NumberOfComponents="1" format="ascii">
 22 44 66 88 110 132 154 176 198 220 242 264 286 308 330 352 374 396 418
            </DataArray>
            <DataArray type="UInt8"  Name="types" NumberOfComponents="1" format="ascii">
6 6 6 6 6 6 6 6 6 6 6 6 6 6 6 6 6 6 6
            </DataArray>
         </Cells>
         <CellData>
           <DataArray type="Float32" Name="combinedRootClassID" NumberOfComponents="1" format="ascii">
 -2.000e+00 -2.000e+00 -2.000e+00 -2.000e+00 -2.000e+00 -2.000e+00 -2.000e+00 -2.000e+00 -2.000e+00 -4.000e+00 -4.000e+00 -4.000e+00 -4.000e+00 -4.000e+00 -4.000e+00 -4.000e+00 -4.000e+00 -4.000e+00 -4.000e+00
           </DataArray>
           <DataArray type="Float32" Name="nitrate/minimalNutrientConcentration" NumberOfComponents="1" format="ascii">
 6.000e+02 6.000e+02 6.000e+02 6.000e+02 6.000e+02 6.000e+02 6.000e+02 6.000e+02 6.000e+02 6.000e+02 6.000e+02 6.000e+02 6.000e+02 6.000e+02 6.000e+02 6.000e+02 6.000e+02 6.000e+02 6.000e+02
           </DataArray>
           <DataArray type="Float32" Name="nitrate/optimalNutrientConcentration" NumberOfComponents="1" format="ascii">
 1.200e+03 1.200e+03 1.200e+03 1.200e+03 1.200e+03 1.200e+03 1.200e+03 1.200e+03 1.200e+03 1.200e+03 1.200e+03 1.200e+03 1.200e+03 1.200e+03 1.200e+03 1.200e+03 1.200e+03 1.200e+03 1.200e+03
           </DataArray>
           <DataArray type="Float32" Name="nitrate/radiusDepletionZone" NumberOfComponents="1" format="ascii">
 1.879e+00 2.936e+00 6.076e+00 4.066e+00 3.440e+00 2.553e+00 1.946e+00 2.000e-01 2.000e-01 1.465e+00 1.401e+01 6.034e+00 4.022e+00 2.694e+00 1.897e+00 1.366e+00 9.860e-01 7.014e-01 3.367e-01
           </DataArray>
           <DataArray type="Float32" Name="nitrate/rootSegmentMinimalNutrientContent" NumberOfComponents="1" format="ascii">
 5.421e+00 4.957e+00 6.160e+00 4.286e+00 6.419e+00 6.406e+00 6.111e+00 6.246e+00 3.970e+00 2.666e-01 2.641e-01 2.619e-01 2.600e-01 2.583e-01 2.569e-01 2.557e-01 2.549e-01 2.542e-01 2.538e-01
           </DataArray>
           <DataArray type="Float32" Name="nitrate/rootSegmentNutrientUptake" NumberOfComponents="1" format="ascii">
 1.729e+00 1.057e+00 1.647e+00 1.122e+00 1.493e+00 1.293e+00 9.756e-01 0.000e+00 0.000e+00 1.017e+00 7.701e-01 8.380e-01 7.279e-01 6.141e-01 4.988e-01 3.846e-01 2.727e-01 1.605e-01 4.815e-02
           </DataArray>
           <DataArray type="Float32" Name="nitrate/rootSegmentOptimalNutrientContent" NumberOfComponents="1" format="ascii">
 1.084e+01 9.915e+00 1.232e+01 8.572e+00 1.284e+01 1.281e+01 1.222e+01 1.249e+01 7.941e+00 5.331e-01 5.282e-01 5.238e-01 5.199e-01 5.166e-01 5.138e-01 5.115e-01 5.097e-01 5.084e-01 5.077e-01
           </DataArray>
           <DataArray type="Float32" Name="parentRootClassID" NumberOfComponents="1" format="ascii">
 -3.000e+00 -3.000e+00 -3.000e+00 -3.000e+00 -3.000e+00 -3.000e+00 -3.000e+00 -3.000e+00 -3.000e+00 -3.000e+00 -3.000e+00 -3.000e+00 -3.000e+00 -3.000e+00 -3.000e+00 -3.000e+00 -3.000e+00 -3.000e+00 -3.000e+00
           </DataArray>
           <DataArray type="Float32" Name="plantID" NumberOfComponents="1" format="ascii">
 4.000e+00 4.000e+00 4.000e+00 4.000e+00 4.000e+00 4.000e+00 4.000e+00 4.000e+00 4.000e+00 4.000e+00 4.000e+00 4.000e+00 4.000e+00 4.000e+00 4.000e+00 4.000e+00 4.000e+00 4.000e+00 4.000e+00
           </DataArray>
           <DataArray type="Float32" Name="plantTypeID" NumberOfComponents="1" format="ascii">
 0.000e+00 0.000e+00 0.000e+00 0.000e+00 0.000e+00 0.000e+00 0.000e+00 0.000e+00 0.000e+00 0.000e+00 0.000e+00 0.000e+00 0.000e+00 0.000e+00 0.000e+00 0.000e+00 0.000e+00 0.000e+00 0.000e+00
           </DataArray>
           <DataArray type="Float32" Name="rootCircumference" NumberOfComponents="1" format="ascii">
 1.269e+00 1.265e+00 1.263e+00 1.262e+00 1.261e+00 1.259e+00 1.258e+00 1.258e+00 1.257e+00 2.898e-01 2.885e-01 2.873e-01 2.862e-01 2.853e-01 2.845e-01 2.839e-01 2.834e-01 2.830e-01 2.828e-01
           </DataArray>
           <DataArray type="Float32" Name="rootClassID" NumberOfComponents="1" format="ascii">
 -2.000e+00 -2.000e+00 -2.000e+00 -2.000e+00 -2.000e+00 -2.000e+00 -2.000e+00 -2.000e+00 -2.000e+00 -4.000e+00 -4.000e+00 -4.000e+00 -4.000e+00 -4.000e+00 -4.000e+00 -4.000e+00 -4.000e+00 -4.000e+00 -4.000e+00
           </DataArray>
           <DataArray type="Float32" Name="rootDiameter" NumberOfComponents="1" format="ascii">
 4.039e-01 4.027e-01 4.021e-01 4.016e-01 4.013e-01 4.009e-01 4.005e-01 4.003e-01 4.001e-01 9.225e-02 9.182e-02 9.144e-02 9.110e-02 9.081e-02 9.056e-02 9.036e-02 9.020e-02 9.009e-02 9.002e-02
           </DataArray>
           <DataArray type="Float32" Name="rootHairDensity" NumberOfComponents="1" format="ascii">
 0.000e+00 0.000e+00 0.000e+00 0.000e+00 0.000e+00 0.000e+00 0.000e+00 0.000e+00 0.000e+00 2.000e+03 2.000e+03 2.000e+03 2.000e+03 2.000e+03 2.000e+03 2.000e+03 2.000e+03 2.000e+03 2.000e+03
           </DataArray>
           <DataArray type="Float32" Name="rootHairDiameter" NumberOfComponents="1" format="ascii">
 5.000e-04 5.000e-04 5.000e-04 5.000e-04 5.000e-04 5.000e-04 5.000e-04 5.000e-04 5.000e-04 5.000e-04 5.000e-04 5.000e-04 5.000e-04 5.000e-04 5.000e-04 5.000e-04 5.000e-04 5.000e-04 5.000e-04
           </DataArray>
           <DataArray type="Float32" Name="rootHairLength" NumberOfComponents="1" format="ascii">
 3.000e-02 3.000e-02 3.000e-02 2.700e-02 2.100e-02 1.200e-02 3.000e-03 0.000e+00 0.000e+00 3.000e-02 3.000e-02 3.000e-02 3.000e-02 2.400e-02 1.500e-02 6.000e-03 0.000e+00 0.000e+00 0.000e+00
           </DataArray>
           <DataArray type="Float32" Name="rootHairSurfaceArea" NumberOfComponents="1" format="ascii">
 0.000e+00 0.000e+00 0.000e+00 0.000e+00 0.000e+00 0.000e+00 0.000e+00 0.000e+00 0.000e+00 9.425e-02 9.425e-02 9.425e-02 9.425e-02 7.540e-02 4.712e-02 1.885e-02 0.000e+00 0.000e+00 0.000e+00
           </DataArray>
           <DataArray type="Float32" Name="rootLength2Base" NumberOfComponents="1" format="ascii">
 0.000e+00 7.500e-01 1.440e+00 2.300e+00 2.900e+00 3.800e+00 4.700e+00 5.560e+00 6.440e+00 0.000e+00 7.071e-01 1.414e+00 2.121e+00 2.828e+00 3.535e+00 4.243e+00 4.950e+00 5.657e+00 6.364e+00
           </DataArray>
           <DataArray type="Float32" Name="rootPotentialSecondaryGrowth" NumberOfComponents="1" format="ascii">
 4.039e-01 4.027e-01 4.021e-01 4.016e-01 4.013e-01 4.009e-01 4.005e-01 4.003e-01 4.001e-01 9.225e-02 9.182e-02 9.144e-02 9.110e-02 9.081e-02 9.056e-02 9.036e-02 9.020e-02 9.009e-02 9.002e-02
           </DataArray>
           <DataArray type="Float32" Name="rootSegmentAge" NumberOfComponents="1" format="ascii">
 3.000e+00 2.500e+00 2.200e+00 1.900e+00 1.700e+00 1.400e+00 1.100e+00 8.000e-01 4.000e-01 3.000e+00 2.700e+00 2.400e+00 2.100e+00 1.800e+00 1.500e+00 1.200e+00 9.000e-01 6.000e-01 3.000e-01
           </DataArray>
           <DataArray type="Float32" Name="rootSegmentCarbonCostOfExudates" NumberOfComponents="1" format="ascii">
 0.000e+00 0.000e+00 0.000e+00 0.000e+00 0.000e+00 0.000e+00 0.000e+00 0.000e+00 0.000e+00 3.343e-05 2.983e-05 2.646e-05 2.304e-05 1.987e-05 1.652e-05 1.317e-05 9.537e-06 5.904e-06 1.984e-06
           </DataArray>
           <DataArray type="Float32" Name="rootSegmentDryWeight" NumberOfComponents="1" format="ascii">
 9.035e-03 8.262e-03 1.027e-02 7.144e-03 1.070e-02 1.068e-02 1.019e-02 1.041e-02 6.617e-03 4.443e-04 4.401e-04 4.365e-04 4.333e-04 4.305e-04 4.281e-04 4.262e-04 4.248e-04 4.237e-04 4.231e-04
           </DataArray>
           <DataArray type="Float32" Name="rootSegmentLength" NumberOfComponents="1" format="ascii">
 7.500e-01 6.900e-01 8.600e-01 6.000e-01 9.000e-01 9.000e-01 8.600e-01 8.800e-01 5.600e-01 7.071e-01 7.071e-01 7.071e-01 7.071e-01 7.071e-01 7.071e-01 7.071e-01 7.071e-01 7.071e-01 7.071e-01
           </DataArray>
           <DataArray type="Float32" Name="rootSegmentLengthDuration" NumberOfComponents="1" format="ascii">
 2.045e+00 1.621e+00 1.765e+00 1.080e+00 1.400e+00 1.130e+00 8.247e-01 5.387e-01 1.227e-01 2.019e+00 1.807e+00 1.595e+00 1.383e+00 1.171e+00 9.585e-01 7.464e-01 5.343e-01 3.221e-01 1.139e-01
           </DataArray>
           <DataArray type="Float32" Name="rootSegmentRespiration" NumberOfComponents="1" format="ascii">
 3.614e-04 3.305e-04 4.107e-04 3.036e-04 5.082e-04 5.872e-04 6.366e-04 7.287e-04 5.294e-04 1.777e-05 1.761e-05 1.746e-05 1.733e-05 1.937e-05 2.248e-05 2.557e-05 2.867e-05 3.178e-05 3.490e-05
           </DataArray>
           <DataArray type="Float32" Name="rootSegmentSecondaryPotentialCarbonSinkForGrowth" NumberOfComponents="1" format="ascii">
 6.642e-05 4.452e-05 4.221e-05 2.267e-05 2.526e-05 1.645e-05 9.113e-06 3.846e-06 3.721e-07 8.705e-06 6.954e-06 5.404e-06 4.053e-06 2.900e-06 1.941e-06 1.176e-06 6.033e-07 2.221e-07 3.172e-08
           </DataArray>
           <DataArray type="Float32" Name="rootSegmentSurfaceArea" NumberOfComponents="1" format="ascii">
 9.518e-01 8.730e-01 1.086e+00 7.570e-01 1.135e+00 1.133e+00 1.082e+00 1.107e+00 7.038e-01 2.049e-01 2.040e-01 2.031e-01 2.024e-01 2.017e-01 2.012e-01 2.007e-01 2.004e-01 2.001e-01 2.000e-01
           </DataArray>
           <DataArray type="Float32" Name="rootSegmentVolume" NumberOfComponents="1" format="ascii">
 9.611e-02 8.790e-02 1.092e-01 7.599e-02 1.138e-01 1.136e-01 1.084e-01 1.107e-01 7.040e-02 4.726e-03 4.682e-03 4.643e-03 4.609e-03 4.580e-03 4.555e-03 4.534e-03 4.519e-03 4.507e-03 4.501e-03
           </DataArray>
           <DataArray type="Float32" Name="rootSegmentWaterUptake" NumberOfComponents="1" format="ascii">
 4.431e-03 4.077e-03 5.081e-03 3.545e-03 5.317e-03 5.317e-03 5.065e-03 0.000e+00 0.000e+00 4.178e-03 4.178e-03 4.178e-03 4.178e-03 4.178e-03 4.178e-03 4.178e-03 4.047e-03 3.351e-03 1.437e-03
           </DataArray>
           <DataArray type="Float32" Name="spatialRootDensity" NumberOfComponents="1" format="ascii">
 3.376e-01 1.688e-01 0.000e+00 0.000e+00 0.000e+00 0.000e+00 0.000e+00 0.000e+00 0.000e+00 3.438e-01 1.790e-01 0.000e+00 0.000e+00 0.000e+00 0.000e+00 0.000e+00 0.000e+00 0.000e+00 0.000e+00
           </DataArray>
           <DataArray type="Float32" Name="volumetricWaterContentAtTheRootSurface" NumberOfComponents="1" format="ascii">
 2.221e-01 2.220e-01 2.219e-01 2.219e-01 2.218e-01 2.217e-01 2.217e-01 0.000e+00 0.000e+00 2.221e-01 2.221e-01 2.222e-01 2.223e-01 2.223e-01 2.224e-01 2.224e-01 2.225e-01 2.226e-01 2.226e-01
           </DataArray>
         </CellData>
      </Piece>
   </UnstructuredGrid>
</VTKFile>
