<?xml version="1.0"?>
<VTKFile type="UnstructuredGrid" version="0.1" byte_order="LittleEndian">
   <UnstructuredGrid>
      <Piece NumberOfPoints="90" NumberOfCells="7">
         <Points>
            <DataArray type="Float32" Name="Position" NumberOfComponents="3" format="ascii">
-0.142	-4.999	0.141
-0.032	-5.000	0.198
0.090	-5.000	0.179
0.178	-5.001	0.091
0.198	-5.001	-0.031
0.142	-5.001	-0.141
0.032	-5.000	-0.198
-0.090	-5.000	-0.179
-0.178	-4.999	-0.091
-0.198	-4.999	0.031
-0.138	-4.039	0.139
-0.028	-4.039	0.196
0.094	-4.040	0.177
0.182	-4.040	0.090
0.201	-4.041	-0.032
0.146	-4.041	-0.143
0.036	-4.041	-0.199
-0.087	-4.040	-0.180
-0.174	-4.040	-0.093
-0.194	-4.039	0.029
-0.137	-3.559	0.138
-0.027	-3.560	0.194
0.095	-3.560	0.175
0.183	-3.560	0.088
0.203	-3.561	-0.034
0.147	-3.561	-0.144
0.037	-3.561	-0.201
-0.085	-3.560	-0.182
-0.173	-3.560	-0.094
-0.193	-3.560	0.028
-0.136	-3.000	0.138
-0.026	-3.000	0.194
0.097	-3.000	0.175
0.184	-3.000	0.087
0.203	-3.000	-0.035
0.147	-3.000	-0.145
0.037	-3.000	-0.201
-0.085	-3.000	-0.182
-0.172	-3.000	-0.095
-0.192	-3.000	0.028
0.033	-5.001	-0.031
0.045	-5.002	-0.006
0.040	-5.001	0.021
0.020	-5.000	0.041
-0.008	-4.999	0.044
-0.033	-4.999	0.031
-0.045	-4.998	0.006
-0.040	-4.999	-0.021
-0.020	-5.000	-0.041
0.008	-5.001	-0.044
-0.001	-5.942	-0.024
0.011	-5.943	0.001
0.006	-5.942	0.029
-0.014	-5.942	0.048
-0.041	-5.941	0.052
-0.066	-5.940	0.039
-0.078	-5.940	0.014
-0.073	-5.940	-0.014
-0.053	-5.940	-0.033
-0.026	-5.941	-0.037
-0.016	-6.414	-0.025
-0.004	-6.414	0.000
-0.009	-6.413	0.028
-0.029	-6.412	0.047
-0.056	-6.411	0.051
-0.081	-6.411	0.037
-0.093	-6.411	0.012
-0.088	-6.411	-0.015
-0.068	-6.412	-0.034
-0.040	-6.413	-0.038
-0.033	-6.885	-0.012
-0.021	-6.885	0.014
-0.027	-6.884	0.041
-0.047	-6.883	0.060
-0.074	-6.882	0.063
-0.099	-6.881	0.050
-0.111	-6.881	0.025
-0.105	-6.882	-0.003
-0.085	-6.883	-0.022
-0.057	-6.885	-0.025
-0.053	-7.356	0.000
-0.041	-7.356	0.026
-0.047	-7.355	0.053
-0.067	-7.354	0.072
-0.094	-7.352	0.075
-0.119	-7.352	0.062
-0.131	-7.352	0.037
-0.125	-7.353	0.009
-0.105	-7.354	-0.010
-0.077	-7.355	-0.013
		    </DataArray>
         </Points>
         <Cells>
            <DataArray type="Int32" Name="connectivity" NumberOfComponents="1" format="ascii">
 0 10 1 11 2 12 3 13 4 14 5 15 6 16 7 17 8 18 9 19 0 10
 10 20 11 21 12 22 13 23 14 24 15 25 16 26 17 27 18 28 19 29 10 20
 20 30 21 31 22 32 23 33 24 34 25 35 26 36 27 37 28 38 29 39 20 30
 40 50 41 51 42 52 43 53 44 54 45 55 46 56 47 57 48 58 49 59 40 50
 50 60 51 61 52 62 53 63 54 64 55 65 56 66 57 67 58 68 59 69 50 60
 60 70 61 71 62 72 63 73 64 74 65 75 66 76 67 77 68 78 69 79 60 70
 70 80 71 81 72 82 73 83 74 84 75 85 76 86 77 87 78 88 79 89 70 80

            </DataArray>
            <DataArray type="Int32" Name="offsets" NumberOfComponents="1" format="ascii">
 22 44 66 88 110 132 154
            </DataArray>
            <DataArray type="UInt8"  Name="types" NumberOfComponents="1" format="ascii">
6 6 6 6 6 6 6
            </DataArray>
         </Cells>
         <CellData>
           <DataArray type="Float32" Name="combinedRootClassID" NumberOfComponents="1" format="ascii">
 -2.000e+00 -2.000e+00 -2.000e+00 -4.000e+00 -4.000e+00 -4.000e+00 -4.000e+00
           </DataArray>
           <DataArray type="Float32" Name="nitrate/minimalNutrientConcentration" NumberOfComponents="1" format="ascii">
 6.000e+02 6.000e+02 6.000e+02 6.000e+02 6.000e+02 6.000e+02 6.000e+02
           </DataArray>
           <DataArray type="Float32" Name="nitrate/optimalNutrientConcentration" NumberOfComponents="1" format="ascii">
 1.200e+03 1.200e+03 1.200e+03 1.200e+03 1.200e+03 1.200e+03 1.200e+03
           </DataArray>
           <DataArray type="Float32" Name="nitrate/radiusDepletionZone" NumberOfComponents="1" format="ascii">
 1.103e+00 4.359e-01 7.339e-01 8.193e-01 1.631e+00 7.202e-01 3.788e-01
           </DataArray>
           <DataArray type="Float32" Name="nitrate/rootSegmentMinimalNutrientContent" NumberOfComponents="1" format="ascii">
 6.819e+00 3.403e+00 3.969e+00 3.402e-01 1.695e-01 1.693e-01 1.692e-01
           </DataArray>
           <DataArray type="Float32" Name="nitrate/rootSegmentNutrientUptake" NumberOfComponents="1" format="ascii">
 6.550e-01 2.371e-01 8.375e-02 3.793e-01 1.157e-01 6.929e-02 1.985e-02
           </DataArray>
           <DataArray type="Float32" Name="nitrate/rootSegmentOptimalNutrientContent" NumberOfComponents="1" format="ascii">
 1.364e+01 6.806e+00 7.939e+00 6.803e-01 3.390e-01 3.386e-01 3.384e-01
           </DataArray>
           <DataArray type="Float32" Name="parentRootClassID" NumberOfComponents="1" format="ascii">
 -3.000e+00 -3.000e+00 -3.000e+00 -3.000e+00 -3.000e+00 -3.000e+00 -3.000e+00
           </DataArray>
           <DataArray type="Float32" Name="plantID" NumberOfComponents="1" format="ascii">
 2.000e+00 2.000e+00 2.000e+00 2.000e+00 2.000e+00 2.000e+00 2.000e+00
           </DataArray>
           <DataArray type="Float32" Name="plantTypeID" NumberOfComponents="1" format="ascii">
 0.000e+00 0.000e+00 0.000e+00 0.000e+00 0.000e+00 0.000e+00 0.000e+00
           </DataArray>
           <DataArray type="Float32" Name="rootCircumference" NumberOfComponents="1" format="ascii">
 1.258e+00 1.257e+00 1.257e+00 2.835e-01 2.830e-01 2.829e-01 2.828e-01
           </DataArray>
           <DataArray type="Float32" Name="rootClassID" NumberOfComponents="1" format="ascii">
 -2.000e+00 -2.000e+00 -2.000e+00 -4.000e+00 -4.000e+00 -4.000e+00 -4.000e+00
           </DataArray>
           <DataArray type="Float32" Name="rootDiameter" NumberOfComponents="1" format="ascii">
 4.004e-01 4.001e-01 4.000e-01 9.025e-02 9.009e-02 9.004e-02 9.001e-02
           </DataArray>
           <DataArray type="Float32" Name="rootLength2Base" NumberOfComponents="1" format="ascii">
 0.000e+00 9.600e-01 1.440e+00 0.000e+00 9.428e-01 1.414e+00 1.886e+00
           </DataArray>
           <DataArray type="Float32" Name="rootPotentialSecondaryGrowth" NumberOfComponents="1" format="ascii">
 4.004e-01 4.001e-01 4.000e-01 9.025e-02 9.009e-02 9.004e-02 9.001e-02
           </DataArray>
           <DataArray type="Float32" Name="rootSegmentAge" NumberOfComponents="1" format="ascii">
 1.000e+00 4.000e-01 2.000e-01 1.000e+00 6.000e-01 4.000e-01 2.000e-01
           </DataArray>
           <DataArray type="Float32" Name="rootSegmentDryWeight" NumberOfComponents="1" format="ascii">
 1.136e-02 5.672e-03 6.616e-03 5.669e-04 2.825e-04 2.821e-04 2.820e-04
           </DataArray>
           <DataArray type="Float32" Name="rootSegmentLength" NumberOfComponents="1" format="ascii">
 9.600e-01 4.800e-01 5.600e-01 9.428e-01 4.714e-01 4.714e-01 4.714e-01
           </DataArray>
           <DataArray type="Float32" Name="rootSegmentLengthDuration" NumberOfComponents="1" format="ascii">
 6.387e-01 1.440e-01 5.600e-02 7.542e-01 2.357e-01 1.414e-01 4.714e-02
           </DataArray>
           <DataArray type="Float32" Name="rootSegmentSurfaceArea" NumberOfComponents="1" format="ascii">
 1.208e+00 6.033e-01 7.037e-01 2.673e-01 1.334e-01 1.333e-01 1.333e-01
           </DataArray>
           <DataArray type="Float32" Name="rootSegmentVolume" NumberOfComponents="1" format="ascii">
 1.209e-01 6.034e-02 7.038e-02 6.031e-03 3.005e-03 3.002e-03 3.000e-03
           </DataArray>
           <DataArray type="Float32" Name="spatialRootDensity" NumberOfComponents="1" format="ascii">
 3.376e-01 2.251e-01 0.000e+00 3.438e-01 2.292e-01 0.000e+00 0.000e+00
           </DataArray>
         </CellData>
      </Piece>
   </UnstructuredGrid>
</VTKFile>
