<?xml version="1.0"?>
<VTKFile type="UnstructuredGrid" version="0.1" byte_order="LittleEndian">
   <UnstructuredGrid>
      <Piece NumberOfPoints="820" NumberOfCells="58">
         <Points>
            <DataArray type="Float32" Name="Position" NumberOfComponents="3" format="ascii">
0.019	-4.981	-0.027
0.017	-4.964	-0.014
0.009	-4.957	0.004
-0.002	-4.963	0.021
-0.012	-4.979	0.030
-0.018	-4.999	0.028
-0.016	-5.016	0.015
-0.008	-5.023	-0.003
0.003	-5.017	-0.020
0.013	-5.001	-0.029
0.468	-5.124	0.223
0.466	-5.107	0.236
0.458	-5.100	0.254
0.447	-5.106	0.271
0.437	-5.122	0.280
0.431	-5.142	0.278
0.433	-5.159	0.265
0.441	-5.166	0.247
0.452	-5.160	0.230
0.462	-5.144	0.221
-0.013	-4.962	-0.014
0.005	-4.957	-0.005
0.022	-4.964	0.006
0.030	-4.981	0.015
0.027	-5.002	0.018
0.014	-5.018	0.014
-0.004	-5.023	0.005
-0.021	-5.016	-0.005
-0.029	-4.999	-0.014
-0.026	-4.978	-0.017
0.239	-5.067	-0.471
0.258	-5.062	-0.462
0.274	-5.069	-0.451
0.283	-5.086	-0.442
0.280	-5.106	-0.439
0.267	-5.123	-0.443
0.249	-5.128	-0.452
0.232	-5.121	-0.462
0.224	-5.104	-0.471
0.226	-5.083	-0.474
-0.010	-5.007	0.028
-0.015	-4.987	0.030
-0.015	-4.968	0.021
-0.008	-4.957	0.004
0.002	-4.959	-0.014
0.011	-4.973	-0.027
0.016	-4.993	-0.030
0.016	-5.012	-0.021
0.009	-5.023	-0.004
-0.000	-5.021	0.015
-0.477	-5.104	-0.210
-0.482	-5.084	-0.207
-0.482	-5.065	-0.216
-0.475	-5.055	-0.233
-0.465	-5.057	-0.252
-0.456	-5.070	-0.265
-0.450	-5.090	-0.267
-0.451	-5.109	-0.258
-0.458	-5.120	-0.241
-0.467	-5.118	-0.223
0.022	-5.016	0.005
0.031	-4.999	0.013
0.028	-4.978	0.016
0.015	-4.962	0.013
-0.004	-4.957	0.006
-0.021	-4.964	-0.004
-0.030	-4.981	-0.013
-0.027	-5.002	-0.016
-0.014	-5.018	-0.013
0.005	-5.023	-0.005
-0.209	-5.120	0.474
-0.200	-5.103	0.482
-0.203	-5.082	0.485
-0.216	-5.066	0.482
-0.235	-5.060	0.474
-0.252	-5.068	0.464
-0.260	-5.085	0.456
-0.258	-5.105	0.453
-0.245	-5.122	0.456
-0.226	-5.127	0.464
-0.146	-4.999	0.145
-0.033	-5.000	0.203
0.093	-5.000	0.184
0.183	-5.001	0.094
0.204	-5.001	-0.032
0.146	-5.001	-0.145
0.033	-5.000	-0.203
-0.093	-5.000	-0.184
-0.183	-4.999	-0.094
-0.204	-4.999	0.032
-0.141	-4.039	0.142
-0.029	-4.039	0.200
0.096	-4.040	0.181
0.185	-4.040	0.092
0.206	-4.041	-0.033
0.149	-4.041	-0.146
0.036	-4.041	-0.203
-0.089	-4.040	-0.184
-0.178	-4.040	-0.095
-0.198	-4.039	0.030
-0.139	-3.559	0.141
-0.027	-3.560	0.198
0.097	-3.560	0.179
0.186	-3.560	0.090
0.206	-3.561	-0.035
0.149	-3.561	-0.147
0.037	-3.561	-0.205
-0.087	-3.560	-0.185
-0.176	-3.560	-0.096
-0.196	-3.560	0.028
-0.138	-3.000	0.140
-0.026	-3.000	0.197
0.098	-3.000	0.178
0.187	-3.000	0.089
0.207	-3.000	-0.035
0.150	-3.000	-0.147
0.038	-3.000	-0.205
-0.087	-3.000	-0.185
-0.175	-3.000	-0.096
-0.195	-3.000	0.028
-0.138	-2.401	0.142
-0.026	-2.401	0.199
0.098	-2.401	0.179
0.187	-2.400	0.090
0.206	-2.400	-0.034
0.149	-2.400	-0.146
0.037	-2.399	-0.203
-0.087	-2.400	-0.183
-0.176	-2.400	-0.094
-0.195	-2.400	0.030
-0.138	-1.801	0.144
-0.026	-1.801	0.201
0.098	-1.801	0.181
0.186	-1.801	0.092
0.206	-1.800	-0.032
0.148	-1.800	-0.144
0.037	-1.799	-0.200
-0.087	-1.799	-0.180
-0.176	-1.800	-0.092
-0.195	-1.800	0.032
-0.137	-1.201	0.147
-0.025	-1.201	0.204
0.099	-1.201	0.184
0.187	-1.200	0.095
0.206	-1.200	-0.029
0.149	-1.199	-0.140
0.037	-1.199	-0.197
-0.086	-1.199	-0.177
-0.175	-1.200	-0.088
-0.194	-1.201	0.036
-0.139	-0.601	0.149
-0.027	-0.601	0.205
0.096	-0.600	0.185
0.184	-0.600	0.097
0.203	-0.599	-0.027
0.146	-0.599	-0.138
0.035	-0.600	-0.194
-0.089	-0.600	-0.175
-0.177	-0.601	-0.086
-0.196	-0.601	0.038
-0.141	-0.001	0.148
-0.030	-0.000	0.205
0.094	-0.000	0.185
0.182	0.000	0.097
0.201	0.000	-0.026
0.144	0.000	-0.138
0.033	0.000	-0.194
-0.090	-0.000	-0.174
-0.178	-0.000	-0.086
-0.198	-0.001	0.037
-0.141	0.559	0.149
-0.030	0.560	0.206
0.093	0.560	0.186
0.181	0.561	0.097
0.200	0.561	-0.026
0.143	0.560	-0.137
0.032	0.560	-0.193
-0.091	0.560	-0.173
-0.179	0.559	-0.085
-0.198	0.559	0.038
-0.145	1.039	0.148
-0.033	1.040	0.205
0.089	1.040	0.185
0.177	1.041	0.097
0.197	1.041	-0.026
0.140	1.041	-0.137
0.029	1.040	-0.193
-0.094	1.039	-0.174
-0.182	1.039	-0.085
-0.201	1.039	0.038
-0.147	1.760	0.148
-0.036	1.760	0.204
0.087	1.760	0.185
0.175	1.760	0.097
0.194	1.760	-0.026
0.138	1.760	-0.136
0.027	1.760	-0.193
-0.096	1.759	-0.173
-0.184	1.759	-0.085
-0.203	1.759	0.037
-0.147	2.576	0.144
-0.037	2.577	0.200
0.085	2.577	0.181
0.172	2.577	0.094
0.192	2.576	-0.028
0.136	2.576	-0.139
0.026	2.575	-0.195
-0.096	2.575	-0.176
-0.184	2.575	-0.088
-0.203	2.576	0.034
0.015	-5.111	-0.001
0.019	-5.103	0.003
0.017	-5.094	0.005
0.011	-5.088	0.005
0.002	-5.086	0.002
-0.006	-5.089	-0.002
-0.009	-5.097	-0.006
-0.007	-5.105	-0.009
-0.001	-5.112	-0.009
0.008	-5.114	-0.006
-0.171	-5.272	0.454
-0.167	-5.264	0.458
-0.169	-5.255	0.460
-0.176	-5.249	0.460
-0.184	-5.247	0.457
-0.192	-5.250	0.453
-0.195	-5.257	0.449
-0.193	-5.266	0.447
-0.187	-5.273	0.447
-0.178	-5.275	0.450
-0.009	-5.194	-0.001
-0.005	-5.187	-0.006
0.002	-5.185	-0.011
0.009	-5.189	-0.015
0.014	-5.196	-0.016
0.015	-5.205	-0.014
0.011	-5.212	-0.009
0.004	-5.214	-0.003
-0.004	-5.210	0.001
-0.009	-5.203	0.002
-0.277	-5.322	-0.394
-0.273	-5.315	-0.399
-0.266	-5.313	-0.405
-0.258	-5.317	-0.409
-0.253	-5.324	-0.410
-0.252	-5.333	-0.407
-0.256	-5.340	-0.402
-0.264	-5.342	-0.397
-0.271	-5.338	-0.393
-0.276	-5.331	-0.392
-0.033	-6.110	0.013
-0.033	-6.104	0.020
-0.036	-6.095	0.021
-0.039	-6.087	0.017
-0.043	-6.084	0.009
-0.044	-6.086	0.001
-0.044	-6.093	-0.006
-0.041	-6.101	-0.007
-0.038	-6.109	-0.003
-0.034	-6.112	0.005
-0.246	-6.181	0.070
-0.247	-6.174	0.077
-0.249	-6.166	0.078
-0.253	-6.158	0.074
-0.256	-6.155	0.066
-0.258	-6.157	0.057
-0.257	-6.163	0.051
-0.255	-6.172	0.049
-0.251	-6.180	0.053
-0.248	-6.183	0.061
-0.033	-6.194	-0.005
-0.035	-6.187	-0.000
-0.040	-6.183	0.007
-0.045	-6.186	0.015
-0.049	-6.193	0.019
-0.050	-6.202	0.019
-0.048	-6.210	0.014
-0.044	-6.213	0.007
-0.039	-6.211	-0.001
-0.035	-6.204	-0.005
0.074	-6.217	0.098
0.082	-6.217	0.102
0.092	-6.217	0.101
0.098	-6.217	0.094
0.100	-6.217	0.085
0.095	-6.217	0.077
0.087	-6.217	0.073
0.078	-6.217	0.074
0.071	-6.217	0.081
0.070	-6.217	0.090
-0.048	-6.286	-0.002
-0.041	-6.284	0.004
-0.036	-6.287	0.011
-0.034	-6.294	0.016
-0.036	-6.303	0.018
-0.042	-6.310	0.015
-0.048	-6.312	0.009
-0.054	-6.309	0.002
-0.056	-6.302	-0.003
-0.053	-6.293	-0.005
0.050	-6.343	-0.083
0.059	-6.343	-0.078
0.068	-6.343	-0.080
0.074	-6.343	-0.086
0.076	-6.343	-0.096
0.072	-6.343	-0.104
0.063	-6.343	-0.108
0.054	-6.343	-0.107
0.048	-6.343	-0.100
0.046	-6.343	-0.091
-0.043	-6.410	0.014
-0.043	-6.403	0.020
-0.045	-6.394	0.021
-0.048	-6.386	0.016
-0.051	-6.383	0.008
-0.053	-6.386	-0.001
-0.053	-6.393	-0.007
-0.051	-6.402	-0.008
-0.048	-6.410	-0.003
-0.045	-6.413	0.005
-0.164	-6.435	0.049
-0.164	-6.428	0.054
-0.165	-6.419	0.055
-0.168	-6.411	0.051
-0.171	-6.408	0.042
-0.173	-6.411	0.034
-0.173	-6.418	0.028
-0.172	-6.427	0.027
-0.169	-6.434	0.032
-0.166	-6.437	0.040
-0.040	-6.501	-0.000
-0.039	-6.492	0.003
-0.043	-6.486	0.009
-0.050	-6.484	0.014
-0.058	-6.488	0.017
-0.063	-6.495	0.018
-0.064	-6.504	0.014
-0.060	-6.510	0.009
-0.053	-6.512	0.004
-0.045	-6.508	0.000
0.013	-6.537	0.081
0.014	-6.528	0.084
0.010	-6.521	0.089
0.002	-6.520	0.095
-0.005	-6.523	0.098
-0.011	-6.531	0.098
-0.012	-6.539	0.095
-0.008	-6.546	0.090
-0.001	-6.548	0.084
0.007	-6.544	0.081
-0.057	-6.586	0.002
-0.052	-6.583	0.009
-0.048	-6.586	0.017
-0.047	-6.593	0.023
-0.049	-6.602	0.024
-0.053	-6.609	0.021
-0.059	-6.612	0.014
-0.063	-6.610	0.006
-0.064	-6.603	0.000
-0.062	-6.594	-0.001
-0.005	-6.604	-0.030
-0.000	-6.601	-0.023
0.004	-6.603	-0.015
0.005	-6.610	-0.009
0.003	-6.619	-0.007
-0.001	-6.627	-0.011
-0.007	-6.630	-0.018
-0.011	-6.627	-0.026
-0.012	-6.620	-0.032
-0.010	-6.611	-0.033
-0.048	-6.708	0.013
-0.044	-6.700	0.016
-0.046	-6.691	0.018
-0.053	-6.685	0.018
-0.062	-6.683	0.017
-0.070	-6.688	0.015
-0.074	-6.696	0.013
-0.072	-6.705	0.011
-0.065	-6.711	0.010
-0.056	-6.712	0.011
-0.063	-6.715	0.051
-0.063	-6.706	0.056
-0.063	-6.697	0.054
-0.063	-6.691	0.048
-0.063	-6.689	0.039
-0.063	-6.693	0.030
-0.063	-6.702	0.026
-0.063	-6.711	0.027
-0.063	-6.717	0.034
-0.063	-6.719	0.043
-0.010	-5.290	-0.007
-0.002	-5.285	-0.009
0.007	-5.286	-0.011
0.014	-5.292	-0.012
0.016	-5.301	-0.012
0.013	-5.309	-0.011
0.005	-5.314	-0.009
-0.004	-5.313	-0.007
-0.011	-5.307	-0.006
-0.013	-5.298	-0.006
-0.115	-5.327	-0.495
-0.107	-5.322	-0.497
-0.098	-5.323	-0.499
-0.091	-5.329	-0.500
-0.089	-5.338	-0.500
-0.092	-5.346	-0.498
-0.100	-5.351	-0.496
-0.109	-5.350	-0.494
-0.116	-5.344	-0.493
-0.118	-5.335	-0.493
-0.006	-5.406	0.005
-0.008	-5.397	0.006
-0.007	-5.389	0.002
-0.003	-5.385	-0.006
0.001	-5.386	-0.014
0.004	-5.393	-0.020
0.006	-5.402	-0.020
0.005	-5.410	-0.016
0.001	-5.414	-0.009
-0.003	-5.413	-0.001
-0.443	-5.452	-0.213
-0.444	-5.443	-0.212
-0.443	-5.434	-0.216
-0.440	-5.430	-0.223
-0.436	-5.431	-0.231
-0.432	-5.438	-0.237
-0.431	-5.447	-0.238
-0.432	-5.455	-0.234
-0.435	-5.460	-0.226
-0.439	-5.458	-0.218
-0.009	-5.508	0.005
-0.012	-5.500	0.007
-0.012	-5.491	0.004
-0.011	-5.485	-0.003
-0.008	-5.485	-0.012
-0.004	-5.490	-0.019
-0.002	-5.499	-0.021
-0.001	-5.507	-0.018
-0.003	-5.513	-0.011
-0.006	-5.513	-0.002
-0.421	-5.588	-0.145
-0.423	-5.579	-0.143
-0.424	-5.571	-0.146
-0.422	-5.565	-0.153
-0.419	-5.565	-0.161
-0.416	-5.570	-0.168
-0.413	-5.578	-0.171
-0.412	-5.587	-0.168
-0.414	-5.593	-0.161
-0.417	-5.593	-0.152
-0.011	-5.589	-0.015
-0.008	-5.585	-0.007
-0.006	-5.587	0.002
-0.007	-5.593	0.009
-0.010	-5.601	0.011
-0.014	-5.609	0.008
-0.018	-5.613	0.000
-0.020	-5.611	-0.009
-0.018	-5.605	-0.016
-0.015	-5.597	-0.018
0.336	-5.743	-0.095
0.339	-5.739	-0.087
0.341	-5.741	-0.078
0.340	-5.747	-0.071
0.337	-5.755	-0.069
0.333	-5.763	-0.072
0.329	-5.767	-0.080
0.328	-5.765	-0.089
0.329	-5.759	-0.096
0.332	-5.751	-0.098
-0.014	-5.711	0.007
-0.013	-5.704	0.012
-0.014	-5.694	0.013
-0.017	-5.687	0.008
-0.021	-5.684	0.001
-0.024	-5.687	-0.008
-0.025	-5.694	-0.013
-0.024	-5.703	-0.014
-0.021	-5.711	-0.009
-0.017	-5.714	-0.002
-0.306	-5.744	0.117
-0.301	-5.744	0.126
-0.303	-5.744	0.135
-0.309	-5.744	0.141
[...]
         <CellData>
           <DataArray type="Float32" Name="combinedRootClassID" NumberOfComponents="1" format="ascii">
 -5.000e+00 -5.000e+00 -5.000e+00 -5.000e+00 -2.000e+00 -2.000e+00 -2.000e+00 -2.000e+00 -2.000e+00 -2.000e+00 -2.000e+00 -2.000e+00 -2.000e+00 -2.000e+00 -2.000e+00 -2.000e+00 -7.000e+00 -7.000e+00 -7.000e+00 -7.000e+00 -7.000e+00 -7.000e+00 -7.000e+00 -7.000e+00 -7.000e+00 -7.000e+00 -7.000e+00 -7.000e+00 -7.000e+00 -7.000e+00 -7.000e+00 -7.000e+00 -7.000e+00 -9.000e+00 -4.000e+00 -4.000e+00 -4.000e+00 -4.000e+00 -4.000e+00 -4.000e+00 -4.000e+00 -4.000e+00 -4.000e+00 -4.000e+00 -4.000e+00 -4.000e+00 -4.000e+00 -4.000e+00 -4.000e+00 -4.000e+00 -4.000e+00 -4.000e+00 -4.000e+00 -4.000e+00 -4.000e+00 -4.000e+00 -4.000e+00 -4.000e+00
           </DataArray>
           <DataArray type="Float32" Name="nitrate/minimalNutrientConcentration" NumberOfComponents="1" format="ascii">
 6.000e+02 6.000e+02 6.000e+02 6.000e+02 6.000e+02 6.000e+02 6.000e+02 6.000e+02 6.000e+02 6.000e+02 6.000e+02 6.000e+02 6.000e+02 6.000e+02 6.000e+02 6.000e+02 6.000e+02 6.000e+02 6.000e+02 6.000e+02 6.000e+02 6.000e+02 6.000e+02 6.000e+02 6.000e+02 6.000e+02 6.000e+02 6.000e+02 6.000e+02 6.000e+02 6.000e+02 6.000e+02 6.000e+02 6.000e+02 6.000e+02 6.000e+02 6.000e+02 6.000e+02 6.000e+02 6.000e+02 6.000e+02 6.000e+02 6.000e+02 6.000e+02 6.000e+02 6.000e+02 6.000e+02 6.000e+02 6.000e+02 6.000e+02 6.000e+02 6.000e+02 6.000e+02 6.000e+02 6.000e+02 6.000e+02 6.000e+02 6.000e+02
           </DataArray>
           <DataArray type="Float32" Name="nitrate/optimalNutrientConcentration" NumberOfComponents="1" format="ascii">
 1.200e+03 1.200e+03 1.200e+03 1.200e+03 1.200e+03 1.200e+03 1.200e+03 1.200e+03 1.200e+03 1.200e+03 1.200e+03 1.200e+03 1.200e+03 1.200e+03 1.200e+03 1.200e+03 1.200e+03 1.200e+03 1.200e+03 1.200e+03 1.200e+03 1.200e+03 1.200e+03 1.200e+03 1.200e+03 1.200e+03 1.200e+03 1.200e+03 1.200e+03 1.200e+03 1.200e+03 1.200e+03 1.200e+03 1.200e+03 1.200e+03 1.200e+03 1.200e+03 1.200e+03 1.200e+03 1.200e+03 1.200e+03 1.200e+03 1.200e+03 1.200e+03 1.200e+03 1.200e+03 1.200e+03 1.200e+03 1.200e+03 1.200e+03 1.200e+03 1.200e+03 1.200e+03 1.200e+03 1.200e+03 1.200e+03 1.200e+03 1.200e+03
           </DataArray>
           <DataArray type="Float32" Name="nitrate/radiusDepletionZone" NumberOfComponents="1" format="ascii">
 3.400e-02 3.400e-02 3.400e-02 3.400e-02 2.270e+00 2.212e+00 1.337e+01 1.069e+01 8.372e+00 7.175e+00 5.874e+00 5.221e+00 4.698e+00 2.013e-01 2.011e-01 2.007e-01 1.500e-02 1.500e-02 1.500e-02 1.500e-02 1.500e-02 1.500e-02 1.500e-02 1.500e-02 1.500e-02 1.500e-02 1.500e-02 1.500e-02 1.500e-02 1.500e-02 1.500e-02 1.500e-02 1.500e-02 1.500e-02 1.855e+00 2.229e+01 1.437e+01 9.971e+00 7.976e+00 6.108e+00 5.235e+00 4.177e+00 3.712e+00 3.341e+00 2.743e+00 2.515e+00 2.073e+00 1.925e+00 1.581e+00 1.482e+00 1.205e+00 1.138e+00 9.083e-01 8.628e-01 6.681e-01 4.910e-01 4.697e-01 3.157e-01
           </DataArray>
           <DataArray type="Float32" Name="nitrate/rootSegmentMinimalNutrientContent" NumberOfComponents="1" format="ascii">
 1.094e-01 1.094e-01 1.094e-01 1.094e-01 7.165e+00 3.551e+00 4.125e+00 4.403e+00 4.388e+00 4.374e+00 4.361e+00 4.348e+00 4.047e+00 3.461e+00 5.179e+00 5.815e+00 2.080e-02 1.984e-02 9.244e-03 6.080e-03 6.073e-03 5.100e-03 4.098e-03 2.519e-03 1.104e-03 2.016e-02 1.975e-02 1.790e-02 1.561e-02 1.307e-02 1.030e-02 1.268e-02 1.224e-02 1.541e-02 3.929e-01 1.907e-01 1.883e-01 1.862e-01 1.845e-01 1.830e-01 1.815e-01 1.802e-01 1.789e-01 1.777e-01 1.766e-01 1.756e-01 1.746e-01 1.737e-01 1.729e-01 1.722e-01 1.716e-01 1.710e-01 1.705e-01 1.701e-01 1.697e-01 1.695e-01 1.693e-01 1.692e-01
           </DataArray>
           <DataArray type="Float32" Name="nitrate/rootSegmentNutrientUptake" NumberOfComponents="1" format="ascii">
 0.000e+00 0.000e+00 0.000e+00 0.000e+00 3.434e+00 3.405e+00 1.987e+00 2.077e+00 2.025e+00 1.966e+00 1.921e+00 1.853e+00 1.680e+00 0.000e+00 0.000e+00 0.000e+00 0.000e+00 0.000e+00 0.000e+00 0.000e+00 0.000e+00 0.000e+00 0.000e+00 0.000e+00 0.000e+00 0.000e+00 0.000e+00 0.000e+00 0.000e+00 0.000e+00 0.000e+00 0.000e+00 0.000e+00 0.000e+00 2.099e+00 8.887e-01 1.008e+00 9.752e-01 9.384e-01 8.979e-01 8.545e-01 8.092e-01 7.625e-01 7.149e-01 6.667e-01 6.180e-01 5.689e-01 5.196e-01 4.701e-01 4.204e-01 3.706e-01 3.207e-01 2.707e-01 2.206e-01 1.704e-01 1.202e-01 6.992e-02 1.996e-02
           </DataArray>
           <DataArray type="Float32" Name="nitrate/rootSegmentOptimalNutrientContent" NumberOfComponents="1" format="ascii">
 2.189e-01 2.189e-01 2.189e-01 2.189e-01 1.433e+01 7.102e+00 8.249e+00 8.805e+00 8.776e+00 8.748e+00 8.721e+00 8.696e+00 8.095e+00 6.921e+00 1.036e+01 1.163e+01 4.160e-02 3.968e-02 1.849e-02 1.216e-02 1.215e-02 1.020e-02 8.196e-03 5.037e-03 2.207e-03 4.033e-02 3.950e-02 3.579e-02 3.123e-02 2.614e-02 2.061e-02 2.536e-02 2.447e-02 3.081e-02 7.859e-01 3.814e-01 3.766e-01 3.725e-01 3.690e-01 3.660e-01 3.631e-01 3.604e-01 3.578e-01 3.554e-01 3.532e-01 3.511e-01 3.492e-01 3.474e-01 3.458e-01 3.444e-01 3.431e-01 3.420e-01 3.410e-01 3.402e-01 3.395e-01 3.390e-01 3.386e-01 3.384e-01
           </DataArray>
           <DataArray type="Float32" Name="parentRootClassID" NumberOfComponents="1" format="ascii">
 -2.000e+00 -2.000e+00 -2.000e+00 -2.000e+00 -3.000e+00 -3.000e+00 -3.000e+00 -3.000e+00 -3.000e+00 -3.000e+00 -3.000e+00 -3.000e+00 -3.000e+00 -3.000e+00 -3.000e+00 -3.000e+00 -4.000e+00 -4.000e+00 -4.000e+00 -4.000e+00 -4.000e+00 -4.000e+00 -4.000e+00 -4.000e+00 -4.000e+00 -4.000e+00 -4.000e+00 -4.000e+00 -4.000e+00 -4.000e+00 -4.000e+00 -4.000e+00 -4.000e+00 -4.000e+00 -3.000e+00 -3.000e+00 -3.000e+00 -3.000e+00 -3.000e+00 -3.000e+00 -3.000e+00 -3.000e+00 -3.000e+00 -3.000e+00 -3.000e+00 -3.000e+00 -3.000e+00 -3.000e+00 -3.000e+00 -3.000e+00 -3.000e+00 -3.000e+00 -3.000e+00 -3.000e+00 -3.000e+00 -3.000e+00 -3.000e+00 -3.000e+00
           </DataArray>
           <DataArray type="Float32" Name="plantID" NumberOfComponents="1" format="ascii">
 6.000e+00 6.000e+00 6.000e+00 6.000e+00 6.000e+00 6.000e+00 6.000e+00 6.000e+00 6.000e+00 6.000e+00 6.000e+00 6.000e+00 6.000e+00 6.000e+00 6.000e+00 6.000e+00 6.000e+00 6.000e+00 6.000e+00 6.000e+00 6.000e+00 6.000e+00 6.000e+00 6.000e+00 6.000e+00 6.000e+00 6.000e+00 6.000e+00 6.000e+00 6.000e+00 6.000e+00 6.000e+00 6.000e+00 6.000e+00 6.000e+00 6.000e+00 6.000e+00 6.000e+00 6.000e+00 6.000e+00 6.000e+00 6.000e+00 6.000e+00 6.000e+00 6.000e+00 6.000e+00 6.000e+00 6.000e+00 6.000e+00 6.000e+00 6.000e+00 6.000e+00 6.000e+00 6.000e+00 6.000e+00 6.000e+00 6.000e+00 6.000e+00
           </DataArray>
           <DataArray type="Float32" Name="plantTypeID" NumberOfComponents="1" format="ascii">
 0.000e+00 0.000e+00 0.000e+00 0.000e+00 0.000e+00 0.000e+00 0.000e+00 0.000e+00 0.000e+00 0.000e+00 0.000e+00 0.000e+00 0.000e+00 0.000e+00 0.000e+00 0.000e+00 0.000e+00 0.000e+00 0.000e+00 0.000e+00 0.000e+00 0.000e+00 0.000e+00 0.000e+00 0.000e+00 0.000e+00 0.000e+00 0.000e+00 0.000e+00 0.000e+00 0.000e+00 0.000e+00 0.000e+00 0.000e+00 0.000e+00 0.000e+00 0.000e+00 0.000e+00 0.000e+00 0.000e+00 0.000e+00 0.000e+00 0.000e+00 0.000e+00 0.000e+00 0.000e+00 0.000e+00 0.000e+00 0.000e+00 0.000e+00 0.000e+00 0.000e+00 0.000e+00 0.000e+00 0.000e+00 0.000e+00 0.000e+00 0.000e+00
           </DataArray>
           <DataArray type="Float32" Name="rootCircumference" NumberOfComponents="1" format="ascii">
 2.136e-01 2.136e-01 2.136e-01 2.136e-01 1.295e+00 1.284e+00 1.281e+00 1.279e+00 1.276e+00 1.274e+00 1.273e+00 1.271e+00 1.269e+00 1.267e+00 1.266e+00 1.263e+00 9.426e-02 9.426e-02 9.425e-02 9.425e-02 9.425e-02 9.425e-02 9.425e-02 9.425e-02 9.425e-02 9.426e-02 9.425e-02 9.425e-02 9.425e-02 9.425e-02 9.425e-02 9.425e-02 9.425e-02 9.425e-02 3.047e-01 3.002e-01 2.983e-01 2.967e-01 2.953e-01 2.941e-01 2.929e-01 2.918e-01 2.908e-01 2.898e-01 2.889e-01 2.881e-01 2.873e-01 2.865e-01 2.859e-01 2.853e-01 2.848e-01 2.843e-01 2.839e-01 2.835e-01 2.832e-01 2.830e-01 2.829e-01 2.828e-01
           </DataArray>
           <DataArray type="Float32" Name="rootClassID" NumberOfComponents="1" format="ascii">
 9.900e+01 9.900e+01 9.900e+01 9.900e+01 -2.000e+00 -2.000e+00 -2.000e+00 -2.000e+00 -2.000e+00 -2.000e+00 -2.000e+00 -2.000e+00 -2.000e+00 -2.000e+00 -2.000e+00 -2.000e+00 9.700e+01 9.700e+01 9.700e+01 9.700e+01 9.700e+01 9.700e+01 9.700e+01 9.700e+01 9.700e+01 9.700e+01 9.700e+01 9.700e+01 9.700e+01 9.700e+01 9.700e+01 9.700e+01 9.700e+01 9.700e+01 -4.000e+00 -4.000e+00 -4.000e+00 -4.000e+00 -4.000e+00 -4.000e+00 -4.000e+00 -4.000e+00 -4.000e+00 -4.000e+00 -4.000e+00 -4.000e+00 -4.000e+00 -4.000e+00 -4.000e+00 -4.000e+00 -4.000e+00 -4.000e+00 -4.000e+00 -4.000e+00 -4.000e+00 -4.000e+00 -4.000e+00 -4.000e+00
           </DataArray>
           <DataArray type="Float32" Name="rootDiameter" NumberOfComponents="1" format="ascii">
 6.800e-02 6.800e-02 6.800e-02 6.800e-02 4.123e-01 4.087e-01 4.078e-01 4.070e-01 4.063e-01 4.057e-01 4.051e-01 4.045e-01 4.039e-01 4.034e-01 4.030e-01 4.021e-01 3.000e-02 3.000e-02 3.000e-02 3.000e-02 3.000e-02 3.000e-02 3.000e-02 3.000e-02 3.000e-02 3.000e-02 3.000e-02 3.000e-02 3.000e-02 3.000e-02 3.000e-02 3.000e-02 3.000e-02 3.000e-02 9.700e-02 9.556e-02 9.496e-02 9.444e-02 9.400e-02 9.361e-02 9.324e-02 9.289e-02 9.256e-02 9.225e-02 9.196e-02 9.169e-02 9.144e-02 9.121e-02 9.100e-02 9.081e-02 9.064e-02 9.049e-02 9.036e-02 9.025e-02 9.016e-02 9.009e-02 9.004e-02 9.001e-02
           </DataArray>
           <DataArray type="Float32" Name="rootLength2Base" NumberOfComponents="1" format="ascii">
 0.000e+00 0.000e+00 0.000e+00 0.000e+00 0.000e+00 9.600e-01 1.440e+00 2.000e+00 2.600e+00 3.200e+00 3.800e+00 4.400e+00 5.000e+00 5.560e+00 6.040e+00 6.760e+00 0.000e+00 0.000e+00 0.000e+00 0.000e+00 0.000e+00 0.000e+00 0.000e+00 0.000e+00 0.000e+00 0.000e+00 0.000e+00 0.000e+00 0.000e+00 0.000e+00 0.000e+00 0.000e+00 0.000e+00 0.000e+00 0.000e+00 9.428e-01 1.414e+00 1.886e+00 2.357e+00 2.828e+00 3.300e+00 3.771e+00 4.243e+00 4.714e+00 5.185e+00 5.657e+00 6.128e+00 6.600e+00 7.071e+00 7.542e+00 8.014e+00 8.485e+00 8.957e+00 9.428e+00 9.899e+00 1.037e+01 1.084e+01 1.131e+01
           </DataArray>
           <DataArray type="Float32" Name="rootPotentialSecondaryGrowth" NumberOfComponents="1" format="ascii">
 6.800e-02 6.800e-02 6.800e-02 6.800e-02 4.123e-01 4.087e-01 4.078e-01 4.070e-01 4.063e-01 4.057e-01 4.051e-01 4.045e-01 4.039e-01 4.034e-01 4.030e-01 4.021e-01 3.000e-02 3.000e-02 3.000e-02 3.000e-02 3.000e-02 3.000e-02 3.000e-02 3.000e-02 3.000e-02 3.000e-02 3.000e-02 3.000e-02 3.000e-02 3.000e-02 3.000e-02 3.000e-02 3.000e-02 3.000e-02 9.700e-02 9.556e-02 9.496e-02 9.444e-02 9.400e-02 9.361e-02 9.324e-02 9.289e-02 9.256e-02 9.225e-02 9.196e-02 9.169e-02 9.144e-02 9.121e-02 9.100e-02 9.081e-02 9.064e-02 9.049e-02 9.036e-02 9.025e-02 9.016e-02 9.009e-02 9.004e-02 9.001e-02
           </DataArray>
           <DataArray type="Float32" Name="rootSegmentAge" NumberOfComponents="1" format="ascii">
 8.330e-01 8.330e-01 8.330e-01 8.330e-01 5.000e+00 4.400e+00 4.200e+00 4.000e+00 3.800e+00 3.600e+00 3.400e+00 3.200e+00 3.000e+00 2.800e+00 2.600e+00 2.200e+00 7.149e-01 6.725e-01 2.906e-01 2.482e-01 2.058e-01 1.633e-01 1.209e-01 7.849e-02 3.606e-02 6.300e-01 5.876e-01 5.452e-01 5.028e-01 4.603e-01 4.179e-01 3.755e-01 3.331e-01 3.119e-01 5.000e+00 4.600e+00 4.400e+00 4.200e+00 4.000e+00 3.800e+00 3.600e+00 3.400e+00 3.200e+00 3.000e+00 2.800e+00 2.600e+00 2.400e+00 2.200e+00 2.000e+00 1.800e+00 1.600e+00 1.400e+00 1.200e+00 1.000e+00 8.000e-01 6.000e-01 4.000e-01 2.000e-01
           </DataArray>
           <DataArray type="Float32" Name="rootSegmentDryWeight" NumberOfComponents="1" format="ascii">
 1.824e-04 1.824e-04 1.824e-04 1.824e-04 1.194e-02 5.919e-03 6.874e-03 7.338e-03 7.313e-03 7.290e-03 7.268e-03 7.247e-03 6.746e-03 5.768e-03 8.631e-03 9.692e-03 3.467e-05 3.307e-05 1.541e-05 1.013e-05 1.012e-05 8.501e-06 6.830e-06 4.198e-06 1.839e-06 3.361e-05 3.292e-05 2.983e-05 2.602e-05 2.178e-05 1.717e-05 2.113e-05 2.040e-05 2.568e-05 6.549e-04 3.178e-04 3.138e-04 3.104e-04 3.075e-04 3.050e-04 3.026e-04 3.003e-04 2.982e-04 2.962e-04 2.943e-04 2.926e-04 2.910e-04 2.895e-04 2.882e-04 2.870e-04 2.859e-04 2.850e-04 2.842e-04 2.835e-04 2.829e-04 2.825e-04 2.821e-04 2.820e-04
           </DataArray>
           <DataArray type="Float32" Name="rootSegmentLength" NumberOfComponents="1" format="ascii">
 5.343e-01 5.343e-01 5.343e-01 5.343e-01 9.600e-01 4.800e-01 5.600e-01 6.000e-01 6.000e-01 6.000e-01 6.000e-01 6.000e-01 5.600e-01 4.800e-01 7.200e-01 8.162e-01 5.217e-01 4.976e-01 2.319e-01 1.525e-01 1.523e-01 1.279e-01 1.028e-01 6.318e-02 2.768e-02 5.057e-01 4.953e-01 4.489e-01 3.916e-01 3.278e-01 2.585e-01 3.180e-01 3.069e-01 3.864e-01 9.428e-01 4.714e-01 4.714e-01 4.714e-01 4.714e-01 4.714e-01 4.714e-01 4.714e-01 4.714e-01 4.714e-01 4.714e-01 4.714e-01 4.714e-01 4.714e-01 4.714e-01 4.714e-01 4.714e-01 4.714e-01 4.714e-01 4.714e-01 4.714e-01 4.714e-01 4.714e-01 4.714e-01
           </DataArray>
           <DataArray type="Float32" Name="rootSegmentLengthDuration" NumberOfComponents="1" format="ascii">
 1.687e-01 1.687e-01 1.687e-01 1.687e-01 4.479e+00 2.064e+00 2.296e+00 2.340e+00 2.220e+00 2.100e+00 1.980e+00 1.860e+00 1.624e+00 1.296e+00 1.736e+00 1.341e+00 1.865e-01 1.710e-01 3.768e-02 2.200e-02 1.937e-02 1.045e-02 6.214e-03 5.638e-03 1.883e-03 1.633e-01 1.455e-01 1.224e-01 9.844e-02 7.902e-02 5.710e-02 5.970e-02 5.111e-02 6.025e-02 4.525e+00 2.121e+00 2.027e+00 1.933e+00 1.838e+00 1.744e+00 1.650e+00 1.556e+00 1.461e+00 1.367e+00 1.273e+00 1.178e+00 1.084e+00 9.899e-01 8.957e-01 8.014e-01 7.071e-01 6.128e-01 5.185e-01 4.243e-01 3.300e-01 2.357e-01 1.414e-01 4.714e-02
           </DataArray>
           <DataArray type="Float32" Name="rootSegmentSurfaceArea" NumberOfComponents="1" format="ascii">
 1.141e-01 1.141e-01 1.141e-01 1.141e-01 1.238e+00 6.163e-01 7.174e-01 7.672e-01 7.659e-01 7.647e-01 7.635e-01 7.624e-01 7.106e-01 6.084e-01 9.115e-01 1.028e+00 4.917e-02 4.690e-02 2.185e-02 1.437e-02 1.436e-02 1.206e-02 9.687e-03 5.954e-03 2.609e-03 4.767e-02 4.668e-02 4.231e-02 3.691e-02 3.090e-02 2.436e-02 2.997e-02 2.893e-02 3.642e-02 2.873e-01 1.415e-01 1.406e-01 1.399e-01 1.392e-01 1.386e-01 1.381e-01 1.376e-01 1.371e-01 1.366e-01 1.362e-01 1.358e-01 1.354e-01 1.351e-01 1.348e-01 1.345e-01 1.342e-01 1.340e-01 1.338e-01 1.337e-01 1.335e-01 1.334e-01 1.333e-01 1.333e-01
           </DataArray>
           <DataArray type="Float32" Name="rootSegmentVolume" NumberOfComponents="1" format="ascii">
 1.941e-03 1.941e-03 1.941e-03 1.941e-03 1.270e-01 6.296e-02 7.313e-02 7.806e-02 7.780e-02 7.755e-02 7.732e-02 7.710e-02 7.176e-02 6.136e-02 9.182e-02 1.031e-01 3.688e-04 3.518e-04 1.639e-04 1.078e-04 1.077e-04 9.043e-05 7.266e-05 4.466e-05 1.957e-05 3.575e-04 3.502e-04 3.173e-04 2.768e-04 2.318e-04 1.827e-04 2.248e-04 2.170e-04 2.732e-04 6.967e-03 3.381e-03 3.339e-03 3.302e-03 3.271e-03 3.244e-03 3.219e-03 3.195e-03 3.172e-03 3.151e-03 3.131e-03 3.113e-03 3.096e-03 3.080e-03 3.066e-03 3.053e-03 3.042e-03 3.032e-03 3.023e-03 3.016e-03 3.010e-03 3.005e-03 3.002e-03 3.000e-03
           </DataArray>
           <DataArray type="Float32" Name="spatialRootDensity" NumberOfComponents="1" format="ascii">
 1.963e+00 1.963e+00 1.963e+00 1.963e+00 1.820e+00 7.353e-01 0.000e+00 0.000e+00 0.000e+00 0.000e+00 0.000e+00 0.000e+00 0.000e+00 0.000e+00 0.000e+00 0.000e+00 2.072e+00 2.114e+00 1.552e+00 1.446e+00 1.327e+00 1.325e+00 1.213e+00 1.115e+00 1.030e+00 2.149e+00 2.182e+00 2.330e+00 2.359e+00 2.381e+00 2.397e+00 2.495e+00 1.988e+00 1.515e+00 1.826e+00 2.009e+00 7.869e-01 4.463e-01 7.677e-02 0.000e+00 0.000e+00 0.000e+00 0.000e+00 0.000e+00 0.000e+00 0.000e+00 0.000e+00 0.000e+00 0.000e+00 0.000e+00 0.000e+00 0.000e+00 0.000e+00 0.000e+00 0.000e+00 0.000e+00 0.000e+00 0.000e+00
           </DataArray>
         </CellData>
      </Piece>
   </UnstructuredGrid>
</VTKFile>
