<?xml version="1.0"?>
<VTKFile type="UnstructuredGrid" version="0.1" byte_order="LittleEndian">
   <UnstructuredGrid>
      <Piece NumberOfPoints="90" NumberOfCells="7">
         <Points>
            <DataArray type="Float32" Name="Position" NumberOfComponents="3" format="ascii">
-0.142	-4.999	0.141
-0.032	-5.002	0.198
0.090	-5.004	0.179
0.178	-5.005	0.092
0.198	-5.004	-0.030
0.142	-5.001	-0.141
0.032	-4.998	-0.198
-0.090	-4.996	-0.179
-0.178	-4.995	-0.092
-0.198	-4.996	0.030
-0.126	-4.250	0.151
-0.015	-4.252	0.207
0.107	-4.253	0.188
0.194	-4.253	0.101
0.214	-4.252	-0.021
0.158	-4.251	-0.132
0.048	-4.249	-0.188
-0.074	-4.248	-0.169
-0.162	-4.248	-0.081
-0.181	-4.248	0.041
-0.124	-3.561	0.154
-0.013	-3.561	0.210
0.109	-3.561	0.190
0.196	-3.561	0.103
0.215	-3.560	-0.019
0.159	-3.560	-0.129
0.048	-3.559	-0.185
-0.074	-3.559	-0.166
-0.161	-3.560	-0.078
-0.180	-3.560	0.044
-0.123	-3.001	0.158
-0.013	-3.002	0.214
0.109	-3.002	0.194
0.196	-3.001	0.106
0.215	-3.000	-0.016
0.159	-3.000	-0.126
0.048	-2.999	-0.182
-0.074	-2.999	-0.162
-0.161	-3.000	-0.074
-0.180	-3.001	0.048
0.032	-4.999	-0.032
0.044	-4.996	-0.008
0.040	-4.994	0.020
0.021	-4.995	0.040
-0.007	-4.997	0.045
-0.032	-5.001	0.032
-0.044	-5.004	0.008
-0.040	-5.006	-0.020
-0.021	-5.005	-0.040
0.007	-5.003	-0.045
0.105	-5.699	0.025
0.117	-5.695	0.049
0.114	-5.693	0.076
0.095	-5.694	0.097
0.067	-5.698	0.102
0.043	-5.703	0.090
0.030	-5.707	0.066
0.034	-5.709	0.038
0.053	-5.708	0.018
0.080	-5.704	0.013
0.249	-6.384	0.095
0.262	-6.379	0.119
0.259	-6.377	0.147
0.241	-6.380	0.168
0.215	-6.386	0.174
0.190	-6.393	0.163
0.177	-6.398	0.140
0.179	-6.400	0.112
0.197	-6.397	0.091
0.224	-6.391	0.085
0.442	-7.060	0.126
0.456	-7.055	0.150
0.454	-7.054	0.178
0.437	-7.058	0.199
0.411	-7.066	0.206
0.386	-7.074	0.196
0.372	-7.079	0.172
0.374	-7.080	0.144
0.392	-7.076	0.123
0.418	-7.068	0.116
0.512	-7.285	0.138
0.526	-7.279	0.161
0.524	-7.279	0.189
0.507	-7.283	0.211
0.481	-7.290	0.218
0.457	-7.299	0.207
0.443	-7.304	0.184
0.445	-7.305	0.156
0.462	-7.301	0.135
0.488	-7.293	0.128
		    </DataArray>
         </Points>
         <Cells>
            <DataArray type="Int32" Name="connectivity" NumberOfComponents="1" format="ascii">
 0 10 1 11 2 12 3 13 4 14 5 15 6 16 7 17 8 18 9 19 0 10
 10 20 11 21 12 22 13 23 14 24 15 25 16 26 17 27 18 28 19 29 10 20
 20 30 21 31 22 32 23 33 24 34 25 35 26 36 27 37 28 38 29 39 20 30
 40 50 41 51 42 52 43 53 44 54 45 55 46 56 47 57 48 58 49 59 40 50
 50 60 51 61 52 62 53 63 54 64 55 65 56 66 57 67 58 68 59 69 50 60
 60 70 61 71 62 72 63 73 64 74 65 75 66 76 67 77 68 78 69 79 60 70
 70 80 71 81 72 82 73 83 74 84 75 85 76 86 77 87 78 88 79 89 70 80

            </DataArray>
            <DataArray type="Int32" Name="offsets" NumberOfComponents="1" format="ascii">
 22 44 66 88 110 132 154
            </DataArray>
            <DataArray type="UInt8"  Name="types" NumberOfComponents="1" format="ascii">
6 6 6 6 6 6 6
            </DataArray>
         </Cells>
         <CellData>
           <DataArray type="Float32" Name="combinedRootClassID" NumberOfComponents="1" format="ascii">
 -2.000e+00 -2.000e+00 -2.000e+00 -4.000e+00 -4.000e+00 -4.000e+00 -4.000e+00
           </DataArray>
           <DataArray type="Float32" Name="nitrate/minimalNutrientConcentration" NumberOfComponents="1" format="ascii">
 6.000e+02 6.000e+02 6.000e+02 6.000e+02 6.000e+02 6.000e+02 6.000e+02
           </DataArray>
           <DataArray type="Float32" Name="nitrate/optimalNutrientConcentration" NumberOfComponents="1" format="ascii">
 1.200e+03 1.200e+03 1.200e+03 1.200e+03 1.200e+03 1.200e+03 1.200e+03
           </DataArray>
           <DataArray type="Float32" Name="nitrate/radiusDepletionZone" NumberOfComponents="1" format="ascii">
 1.103e+00 9.765e-01 7.339e-01 8.193e-01 2.235e+00 7.202e-01 1.934e-01
           </DataArray>
           <DataArray type="Float32" Name="nitrate/rootSegmentMinimalNutrientContent" NumberOfComponents="1" format="ascii">
 5.327e+00 4.893e+00 3.969e+00 2.551e-01 2.544e-01 2.539e-01 8.457e-02
           </DataArray>
           <DataArray type="Float32" Name="nitrate/rootSegmentNutrientUptake" NumberOfComponents="1" format="ascii">
 5.639e-01 1.491e-01 8.189e-02 3.032e-01 1.834e-01 8.481e-02 4.085e-03
           </DataArray>
           <DataArray type="Float32" Name="nitrate/rootSegmentOptimalNutrientContent" NumberOfComponents="1" format="ascii">
 1.065e+01 9.786e+00 7.939e+00 5.102e-01 5.088e-01 5.079e-01 1.691e-01
           </DataArray>
           <DataArray type="Float32" Name="parentRootClassID" NumberOfComponents="1" format="ascii">
 -3.000e+00 -3.000e+00 -3.000e+00 -3.000e+00 -3.000e+00 -3.000e+00 -3.000e+00
           </DataArray>
           <DataArray type="Float32" Name="plantID" NumberOfComponents="1" format="ascii">
 2.000e+00 2.000e+00 2.000e+00 2.000e+00 2.000e+00 2.000e+00 2.000e+00
           </DataArray>
           <DataArray type="Float32" Name="plantTypeID" NumberOfComponents="1" format="ascii">
 0.000e+00 0.000e+00 0.000e+00 0.000e+00 0.000e+00 0.000e+00 0.000e+00
           </DataArray>
           <DataArray type="Float32" Name="rootCircumference" NumberOfComponents="1" format="ascii">
 1.258e+00 1.257e+00 1.257e+00 2.835e-01 2.831e-01 2.829e-01 2.828e-01
           </DataArray>
           <DataArray type="Float32" Name="rootClassID" NumberOfComponents="1" format="ascii">
 -2.000e+00 -2.000e+00 -2.000e+00 -4.000e+00 -4.000e+00 -4.000e+00 -4.000e+00
           </DataArray>
           <DataArray type="Float32" Name="rootDiameter" NumberOfComponents="1" format="ascii">
 4.004e-01 4.001e-01 4.000e-01 9.025e-02 9.012e-02 9.004e-02 9.000e-02
           </DataArray>
           <DataArray type="Float32" Name="rootHairDensity" NumberOfComponents="1" format="ascii">
 0.000e+00 0.000e+00 0.000e+00 2.000e+03 2.000e+03 2.000e+03 2.000e+03
           </DataArray>
           <DataArray type="Float32" Name="rootHairDiameter" NumberOfComponents="1" format="ascii">
 5.000e-04 5.000e-04 5.000e-04 5.000e-04 5.000e-04 5.000e-04 5.000e-04
           </DataArray>
           <DataArray type="Float32" Name="rootHairLength" NumberOfComponents="1" format="ascii">
 0.000e+00 0.000e+00 0.000e+00 0.000e+00 0.000e+00 0.000e+00 0.000e+00
           </DataArray>
           <DataArray type="Float32" Name="rootHairSurfaceArea" NumberOfComponents="1" format="ascii">
 0.000e+00 0.000e+00 0.000e+00 0.000e+00 0.000e+00 0.000e+00 0.000e+00
           </DataArray>
           <DataArray type="Float32" Name="rootLength2Base" NumberOfComponents="1" format="ascii">
 0.000e+00 7.500e-01 1.440e+00 0.000e+00 7.071e-01 1.414e+00 2.121e+00
           </DataArray>
           <DataArray type="Float32" Name="rootPotentialSecondaryGrowth" NumberOfComponents="1" format="ascii">
 4.004e-01 4.001e-01 4.000e-01 9.025e-02 9.012e-02 9.004e-02 9.000e-02
           </DataArray>
           <DataArray type="Float32" Name="rootSegmentAge" NumberOfComponents="1" format="ascii">
 1.000e+00 5.000e-01 2.000e-01 1.000e+00 7.000e-01 4.000e-01 1.000e-01
           </DataArray>
           <DataArray type="Float32" Name="rootSegmentCarbonCostOfExudates" NumberOfComponents="1" format="ascii">
 0.000e+00 0.000e+00 0.000e+00 1.081e-05 7.083e-06 3.355e-06 2.239e-07
           </DataArray>
           <DataArray type="Float32" Name="rootSegmentDryWeight" NumberOfComponents="1" format="ascii">
 8.879e-03 8.155e-03 6.616e-03 4.252e-04 4.240e-04 4.232e-04 1.410e-04
           </DataArray>
           <DataArray type="Float32" Name="rootSegmentLength" NumberOfComponents="1" format="ascii">
 7.500e-01 6.900e-01 5.600e-01 7.071e-01 7.071e-01 7.071e-01 2.357e-01
           </DataArray>
           <DataArray type="Float32" Name="rootSegmentLengthDuration" NumberOfComponents="1" format="ascii">
 5.450e-01 2.413e-01 5.467e-02 6.050e-01 3.928e-01 1.807e-01 2.357e-02
           </DataArray>
           <DataArray type="Float32" Name="rootSegmentRespiration" NumberOfComponents="1" format="ascii">
 5.771e-04 6.320e-04 5.623e-04 2.764e-05 3.074e-05 3.386e-05 1.233e-05
           </DataArray>
           <DataArray type="Float32" Name="rootSegmentSecondaryPotentialCarbonSinkForGrowth" NumberOfComponents="1" format="ascii">
 5.035e-06 1.035e-06 8.527e-08 7.729e-07 3.280e-07 7.402e-08 1.175e-09
           </DataArray>
           <DataArray type="Float32" Name="rootSegmentSurfaceArea" NumberOfComponents="1" format="ascii">
 9.435e-01 8.673e-01 7.037e-01 2.005e-01 2.002e-01 2.000e-01 6.664e-02
           </DataArray>
           <DataArray type="Float32" Name="rootSegmentVolume" NumberOfComponents="1" format="ascii">
 9.445e-02 8.676e-02 7.038e-02 4.523e-03 4.511e-03 4.502e-03 1.500e-03
           </DataArray>
           <DataArray type="Float32" Name="rootSegmentWaterUptake" NumberOfComponents="1" format="ascii">
 0.000e+00 0.000e+00 0.000e+00 0.000e+00 0.000e+00 0.000e+00 0.000e+00
           </DataArray>
           <DataArray type="Float32" Name="spatialRootDensity" NumberOfComponents="1" format="ascii">
 3.376e-01 1.688e-01 0.000e+00 3.438e-01 1.790e-01 0.000e+00 0.000e+00
           </DataArray>
           <DataArray type="Float32" Name="volumetricWaterContentAtTheRootSurface" NumberOfComponents="1" format="ascii">
 2.143e-01 2.141e-01 2.139e-01 2.143e-01 2.145e-01 2.147e-01 2.149e-01
           </DataArray>
         </CellData>
      </Piece>
   </UnstructuredGrid>
</VTKFile>
