<?xml version="1.0"?>
<VTKFile type="UnstructuredGrid" version="0.1" byte_order="LittleEndian">
   <UnstructuredGrid>
      <Piece NumberOfPoints="2810" NumberOfCells="205">
         <Points>
            <DataArray type="Float32" Name="Position" NumberOfComponents="3" format="ascii">
0.019	-4.981	-0.027
0.019	-4.965	-0.014
0.011	-4.958	0.005
-0.000	-4.963	0.022
-0.011	-4.979	0.030
-0.018	-4.999	0.027
-0.017	-5.015	0.014
-0.010	-5.022	-0.004
0.001	-5.017	-0.021
0.012	-5.001	-0.030
0.799	-5.300	0.398
0.800	-5.284	0.412
0.793	-5.278	0.431
0.782	-5.283	0.448
0.769	-5.298	0.456
0.761	-5.317	0.452
0.760	-5.333	0.439
0.767	-5.340	0.420
0.778	-5.334	0.403
0.791	-5.319	0.395
1.367	-5.663	0.686
1.370	-5.649	0.701
1.365	-5.642	0.720
1.353	-5.647	0.737
1.339	-5.661	0.745
1.329	-5.679	0.740
1.326	-5.694	0.726
1.331	-5.700	0.706
1.343	-5.695	0.690
1.357	-5.681	0.682
1.873	-6.052	0.942
1.878	-6.038	0.957
1.873	-6.032	0.977
1.861	-6.037	0.994
1.846	-6.049	1.001
1.834	-6.066	0.996
1.829	-6.079	0.980
1.834	-6.085	0.961
1.846	-6.081	0.944
1.861	-6.068	0.937
2.398	-6.602	1.203
2.404	-6.589	1.219
2.400	-6.584	1.239
2.387	-6.588	1.255
2.371	-6.600	1.262
2.357	-6.615	1.256
2.351	-6.627	1.240
2.355	-6.632	1.220
2.368	-6.628	1.204
2.384	-6.617	1.197
2.766	-7.042	1.381
2.773	-7.031	1.398
2.769	-7.026	1.418
2.757	-7.030	1.434
2.740	-7.040	1.440
2.725	-7.054	1.434
2.718	-7.065	1.418
2.722	-7.070	1.398
2.734	-7.067	1.381
2.751	-7.056	1.375
3.129	-7.555	1.564
3.137	-7.544	1.580
3.133	-7.539	1.600
3.120	-7.542	1.616
3.102	-7.552	1.622
3.087	-7.564	1.616
3.079	-7.575	1.599
3.083	-7.580	1.579
3.096	-7.577	1.563
3.114	-7.567	1.557
3.481	-8.132	1.766
3.489	-8.122	1.782
3.485	-8.117	1.802
3.472	-8.119	1.818
3.454	-8.128	1.824
3.437	-8.140	1.817
3.430	-8.150	1.801
3.433	-8.155	1.780
3.447	-8.152	1.764
3.465	-8.144	1.759
3.658	-8.442	1.871
3.666	-8.432	1.888
3.662	-8.427	1.908
3.649	-8.429	1.924
3.630	-8.438	1.930
3.614	-8.449	1.923
3.606	-8.459	1.906
3.610	-8.464	1.886
3.624	-8.462	1.870
3.642	-8.453	1.864
-0.011	-4.962	-0.016
0.008	-4.958	-0.007
0.024	-4.965	0.004
0.031	-4.982	0.014
0.026	-5.002	0.019
0.012	-5.018	0.017
-0.007	-5.022	0.008
-0.023	-5.015	-0.004
-0.029	-4.998	-0.014
-0.025	-4.978	-0.019
0.431	-5.245	-0.798
0.450	-5.242	-0.790
0.465	-5.250	-0.777
0.471	-5.267	-0.766
0.464	-5.286	-0.759
0.448	-5.300	-0.761
0.429	-5.303	-0.769
0.415	-5.295	-0.781
0.409	-5.278	-0.793
0.416	-5.259	-0.799
0.723	-5.629	-1.356
0.742	-5.627	-1.348
0.756	-5.636	-1.334
0.759	-5.652	-1.321
0.750	-5.669	-1.313
0.732	-5.681	-1.314
0.713	-5.683	-1.322
0.700	-5.674	-1.335
0.697	-5.658	-1.348
0.706	-5.641	-1.356
0.981	-6.016	-1.865
1.000	-6.015	-1.856
1.013	-6.024	-1.842
1.013	-6.039	-1.827
1.003	-6.055	-1.818
0.984	-6.065	-1.818
0.965	-6.066	-1.827
0.953	-6.057	-1.842
0.952	-6.041	-1.856
0.963	-6.026	-1.865
1.247	-6.577	-2.378
1.266	-6.578	-2.368
1.276	-6.587	-2.353
1.276	-6.601	-2.337
1.263	-6.615	-2.328
1.244	-6.624	-2.328
1.225	-6.624	-2.338
1.214	-6.614	-2.354
1.215	-6.600	-2.369
1.228	-6.586	-2.378
1.438	-6.999	-2.762
1.456	-7.000	-2.752
1.467	-7.010	-2.736
1.466	-7.024	-2.721
1.453	-7.037	-2.711
1.433	-7.045	-2.711
1.415	-7.044	-2.721
1.404	-7.035	-2.737
1.405	-7.021	-2.752
1.418	-7.007	-2.762
1.611	-7.484	-3.166
1.629	-7.485	-3.155
1.639	-7.494	-3.139
1.636	-7.508	-3.123
1.622	-7.520	-3.114
1.603	-7.527	-3.114
1.584	-7.526	-3.124
1.575	-7.517	-3.141
1.577	-7.503	-3.157
1.591	-7.491	-3.166
1.818	-8.029	-3.564
1.836	-8.031	-3.553
1.845	-8.040	-3.536
1.841	-8.052	-3.520
1.827	-8.064	-3.510
1.807	-8.070	-3.511
1.789	-8.069	-3.522
1.780	-8.060	-3.539
1.783	-8.047	-3.555
1.798	-8.035	-3.565
1.911	-8.326	-3.768
1.929	-8.328	-3.757
1.937	-8.337	-3.740
1.933	-8.350	-3.724
1.918	-8.361	-3.714
1.898	-8.367	-3.715
1.881	-8.365	-3.726
1.872	-8.356	-3.743
1.876	-8.343	-3.759
1.891	-8.332	-3.769
-0.006	-5.010	0.027
-0.014	-4.991	0.031
-0.016	-4.972	0.024
-0.012	-4.959	0.007
-0.003	-4.959	-0.012
0.007	-4.970	-0.026
0.015	-4.989	-0.031
0.017	-5.008	-0.023
0.013	-5.021	-0.007
0.005	-5.022	0.012
-0.818	-5.268	-0.364
-0.829	-5.251	-0.357
-0.835	-5.232	-0.362
-0.835	-5.217	-0.377
-0.828	-5.213	-0.396
-0.817	-5.220	-0.413
-0.807	-5.237	-0.420
-0.800	-5.256	-0.415
-0.800	-5.271	-0.400
-0.807	-5.275	-0.381
-1.405	-5.617	-0.617
-1.417	-5.600	-0.616
-1.424	-5.583	-0.626
-1.423	-5.573	-0.644
-1.415	-5.573	-0.663
-1.402	-5.584	-0.676
-1.390	-5.601	-0.678
-1.383	-5.618	-0.668
-1.384	-5.628	-0.649
-1.393	-5.628	-0.630
-1.928	-5.996	-0.842
-1.942	-5.982	-0.835
-1.953	-5.965	-0.841
-1.957	-5.952	-0.856
-1.953	-5.948	-0.877
-1.941	-5.954	-0.893
-1.927	-5.968	-0.900
-1.916	-5.985	-0.895
-1.912	-5.998	-0.879
-1.916	-6.002	-0.859
-2.498	-6.516	-1.054
-2.512	-6.505	-1.044
-2.526	-6.490	-1.045
-2.535	-6.476	-1.058
-2.535	-6.468	-1.078
-2.526	-6.470	-1.096
-2.511	-6.481	-1.107
-2.497	-6.497	-1.106
-2.489	-6.511	-1.093
-2.489	-6.518	-1.073
-2.904	-6.926	-1.214
-2.918	-6.918	-1.201
-2.934	-6.904	-1.200
-2.945	-6.890	-1.210
-2.947	-6.880	-1.229
-2.940	-6.880	-1.249
-2.926	-6.888	-1.262
-2.910	-6.902	-1.264
-2.899	-6.917	-1.253
-2.897	-6.926	-1.234
-3.318	-7.399	-1.384
-3.331	-7.392	-1.369
-3.348	-7.380	-1.366
-3.361	-7.366	-1.375
-3.365	-7.356	-1.393
-3.360	-7.354	-1.413
-3.346	-7.361	-1.428
-3.330	-7.374	-1.431
-3.317	-7.388	-1.422
-3.313	-7.397	-1.404
-3.754	-7.927	-1.541
-3.767	-7.922	-1.525
-3.784	-7.911	-1.520
-3.798	-7.897	-1.527
-3.805	-7.887	-1.544
-3.801	-7.884	-1.565
-3.789	-7.889	-1.581
-3.772	-7.901	-1.586
-3.757	-7.914	-1.579
-3.751	-7.924	-1.562
-3.989	-8.175	-1.663
-3.989	-8.166	-1.644
-3.989	-8.169	-1.623
-3.989	-8.184	-1.608
-3.989	-8.205	-1.605
-3.989	-8.223	-1.615
-3.989	-8.233	-1.633
-3.989	-8.230	-1.654
-3.989	-8.215	-1.669
-3.989	-8.194	-1.672
0.023	-5.015	0.003
0.031	-4.998	0.012
0.028	-4.978	0.017
0.014	-4.963	0.016
-0.005	-4.957	0.008
-0.022	-4.965	-0.002
-0.030	-4.982	-0.012
-0.027	-5.002	-0.017
-0.013	-5.017	-0.015
0.006	-5.023	-0.007
-0.370	-5.278	0.814
-0.363	-5.261	0.825
-0.368	-5.242	0.832
-0.383	-5.227	0.832
-0.402	-5.222	0.824
-0.418	-5.229	0.813
-0.425	-5.245	0.802
-0.420	-5.265	0.795
-0.406	-5.280	0.795
-0.386	-5.285	0.802
-0.656	-5.644	1.373
-0.650	-5.629	1.387
-0.656	-5.612	1.397
-0.672	-5.598	1.399
-0.692	-5.594	1.393
-0.708	-5.600	1.381
-0.714	-5.615	1.367
-0.708	-5.633	1.358
-0.692	-5.646	1.355
-0.672	-5.651	1.361
-0.874	-6.045	1.881
-0.868	-6.031	1.896
-0.875	-6.015	1.908
-0.891	-6.002	1.912
-0.911	-5.998	1.907
-0.927	-6.005	1.895
-0.933	-6.018	1.880
-0.927	-6.035	1.868
-0.910	-6.047	1.864
-0.890	-6.051	1.869
-1.093	-6.591	2.424
-1.088	-6.578	2.440
-1.094	-6.563	2.453
-1.111	-6.552	2.458
-1.132	-6.549	2.454
-1.148	-6.554	2.441
-1.153	-6.567	2.426
-1.146	-6.582	2.412
-1.129	-6.593	2.407
-1.109	-6.596	2.411
-1.246	-7.030	2.802
-1.240	-7.018	2.819
-1.247	-7.004	2.833
-1.264	-6.993	2.839
-1.285	-6.990	2.835
-1.301	-6.995	2.822
-1.306	-7.007	2.805
-1.299	-7.021	2.791
-1.282	-7.031	2.785
-1.262	-7.035	2.789
-1.410	-7.525	3.194
-1.405	-7.513	3.211
-1.412	-7.500	3.225
-1.429	-7.489	3.232
-1.449	-7.485	3.227
-1.465	-7.490	3.214
-1.470	-7.501	3.197
-1.463	-7.515	3.183
-1.446	-7.526	3.177
-1.426	-7.529	3.181
-1.614	-8.057	3.608
-1.609	-8.047	3.626
-1.616	-8.033	3.640
-1.633	-8.022	3.646
-1.653	-8.018	3.642
-1.669	-8.022	3.628
-1.674	-8.033	3.611
-1.667	-8.046	3.596
-1.650	-8.057	3.590
-1.630	-8.061	3.595
-1.727	-8.350	3.807
-1.722	-8.340	3.825
-1.730	-8.327	3.840
-1.747	-8.316	3.846
-1.767	-8.312	3.841
-1.782	-8.315	3.827
-1.787	-8.325	3.810
-1.779	-8.338	3.795
-1.762	-8.349	3.789
-1.742	-8.354	3.793
-0.014	-4.673	-0.009
0.005	-4.666	-0.003
0.023	-4.673	0.005
0.034	-4.690	0.012
0.033	-4.711	0.014
0.021	-4.728	0.011
0.002	-4.734	0.005
-0.017	-4.727	-0.003
-0.027	-4.710	-0.009
-0.026	-4.689	-0.011
0.141	-4.725	-0.418
0.160	-4.719	-0.411
0.178	-4.725	-0.404
0.189	-4.742	-0.397
0.188	-4.763	-0.395
0.175	-4.780	-0.398
0.156	-4.786	-0.404
0.138	-4.780	-0.412
0.127	-4.763	-0.418
0.128	-4.742	-0.420
-0.005	-4.719	0.028
-0.009	-4.699	0.033
-0.008	-4.680	0.026
-0.004	-4.668	0.009
0.004	-4.668	-0.011
0.011	-4.681	-0.026
0.015	-4.701	-0.031
0.015	-4.721	-0.023
0.010	-4.732	-0.007
0.003	-4.732	0.013
-0.414	-4.769	-0.126
-0.418	-4.749	-0.121
-0.418	-4.729	-0.128
-0.413	-4.717	-0.145
-0.406	-4.718	-0.165
-0.399	-4.730	-0.180
-0.394	-4.750	-0.185
-0.395	-4.770	-0.177
-0.400	-4.782	-0.161
-0.407	-4.781	-0.141
0.024	-4.726	0.007
0.034	-4.709	0.013
0.032	-4.688	0.014
0.019	-4.672	0.011
0.000	-4.666	0.004
-0.018	-4.674	-0.004
-0.028	-4.691	-0.010
-0.026	-4.712	-0.012
-0.013	-4.728	-0.008
0.006	-4.734	-0.001
-0.138	-4.769	0.414
-0.128	-4.751	0.419
-0.130	-4.730	0.421
-0.143	-4.714	0.418
-0.162	-4.709	0.410
-0.180	-4.716	0.403
-0.190	-4.734	0.397
-0.188	-4.754	0.395
-0.175	-4.771	0.399
-0.156	-4.776	0.406
0.017	-4.686	-0.027
0.013	-4.671	-0.013
0.005	-4.666	0.006
-0.004	-4.675	0.023
-0.009	-4.693	0.032
-0.011	-4.714	0.029
-0.006	-4.729	0.015
0.002	-4.734	-0.004
0.010	-4.725	-0.021
0.016	-4.707	-0.030
0.418	-4.732	0.149
0.414	-4.717	0.163
0.406	-4.713	0.182
0.397	-4.721	0.199
0.392	-4.740	0.208
0.390	-4.760	0.205
0.395	-4.776	0.191
0.403	-4.780	0.172
0.411	-4.771	0.155
0.417	-4.753	0.146
-0.152	-4.999	0.152
-0.034	-5.000	0.212
0.097	-5.000	0.192
0.191	-5.001	0.098
0.212	-5.001	-0.033
0.152	-5.001	-0.152
0.034	-5.000	-0.212
-0.097	-5.000	-0.192
-0.191	-4.999	-0.098
-0.212	-4.999	0.033
-0.147	-4.039	0.148
-0.030	-4.039	0.208
0.099	-4.040	0.187
0.192	-4.040	0.095
0.213	-4.041	-0.034
0.154	-4.041	-0.151
0.037	-4.041	-0.211
-0.092	-4.040	-0.191
-0.185	-4.040	-0.098
-0.206	-4.039	0.031
-0.144	-3.559	0.146
-0.028	-3.560	0.205
0.100	-3.560	0.185
0.193	-3.560	0.093
0.213	-3.561	-0.036
0.154	-3.561	-0.152
0.038	-3.561	-0.212
-0.090	-3.560	-0.191
-0.183	-3.560	-0.099
-0.203	-3.560	0.029
-0.143	-3.000	0.145
-0.027	-3.000	0.204
0.101	-3.000	0.184
0.193	-3.000	0.092
0.213	-3.000	-0.036
0.154	-3.000	-0.152
0.039	-3.000	-0.211
-0.090	-3.000	-0.191
-0.181	-3.000	-0.099
-0.202	-3.000	0.029
-0.142	-2.401	0.146
-0.027	-2.401	0.205
0.101	-2.401	0.184
0.192	-2.400	0.093
0.212	-2.400	-0.035
0.153	-2.400	-0.150
[...]
         <CellData>
           <DataArray type="Float32" Name="combinedRootClassID" NumberOfComponents="1" format="ascii">
 -5.000e+00 -5.000e+00 -5.000e+00 -5.000e+00 -5.000e+00 -5.000e+00 -5.000e+00 -5.000e+00 -5.000e+00 -5.000e+00 -5.000e+00 -5.000e+00 -5.000e+00 -5.000e+00 -5.000e+00 -5.000e+00 -5.000e+00 -5.000e+00 -5.000e+00 -5.000e+00 -5.000e+00 -5.000e+00 -5.000e+00 -5.000e+00 -5.000e+00 -5.000e+00 -5.000e+00 -5.000e+00 -5.000e+00 -5.000e+00 -5.000e+00 -5.000e+00 -1.100e+01 -1.100e+01 -1.100e+01 -1.100e+01 -2.000e+00 -2.000e+00 -2.000e+00 -2.000e+00 -2.000e+00 -2.000e+00 -2.000e+00 -2.000e+00 -2.000e+00 -2.000e+00 -2.000e+00 -2.000e+00 -7.000e+00 -7.000e+00 -7.000e+00 -7.000e+00 -7.000e+00 -7.000e+00 -7.000e+00 -7.000e+00 -7.000e+00 -7.000e+00 -7.000e+00 -7.000e+00 -7.000e+00 -7.000e+00 -7.000e+00 -7.000e+00 -7.000e+00 -7.000e+00 -7.000e+00 -7.000e+00 -7.000e+00 -7.000e+00 -7.000e+00 -7.000e+00 -7.000e+00 -7.000e+00 -7.000e+00 -7.000e+00 -7.000e+00 -7.000e+00 -7.000e+00 -7.000e+00 -7.000e+00 -7.000e+00 -7.000e+00 -7.000e+00 -7.000e+00 -7.000e+00 -7.000e+00 -7.000e+00 -7.000e+00 -7.000e+00 -7.000e+00 -7.000e+00 -7.000e+00 -7.000e+00 -7.000e+00 -7.000e+00 -7.000e+00 -7.000e+00 -7.000e+00 -7.000e+00 -7.000e+00 -7.000e+00 -7.000e+00 -7.000e+00 -7.000e+00 -7.000e+00 -7.000e+00 -7.000e+00 -7.000e+00 -7.000e+00 -7.000e+00 -7.000e+00 -7.000e+00 -7.000e+00 -7.000e+00 -7.000e+00 -7.000e+00 -7.000e+00 -7.000e+00 -7.000e+00 -7.000e+00 -7.000e+00 -7.000e+00 -7.000e+00 -7.000e+00 -7.000e+00 -7.000e+00 -7.000e+00 -7.000e+00 -7.000e+00 -7.000e+00 -7.000e+00 -7.000e+00 -7.000e+00 -7.000e+00 -7.000e+00 -7.000e+00 -7.000e+00 -7.000e+00 -7.000e+00 -7.000e+00 -7.000e+00 -7.000e+00 -7.000e+00 -7.000e+00 -7.000e+00 -7.000e+00 -7.000e+00 -7.000e+00 -7.000e+00 -7.000e+00 -7.000e+00 -7.000e+00 -7.000e+00 -7.000e+00 -7.000e+00 -7.000e+00 -7.000e+00 -7.000e+00 -7.000e+00 -7.000e+00 -7.000e+00 -7.000e+00 -7.000e+00 -7.000e+00 -9.000e+00 -9.000e+00 -9.000e+00 -9.000e+00 -9.000e+00 -9.000e+00 -4.000e+00 -4.000e+00 -4.000e+00 -4.000e+00 -4.000e+00 -4.000e+00 -4.000e+00 -4.000e+00 -4.000e+00 -4.000e+00 -4.000e+00 -4.000e+00 -4.000e+00 -4.000e+00 -4.000e+00 -4.000e+00 -4.000e+00 -4.000e+00 -4.000e+00 -4.000e+00 -4.000e+00 -4.000e+00 -4.000e+00 -4.000e+00 -4.000e+00 -4.000e+00 -4.000e+00 -4.000e+00 -4.000e+00 -4.000e+00 -4.000e+00 -4.000e+00 -4.000e+00 -4.000e+00
           </DataArray>
           <DataArray type="Float32" Name="nitrate/minimalNutrientConcentration" NumberOfComponents="1" format="ascii">
 6.000e+02 6.000e+02 6.000e+02 6.000e+02 6.000e+02 6.000e+02 6.000e+02 6.000e+02 6.000e+02 6.000e+02 6.000e+02 6.000e+02 6.000e+02 6.000e+02 6.000e+02 6.000e+02 6.000e+02 6.000e+02 6.000e+02 6.000e+02 6.000e+02 6.000e+02 6.000e+02 6.000e+02 6.000e+02 6.000e+02 6.000e+02 6.000e+02 6.000e+02 6.000e+02 6.000e+02 6.000e+02 6.000e+02 6.000e+02 6.000e+02 6.000e+02 6.000e+02 6.000e+02 6.000e+02 6.000e+02 6.000e+02 6.000e+02 6.000e+02 6.000e+02 6.000e+02 6.000e+02 6.000e+02 6.000e+02 6.000e+02 6.000e+02 6.000e+02 6.000e+02 6.000e+02 6.000e+02 6.000e+02 6.000e+02 6.000e+02 6.000e+02 6.000e+02 6.000e+02 6.000e+02 6.000e+02 6.000e+02 6.000e+02 6.000e+02 6.000e+02 6.000e+02 6.000e+02 6.000e+02 6.000e+02 6.000e+02 6.000e+02 6.000e+02 6.000e+02 6.000e+02 6.000e+02 6.000e+02 6.000e+02 6.000e+02 6.000e+02 6.000e+02 6.000e+02 6.000e+02 6.000e+02 6.000e+02 6.000e+02 6.000e+02 6.000e+02 6.000e+02 6.000e+02 6.000e+02 6.000e+02 6.000e+02 6.000e+02 6.000e+02 6.000e+02 6.000e+02 6.000e+02 6.000e+02 6.000e+02 6.000e+02 6.000e+02 6.000e+02 6.000e+02 6.000e+02 6.000e+02 6.000e+02 6.000e+02 6.000e+02 6.000e+02 6.000e+02 6.000e+02 6.000e+02 6.000e+02 6.000e+02 6.000e+02 6.000e+02 6.000e+02 6.000e+02 6.000e+02 6.000e+02 6.000e+02 6.000e+02 6.000e+02 6.000e+02 6.000e+02 6.000e+02 6.000e+02 6.000e+02 6.000e+02 6.000e+02 6.000e+02 6.000e+02 6.000e+02 6.000e+02 6.000e+02 6.000e+02 6.000e+02 6.000e+02 6.000e+02 6.000e+02 6.000e+02 6.000e+02 6.000e+02 6.000e+02 6.000e+02 6.000e+02 6.000e+02 6.000e+02 6.000e+02 6.000e+02 6.000e+02 6.000e+02 6.000e+02 6.000e+02 6.000e+02 6.000e+02 6.000e+02 6.000e+02 6.000e+02 6.000e+02 6.000e+02 6.000e+02 6.000e+02 6.000e+02 6.000e+02 6.000e+02 6.000e+02 6.000e+02 6.000e+02 6.000e+02 6.000e+02 6.000e+02 6.000e+02 6.000e+02 6.000e+02 6.000e+02 6.000e+02 6.000e+02 6.000e+02 6.000e+02 6.000e+02 6.000e+02 6.000e+02 6.000e+02 6.000e+02 6.000e+02 6.000e+02 6.000e+02 6.000e+02 6.000e+02 6.000e+02 6.000e+02 6.000e+02 6.000e+02 6.000e+02 6.000e+02 6.000e+02 6.000e+02 6.000e+02 6.000e+02 6.000e+02 6.000e+02 6.000e+02 6.000e+02
           </DataArray>
           <DataArray type="Float32" Name="nitrate/optimalNutrientConcentration" NumberOfComponents="1" format="ascii">
 1.200e+03 1.200e+03 1.200e+03 1.200e+03 1.200e+03 1.200e+03 1.200e+03 1.200e+03 1.200e+03 1.200e+03 1.200e+03 1.200e+03 1.200e+03 1.200e+03 1.200e+03 1.200e+03 1.200e+03 1.200e+03 1.200e+03 1.200e+03 1.200e+03 1.200e+03 1.200e+03 1.200e+03 1.200e+03 1.200e+03 1.200e+03 1.200e+03 1.200e+03 1.200e+03 1.200e+03 1.200e+03 1.200e+03 1.200e+03 1.200e+03 1.200e+03 1.200e+03 1.200e+03 1.200e+03 1.200e+03 1.200e+03 1.200e+03 1.200e+03 1.200e+03 1.200e+03 1.200e+03 1.200e+03 1.200e+03 1.200e+03 1.200e+03 1.200e+03 1.200e+03 1.200e+03 1.200e+03 1.200e+03 1.200e+03 1.200e+03 1.200e+03 1.200e+03 1.200e+03 1.200e+03 1.200e+03 1.200e+03 1.200e+03 1.200e+03 1.200e+03 1.200e+03 1.200e+03 1.200e+03 1.200e+03 1.200e+03 1.200e+03 1.200e+03 1.200e+03 1.200e+03 1.200e+03 1.200e+03 1.200e+03 1.200e+03 1.200e+03 1.200e+03 1.200e+03 1.200e+03 1.200e+03 1.200e+03 1.200e+03 1.200e+03 1.200e+03 1.200e+03 1.200e+03 1.200e+03 1.200e+03 1.200e+03 1.200e+03 1.200e+03 1.200e+03 1.200e+03 1.200e+03 1.200e+03 1.200e+03 1.200e+03 1.200e+03 1.200e+03 1.200e+03 1.200e+03 1.200e+03 1.200e+03 1.200e+03 1.200e+03 1.200e+03 1.200e+03 1.200e+03 1.200e+03 1.200e+03 1.200e+03 1.200e+03 1.200e+03 1.200e+03 1.200e+03 1.200e+03 1.200e+03 1.200e+03 1.200e+03 1.200e+03 1.200e+03 1.200e+03 1.200e+03 1.200e+03 1.200e+03 1.200e+03 1.200e+03 1.200e+03 1.200e+03 1.200e+03 1.200e+03 1.200e+03 1.200e+03 1.200e+03 1.200e+03 1.200e+03 1.200e+03 1.200e+03 1.200e+03 1.200e+03 1.200e+03 1.200e+03 1.200e+03 1.200e+03 1.200e+03 1.200e+03 1.200e+03 1.200e+03 1.200e+03 1.200e+03 1.200e+03 1.200e+03 1.200e+03 1.200e+03 1.200e+03 1.200e+03 1.200e+03 1.200e+03 1.200e+03 1.200e+03 1.200e+03 1.200e+03 1.200e+03 1.200e+03 1.200e+03 1.200e+03 1.200e+03 1.200e+03 1.200e+03 1.200e+03 1.200e+03 1.200e+03 1.200e+03 1.200e+03 1.200e+03 1.200e+03 1.200e+03 1.200e+03 1.200e+03 1.200e+03 1.200e+03 1.200e+03 1.200e+03 1.200e+03 1.200e+03 1.200e+03 1.200e+03 1.200e+03 1.200e+03 1.200e+03 1.200e+03 1.200e+03 1.200e+03 1.200e+03 1.200e+03 1.200e+03 1.200e+03 1.200e+03 1.200e+03 1.200e+03 1.200e+03
           </DataArray>
           <DataArray type="Float32" Name="nitrate/radiusDepletionZone" NumberOfComponents="1" format="ascii">
 3.401e-02 3.400e-02 9.925e-01 7.924e-01 6.113e-01 4.535e-01 3.051e-01 1.654e-01 3.401e-02 3.400e-02 9.925e-01 7.924e-01 6.113e-01 4.535e-01 3.051e-01 1.654e-01 3.401e-02 3.400e-02 1.064e+00 7.924e-01 6.113e-01 4.535e-01 3.051e-01 1.654e-01 3.401e-02 3.400e-02 1.062e+00 7.924e-01 6.113e-01 4.535e-01 3.051e-01 1.654e-01 3.400e-02 3.400e-02 3.400e-02 3.400e-02 2.665e+00 3.179e+00 2.216e+01 1.772e+01 1.401e+01 1.201e+01 1.050e+01 8.830e+00 7.945e+00 2.043e-01 2.039e-01 2.032e-01 1.502e-02 1.500e-02 5.176e-01 1.502e-02 1.500e-02 4.054e-01 1.501e-02 1.500e-02 2.454e-01 1.501e-02 1.500e-02 1.501e-02 1.500e-02 1.501e-02 1.500e-02 2.141e-01 1.501e-02 1.500e-02 2.149e-01 1.501e-02 1.500e-02 9.549e-02 1.501e-02 1.500e-02 1.501e-02 1.500e-02 1.501e-02 1.500e-02 1.501e-02 1.500e-02 1.169e-01 1.502e-02 1.501e-02 3.959e-01 1.501e-02 1.500e-02 1.501e-02 1.500e-02 1.501e-02 1.500e-02 1.501e-02 1.500e-02 1.501e-02 1.500e-02 1.500e-02 1.500e-02 1.500e-02 1.500e-02 1.500e-02 1.500e-02 1.500e-02 1.500e-02 1.500e-02 1.500e-02 1.501e-02 1.500e-02 5.181e-01 1.500e-02 1.500e-02 1.500e-02 1.500e-02 1.500e-02 1.500e-02 1.500e-02 1.500e-02 1.500e-02 1.500e-02 1.500e-02 1.500e-02 1.500e-02 1.500e-02 1.500e-02 1.500e-02 1.500e-02 1.500e-02 1.501e-02 1.500e-02 5.545e-01 1.500e-02 1.500e-02 1.500e-02 1.500e-02 1.500e-02 1.500e-02 1.500e-02 1.500e-02 1.500e-02 1.500e-02 1.500e-02 1.501e-02 1.500e-02 3.095e-01 1.500e-02 1.500e-02 1.500e-02 1.500e-02 1.500e-02 1.500e-02 1.500e-02 1.500e-02 1.500e-02 1.500e-02 1.501e-02 1.500e-02 1.545e-01 1.500e-02 1.500e-02 1.500e-02 1.500e-02 1.501e-02 1.500e-02 1.501e-02 1.500e-02 5.264e-01 1.501e-02 1.500e-02 4.855e-01 1.503e-02 1.501e-02 4.691e-01 2.896e-01 1.500e-02 1.500e-02 2.117e+00 4.646e+01 2.318e+01 1.738e+01 1.300e+01 1.083e+01 9.279e+00 7.553e+00 6.712e+00 6.039e+00 5.079e+00 4.655e+00 3.948e+00 3.666e+00 3.421e+00 2.925e+00 2.752e+00 2.599e+00 2.224e+00 2.113e+00 1.797e+00 1.715e+00 1.640e+00 1.384e+00 1.328e+00 1.277e+00 1.062e+00 1.024e+00 8.331e-01 8.053e-01 6.336e-01 6.138e-01 4.583e-01 3.120e-01
           </DataArray>
           <DataArray type="Float32" Name="nitrate/rootSegmentMinimalNutrientContent" NumberOfComponents="1" format="ascii">
 1.945e-01 1.502e-01 1.406e-01 1.646e-01 1.230e-01 1.337e-01 1.443e-01 7.615e-02 1.945e-01 1.502e-01 1.406e-01 1.646e-01 1.230e-01 1.337e-01 1.443e-01 7.615e-02 1.945e-01 1.502e-01 1.406e-01 1.646e-01 1.230e-01 1.337e-01 1.443e-01 7.615e-02 1.945e-01 1.502e-01 1.406e-01 1.646e-01 1.230e-01 1.337e-01 1.443e-01 7.615e-02 9.025e-02 9.025e-02 9.025e-02 9.025e-02 7.745e+00 3.818e+00 4.416e+00 4.691e+00 4.653e+00 4.616e+00 4.582e+00 4.548e+00 4.216e+00 3.590e+00 5.354e+00 5.898e+00 3.253e-02 3.495e-02 1.164e-02 3.469e-02 3.543e-02 8.850e-03 3.158e-02 3.183e-02 9.542e-03 3.800e-02 1.715e-02 3.270e-02 3.248e-02 3.014e-02 3.124e-02 6.245e-03 3.127e-02 3.391e-02 6.778e-03 3.146e-02 3.211e-02 3.209e-03 3.483e-02 2.755e-02 3.141e-02 3.157e-02 3.563e-02 2.473e-02 3.332e-02 2.930e-02 7.322e-03 2.985e-02 3.204e-02 2.240e-02 3.923e-02 2.351e-02 3.426e-02 2.131e-02 3.211e-02 2.615e-02 3.126e-02 1.645e-02 3.549e-02 1.481e-02 3.151e-02 2.310e-02 3.274e-02 1.471e-02 3.137e-02 1.072e-02 3.442e-02 1.221e-02 3.302e-02 1.675e-02 3.328e-02 3.364e-02 2.017e-02 3.370e-02 8.845e-03 3.425e-02 5.705e-03 3.421e-02 5.909e-03 3.372e-02 6.045e-03 3.315e-02 2.826e-03 3.479e-02 3.077e-03 3.166e-02 6.408e-03 3.242e-02 6.857e-03 3.430e-02 2.744e-02 3.111e-02 3.286e-02 1.970e-02 3.312e-02 3.607e-03 2.884e-02 3.136e-02 2.975e-02 2.092e-02 2.487e-02 2.426e-02 2.185e-02 2.122e-02 1.616e-02 3.433e-02 3.108e-02 1.242e-02 2.104e-02 1.540e-02 1.713e-02 1.516e-02 1.219e-02 1.368e-02 8.972e-03 9.838e-03 7.972e-03 6.062e-03 3.303e-02 3.409e-02 2.839e-03 5.076e-03 3.841e-03 2.523e-03 1.265e-03 3.257e-02 2.713e-02 3.302e-02 3.379e-02 1.351e-02 3.436e-02 2.942e-02 2.205e-02 3.540e-02 2.973e-02 2.967e-02 1.976e-02 3.214e-02 8.573e-03 4.678e-01 2.288e-01 2.240e-01 2.195e-01 2.151e-01 2.110e-01 2.071e-01 2.033e-01 1.998e-01 1.965e-01 1.934e-01 1.907e-01 1.883e-01 1.862e-01 1.845e-01 1.830e-01 1.815e-01 1.802e-01 1.789e-01 1.777e-01 1.766e-01 1.756e-01 1.746e-01 1.737e-01 1.729e-01 1.722e-01 1.716e-01 1.710e-01 1.705e-01 1.701e-01 1.697e-01 1.695e-01 1.693e-01 1.692e-01
           </DataArray>
           <DataArray type="Float32" Name="nitrate/rootSegmentNutrientUptake" NumberOfComponents="1" format="ascii">
 0.000e+00 0.000e+00 3.087e-01 2.660e-01 1.400e-01 1.000e-01 5.152e-02 5.162e-03 0.000e+00 0.000e+00 3.087e-01 2.660e-01 1.400e-01 1.000e-01 5.151e-02 5.163e-03 0.000e+00 0.000e+00 3.095e-01 2.660e-01 1.400e-01 9.998e-02 5.151e-02 5.165e-03 0.000e+00 0.000e+00 3.090e-01 2.660e-01 1.400e-01 9.999e-02 5.151e-02 5.164e-03 0.000e+00 0.000e+00 0.000e+00 0.000e+00 4.618e+00 4.989e+00 2.748e+00 2.922e+00 2.879e+00 2.866e+00 2.823e+00 2.779e+00 2.561e+00 0.000e+00 0.000e+00 0.000e+00 0.000e+00 0.000e+00 9.443e-03 0.000e+00 0.000e+00 5.651e-03 0.000e+00 0.000e+00 6.215e-03 0.000e+00 0.000e+00 0.000e+00 0.000e+00 0.000e+00 0.000e+00 2.691e-03 0.000e+00 0.000e+00 2.890e-03 0.000e+00 0.000e+00 6.412e-04 0.000e+00 0.000e+00 0.000e+00 0.000e+00 0.000e+00 0.000e+00 0.000e+00 0.000e+00 3.051e-03 0.000e+00 0.000e+00 3.428e-02 0.000e+00 0.000e+00 0.000e+00 0.000e+00 0.000e+00 0.000e+00 0.000e+00 0.000e+00 0.000e+00 0.000e+00 0.000e+00 0.000e+00 0.000e+00 0.000e+00 0.000e+00 0.000e+00 0.000e+00 0.000e+00 0.000e+00 0.000e+00 0.000e+00 0.000e+00 2.643e-02 0.000e+00 0.000e+00 0.000e+00 0.000e+00 0.000e+00 0.000e+00 0.000e+00 0.000e+00 0.000e+00 0.000e+00 0.000e+00 0.000e+00 0.000e+00 0.000e+00 0.000e+00 0.000e+00 0.000e+00 0.000e+00 0.000e+00 0.000e+00 2.561e-02 0.000e+00 0.000e+00 0.000e+00 0.000e+00 0.000e+00 0.000e+00 0.000e+00 0.000e+00 0.000e+00 0.000e+00 0.000e+00 0.000e+00 0.000e+00 1.087e-02 0.000e+00 0.000e+00 0.000e+00 0.000e+00 0.000e+00 0.000e+00 0.000e+00 0.000e+00 0.000e+00 0.000e+00 0.000e+00 0.000e+00 5.934e-04 0.000e+00 0.000e+00 0.000e+00 0.000e+00 0.000e+00 0.000e+00 0.000e+00 0.000e+00 1.101e-02 0.000e+00 0.000e+00 2.874e-02 0.000e+00 0.000e+00 9.126e-02 1.686e-02 0.000e+00 0.000e+00 2.877e+00 1.231e+00 1.438e+00 1.418e+00 1.394e+00 1.364e+00 1.329e+00 1.290e+00 1.248e+00 1.204e+00 1.159e+00 1.112e+00 1.065e+00 1.016e+00 9.680e-01 9.191e-01 8.700e-01 8.207e-01 7.713e-01 7.216e-01 6.719e-01 6.218e-01 5.716e-01 5.214e-01 4.712e-01 4.210e-01 3.708e-01 3.207e-01 2.705e-01 2.203e-01 1.702e-01 1.200e-01 6.983e-02 1.994e-02
           </DataArray>
           <DataArray type="Float32" Name="nitrate/rootSegmentOptimalNutrientContent" NumberOfComponents="1" format="ascii">
 3.889e-01 3.003e-01 2.812e-01 3.291e-01 2.460e-01 2.673e-01 2.886e-01 1.523e-01 3.889e-01 3.003e-01 2.812e-01 3.291e-01 2.460e-01 2.673e-01 2.886e-01 1.523e-01 3.889e-01 3.003e-01 2.812e-01 3.291e-01 2.460e-01 2.673e-01 2.886e-01 1.523e-01 3.889e-01 3.003e-01 2.812e-01 3.291e-01 2.460e-01 2.673e-01 2.886e-01 1.523e-01 1.805e-01 1.805e-01 1.805e-01 1.805e-01 1.549e+01 7.636e+00 8.831e+00 9.382e+00 9.306e+00 9.233e+00 9.163e+00 9.097e+00 8.432e+00 7.181e+00 1.071e+01 1.180e+01 6.507e-02 6.989e-02 2.327e-02 6.938e-02 7.086e-02 1.770e-02 6.315e-02 6.366e-02 1.908e-02 7.600e-02 3.430e-02 6.540e-02 6.496e-02 6.028e-02 6.249e-02 1.249e-02 6.254e-02 6.782e-02 1.356e-02 6.291e-02 6.421e-02 6.418e-03 6.965e-02 5.510e-02 6.282e-02 6.314e-02 7.127e-02 4.946e-02 6.664e-02 5.860e-02 1.464e-02 5.969e-02 6.408e-02 4.481e-02 7.846e-02 4.703e-02 6.852e-02 4.262e-02 6.422e-02 5.229e-02 6.252e-02 3.290e-02 7.097e-02 2.962e-02 6.303e-02 4.619e-02 6.548e-02 2.942e-02 6.274e-02 2.144e-02 6.883e-02 2.441e-02 6.603e-02 3.351e-02 6.656e-02 6.728e-02 4.033e-02 6.740e-02 1.769e-02 6.850e-02 1.141e-02 6.843e-02 1.182e-02 6.743e-02 1.209e-02 6.630e-02 5.651e-03 6.958e-02 6.154e-03 6.332e-02 1.282e-02 6.484e-02 1.371e-02 6.859e-02 5.488e-02 6.221e-02 6.571e-02 3.939e-02 6.623e-02 7.213e-03 5.768e-02 6.271e-02 5.950e-02 4.184e-02 4.973e-02 4.853e-02 4.370e-02 4.243e-02 3.232e-02 6.867e-02 6.216e-02 2.484e-02 4.209e-02 3.080e-02 3.427e-02 3.033e-02 2.437e-02 2.736e-02 1.794e-02 1.968e-02 1.594e-02 1.212e-02 6.605e-02 6.819e-02 5.678e-03 1.015e-02 7.681e-03 5.047e-03 2.530e-03 6.515e-02 5.427e-02 6.603e-02 6.759e-02 2.701e-02 6.872e-02 5.883e-02 4.410e-02 7.080e-02 5.946e-02 5.935e-02 3.952e-02 6.428e-02 1.715e-02 9.357e-01 4.576e-01 4.481e-01 4.389e-01 4.302e-01 4.220e-01 4.141e-01 4.067e-01 3.996e-01 3.929e-01 3.868e-01 3.814e-01 3.766e-01 3.725e-01 3.690e-01 3.660e-01 3.631e-01 3.604e-01 3.578e-01 3.554e-01 3.532e-01 3.511e-01 3.492e-01 3.474e-01 3.458e-01 3.444e-01 3.431e-01 3.420e-01 3.410e-01 3.402e-01 3.395e-01 3.390e-01 3.386e-01 3.384e-01
           </DataArray>
           <DataArray type="Float32" Name="parentRootClassID" NumberOfComponents="1" format="ascii">
 -2.000e+00 -2.000e+00 -2.000e+00 -2.000e+00 -2.000e+00 -2.000e+00 -2.000e+00 -2.000e+00 -2.000e+00 -2.000e+00 -2.000e+00 -2.000e+00 -2.000e+00 -2.000e+00 -2.000e+00 -2.000e+00 -2.000e+00 -2.000e+00 -2.000e+00 -2.000e+00 -2.000e+00 -2.000e+00 -2.000e+00 -2.000e+00 -2.000e+00 -2.000e+00 -2.000e+00 -2.000e+00 -2.000e+00 -2.000e+00 -2.000e+00 -2.000e+00 -2.000e+00 -2.000e+00 -2.000e+00 -2.000e+00 -3.000e+00 -3.000e+00 -3.000e+00 -3.000e+00 -3.000e+00 -3.000e+00 -3.000e+00 -3.000e+00 -3.000e+00 -3.000e+00 -3.000e+00 -3.000e+00 -4.000e+00 -4.000e+00 -4.000e+00 -4.000e+00 -4.000e+00 -4.000e+00 -4.000e+00 -4.000e+00 -4.000e+00 -4.000e+00 -4.000e+00 -4.000e+00 -4.000e+00 -4.000e+00 -4.000e+00 -4.000e+00 -4.000e+00 -4.000e+00 -4.000e+00 -4.000e+00 -4.000e+00 -4.000e+00 -4.000e+00 -4.000e+00 -4.000e+00 -4.000e+00 -4.000e+00 -4.000e+00 -4.000e+00 -4.000e+00 -4.000e+00 -4.000e+00 -4.000e+00 -4.000e+00 -4.000e+00 -4.000e+00 -4.000e+00 -4.000e+00 -4.000e+00 -4.000e+00 -4.000e+00 -4.000e+00 -4.000e+00 -4.000e+00 -4.000e+00 -4.000e+00 -4.000e+00 -4.000e+00 -4.000e+00 -4.000e+00 -4.000e+00 -4.000e+00 -4.000e+00 -4.000e+00 -4.000e+00 -4.000e+00 -4.000e+00 -4.000e+00 -4.000e+00 -4.000e+00 -4.000e+00 -4.000e+00 -4.000e+00 -4.000e+00 -4.000e+00 -4.000e+00 -4.000e+00 -4.000e+00 -4.000e+00 -4.000e+00 -4.000e+00 -4.000e+00 -4.000e+00 -4.000e+00 -4.000e+00 -4.000e+00 -4.000e+00 -4.000e+00 -4.000e+00 -4.000e+00 -4.000e+00 -4.000e+00 -4.000e+00 -4.000e+00 -4.000e+00 -4.000e+00 -4.000e+00 -4.000e+00 -4.000e+00 -4.000e+00 -4.000e+00 -4.000e+00 -4.000e+00 -4.000e+00 -4.000e+00 -4.000e+00 -4.000e+00 -4.000e+00 -4.000e+00 -4.000e+00 -4.000e+00 -4.000e+00 -4.000e+00 -4.000e+00 -4.000e+00 -4.000e+00 -4.000e+00 -4.000e+00 -4.000e+00 -4.000e+00 -4.000e+00 -4.000e+00 -4.000e+00 -4.000e+00 -4.000e+00 -4.000e+00 -4.000e+00 -4.000e+00 -4.000e+00 -4.000e+00 -4.000e+00 -4.000e+00 -4.000e+00 -3.000e+00 -3.000e+00 -3.000e+00 -3.000e+00 -3.000e+00 -3.000e+00 -3.000e+00 -3.000e+00 -3.000e+00 -3.000e+00 -3.000e+00 -3.000e+00 -3.000e+00 -3.000e+00 -3.000e+00 -3.000e+00 -3.000e+00 -3.000e+00 -3.000e+00 -3.000e+00 -3.000e+00 -3.000e+00 -3.000e+00 -3.000e+00 -3.000e+00 -3.000e+00 -3.000e+00 -3.000e+00 -3.000e+00 -3.000e+00 -3.000e+00 -3.000e+00 -3.000e+00 -3.000e+00
           </DataArray>
           <DataArray type="Float32" Name="plantID" NumberOfComponents="1" format="ascii">