<?xml version="1.0"?>
<VTKFile type="UnstructuredGrid" version="0.1" byte_order="LittleEndian">
   <UnstructuredGrid>
      <Piece NumberOfPoints="1590" NumberOfCells="111">
         <Points>
            <DataArray type="Float32" Name="Position" NumberOfComponents="3" format="ascii">
0.019	-4.981	-0.027
0.018	-4.965	-0.014
0.011	-4.958	0.005
-0.000	-4.963	0.021
-0.011	-4.979	0.030
-0.018	-4.999	0.027
-0.017	-5.015	0.014
-0.010	-5.022	-0.004
0.001	-5.017	-0.021
0.012	-5.001	-0.030
0.799	-5.300	0.398
0.800	-5.284	0.412
0.793	-5.278	0.431
0.782	-5.283	0.448
0.769	-5.298	0.456
0.761	-5.317	0.452
0.760	-5.333	0.439
0.767	-5.340	0.420
0.778	-5.334	0.403
0.791	-5.319	0.395
1.367	-5.663	0.686
1.370	-5.649	0.701
1.365	-5.642	0.720
1.353	-5.647	0.737
1.339	-5.661	0.745
1.329	-5.679	0.740
1.326	-5.694	0.726
1.331	-5.700	0.706
1.343	-5.695	0.690
1.357	-5.681	0.682
1.873	-6.051	0.942
1.876	-6.037	0.957
1.871	-6.031	0.976
1.859	-6.035	0.993
1.845	-6.049	1.000
1.834	-6.066	0.996
1.831	-6.081	0.981
1.836	-6.087	0.962
1.848	-6.082	0.945
1.862	-6.068	0.937
-0.011	-4.962	-0.016
0.008	-4.958	-0.007
0.024	-4.965	0.004
0.030	-4.982	0.014
0.026	-5.002	0.019
0.012	-5.018	0.017
-0.007	-5.022	0.008
-0.023	-5.015	-0.004
-0.029	-4.998	-0.014
-0.025	-4.978	-0.019
0.431	-5.245	-0.798
0.450	-5.242	-0.790
0.465	-5.250	-0.777
0.471	-5.267	-0.766
0.464	-5.286	-0.759
0.448	-5.300	-0.761
0.429	-5.303	-0.769
0.415	-5.295	-0.781
0.409	-5.278	-0.793
0.416	-5.259	-0.799
0.723	-5.629	-1.356
0.742	-5.627	-1.348
0.756	-5.636	-1.334
0.759	-5.652	-1.321
0.750	-5.669	-1.313
0.732	-5.681	-1.314
0.713	-5.683	-1.322
0.700	-5.674	-1.335
0.697	-5.658	-1.348
0.706	-5.641	-1.356
0.979	-6.014	-1.863
0.998	-6.013	-1.855
1.011	-6.022	-1.841
1.014	-6.038	-1.828
1.004	-6.055	-1.820
0.987	-6.066	-1.820
0.968	-6.068	-1.828
0.954	-6.059	-1.842
0.952	-6.043	-1.855
0.961	-6.026	-1.864
-0.006	-5.010	0.027
-0.014	-4.991	0.031
-0.016	-4.972	0.024
-0.012	-4.959	0.007
-0.003	-4.959	-0.012
0.007	-4.970	-0.026
0.015	-4.989	-0.031
0.017	-5.008	-0.023
0.013	-5.021	-0.007
0.005	-5.022	0.012
-0.818	-5.268	-0.364
-0.829	-5.251	-0.357
-0.835	-5.232	-0.362
-0.835	-5.217	-0.377
-0.828	-5.213	-0.396
-0.817	-5.220	-0.413
-0.807	-5.237	-0.420
-0.800	-5.256	-0.415
-0.800	-5.271	-0.400
-0.807	-5.275	-0.381
-1.405	-5.617	-0.617
-1.417	-5.600	-0.616
-1.424	-5.583	-0.626
-1.423	-5.573	-0.644
-1.415	-5.573	-0.663
-1.402	-5.584	-0.676
-1.390	-5.601	-0.678
-1.383	-5.618	-0.668
-1.384	-5.628	-0.649
-1.393	-5.628	-0.630
-1.921	-6.003	-0.854
-1.933	-5.994	-0.839
-1.946	-5.977	-0.836
-1.955	-5.960	-0.844
-1.955	-5.949	-0.862
-1.948	-5.947	-0.882
-1.936	-5.956	-0.896
-1.923	-5.972	-0.899
-1.914	-5.990	-0.891
-1.914	-6.001	-0.873
0.023	-5.015	0.003
0.031	-4.998	0.012
0.028	-4.978	0.017
0.014	-4.963	0.016
-0.005	-4.957	0.008
-0.022	-4.965	-0.002
-0.030	-4.982	-0.012
-0.027	-5.002	-0.017
-0.013	-5.017	-0.015
0.006	-5.023	-0.007
-0.370	-5.278	0.814
-0.363	-5.261	0.825
-0.368	-5.242	0.832
-0.383	-5.227	0.832
-0.402	-5.222	0.824
-0.418	-5.229	0.813
-0.425	-5.245	0.802
-0.420	-5.265	0.795
-0.406	-5.280	0.795
-0.386	-5.285	0.802
-0.656	-5.644	1.373
-0.650	-5.629	1.387
-0.656	-5.612	1.397
-0.672	-5.598	1.399
-0.692	-5.594	1.393
-0.708	-5.600	1.381
-0.714	-5.615	1.367
-0.708	-5.633	1.358
-0.692	-5.646	1.355
-0.672	-5.651	1.361
-0.901	-6.049	1.912
-0.901	-6.030	1.921
-0.901	-6.009	1.918
-0.901	-5.994	1.903
-0.901	-5.991	1.883
-0.901	-6.001	1.864
-0.901	-6.019	1.854
-0.901	-6.040	1.858
-0.901	-6.055	1.872
-0.901	-6.058	1.893
-0.149	-4.999	0.148
-0.033	-5.000	0.207
0.095	-5.000	0.187
0.187	-5.001	0.096
0.208	-5.001	-0.032
0.149	-5.001	-0.148
0.033	-5.000	-0.207
-0.095	-5.000	-0.187
-0.187	-4.999	-0.096
-0.208	-4.999	0.032
-0.144	-4.039	0.145
-0.029	-4.039	0.203
0.097	-4.040	0.184
0.188	-4.040	0.093
0.209	-4.041	-0.034
0.151	-4.041	-0.148
0.037	-4.041	-0.207
-0.090	-4.040	-0.187
-0.181	-4.040	-0.096
-0.201	-4.039	0.030
-0.142	-3.559	0.143
-0.028	-3.560	0.201
0.099	-3.560	0.181
0.189	-3.560	0.091
0.209	-3.561	-0.035
0.152	-3.561	-0.149
0.038	-3.561	-0.207
-0.089	-3.560	-0.188
-0.179	-3.560	-0.098
-0.199	-3.560	0.029
-0.140	-3.000	0.142
-0.026	-3.000	0.200
0.100	-3.000	0.180
0.190	-3.000	0.090
0.209	-3.000	-0.036
0.152	-3.000	-0.149
0.038	-3.000	-0.207
-0.088	-3.000	-0.187
-0.178	-3.000	-0.097
-0.198	-3.000	0.029
-0.139	-2.401	0.144
-0.026	-2.401	0.201
0.099	-2.401	0.181
0.189	-2.400	0.091
0.208	-2.400	-0.034
0.151	-2.400	-0.147
0.037	-2.399	-0.205
-0.088	-2.400	-0.185
-0.178	-2.400	-0.095
-0.197	-2.400	0.031
-0.139	-1.801	0.145
-0.026	-1.801	0.203
0.099	-1.801	0.182
0.188	-1.801	0.093
0.208	-1.800	-0.032
0.150	-1.799	-0.145
0.037	-1.799	-0.202
-0.088	-1.799	-0.182
-0.177	-1.800	-0.092
-0.197	-1.800	0.033
-0.138	-1.201	0.148
-0.025	-1.201	0.205
0.099	-1.201	0.185
0.188	-1.200	0.096
0.208	-1.200	-0.029
0.150	-1.199	-0.141
0.037	-1.199	-0.198
-0.087	-1.199	-0.178
-0.176	-1.200	-0.089
-0.196	-1.201	0.036
-0.140	-0.601	0.150
-0.028	-0.601	0.207
0.097	-0.600	0.187
0.186	-0.600	0.097
0.205	-0.599	-0.027
0.147	-0.599	-0.139
0.035	-0.600	-0.196
-0.089	-0.600	-0.176
-0.178	-0.601	-0.087
-0.198	-0.601	0.038
-0.142	-0.001	0.150
-0.030	-0.000	0.206
0.094	-0.000	0.187
0.183	0.000	0.098
0.203	0.000	-0.027
0.145	0.000	-0.139
0.033	0.000	-0.196
-0.091	-0.000	-0.176
-0.180	-0.000	-0.087
-0.199	-0.001	0.038
-0.143	0.559	0.150
-0.031	0.560	0.207
0.093	0.560	0.187
0.182	0.561	0.098
0.201	0.561	-0.026
0.144	0.560	-0.138
0.032	0.560	-0.194
-0.092	0.560	-0.175
-0.180	0.559	-0.086
-0.200	0.559	0.038
-0.145	1.039	0.149
-0.034	1.040	0.206
0.090	1.040	0.186
0.179	1.041	0.097
0.198	1.041	-0.026
0.141	1.041	-0.138
0.029	1.040	-0.195
-0.095	1.039	-0.175
-0.183	1.039	-0.086
-0.203	1.039	0.038
-0.148	1.760	0.149
-0.036	1.760	0.206
0.087	1.760	0.186
0.176	1.760	0.098
0.195	1.760	-0.026
0.138	1.760	-0.137
0.027	1.760	-0.194
-0.096	1.759	-0.174
-0.185	1.759	-0.086
-0.204	1.759	0.038
-0.147	2.576	0.144
-0.037	2.577	0.200
0.085	2.577	0.181
0.172	2.577	0.094
0.192	2.576	-0.028
0.136	2.576	-0.139
0.026	2.575	-0.195
-0.096	2.575	-0.176
-0.184	2.575	-0.088
-0.203	2.576	0.034
0.015	-5.111	-0.001
0.018	-5.104	0.004
0.017	-5.095	0.006
0.010	-5.088	0.005
0.002	-5.086	0.002
-0.005	-5.089	-0.003
-0.008	-5.096	-0.008
-0.007	-5.105	-0.010
-0.001	-5.112	-0.009
0.008	-5.114	-0.006
-0.342	-5.357	0.672
-0.339	-5.350	0.678
-0.341	-5.342	0.680
-0.347	-5.335	0.679
-0.355	-5.332	0.675
-0.361	-5.335	0.669
-0.364	-5.342	0.663
-0.362	-5.350	0.660
-0.356	-5.357	0.662
-0.348	-5.360	0.666
-0.629	-5.544	0.945
-0.627	-5.537	0.951
-0.630	-5.529	0.954
-0.635	-5.522	0.953
-0.642	-5.519	0.948
-0.648	-5.521	0.940
-0.650	-5.527	0.934
-0.647	-5.535	0.931
-0.641	-5.542	0.932
-0.634	-5.546	0.937
-0.009	-5.193	-0.002
-0.005	-5.187	-0.006
0.003	-5.185	-0.012
0.010	-5.189	-0.015
0.015	-5.197	-0.016
0.015	-5.206	-0.013
0.010	-5.212	-0.008
0.003	-5.214	-0.003
-0.005	-5.210	0.000
-0.009	-5.202	0.001
-0.456	-5.407	-0.705
-0.450	-5.400	-0.709
-0.442	-5.399	-0.714
-0.435	-5.403	-0.717
-0.431	-5.411	-0.718
-0.431	-5.420	-0.717
-0.436	-5.426	-0.713
-0.444	-5.428	-0.708
-0.452	-5.424	-0.704
-0.456	-5.416	-0.703
-0.617	-5.415	-1.037
-0.611	-5.408	-1.040
-0.603	-5.406	-1.044
-0.595	-5.410	-1.047
-0.591	-5.419	-1.049
-0.592	-5.428	-1.048
-0.598	-5.434	-1.045
-0.606	-5.436	-1.041
-0.614	-5.432	-1.038
-0.618	-5.424	-1.036
-0.032	-6.110	0.013
-0.032	-6.104	0.019
-0.035	-6.095	0.021
-0.039	-6.088	0.018
-0.043	-6.084	0.010
-0.045	-6.086	0.001
-0.045	-6.092	-0.005
-0.042	-6.101	-0.007
-0.038	-6.108	-0.004
-0.034	-6.112	0.004
-0.734	-6.389	0.234
-0.733	-6.383	0.241
-0.736	-6.374	0.243
-0.741	-6.367	0.240
-0.746	-6.363	0.233
-0.749	-6.365	0.225
-0.750	-6.371	0.218
-0.747	-6.380	0.216
-0.743	-6.387	0.219
-0.738	-6.391	0.226
-0.908	-6.477	0.370
-0.906	-6.471	0.376
-0.909	-6.462	0.379
-0.914	-6.455	0.377
-0.920	-6.451	0.371
-0.925	-6.454	0.363
-0.927	-6.460	0.357
-0.924	-6.469	0.354
-0.919	-6.476	0.356
-0.913	-6.479	0.362
-0.030	-6.202	-0.001
-0.029	-6.193	0.000
-0.034	-6.186	0.005
-0.041	-6.183	0.010
-0.049	-6.187	0.014
-0.054	-6.194	0.015
-0.054	-6.204	0.013
-0.050	-6.211	0.009
-0.042	-6.213	0.004
-0.035	-6.209	-0.000
0.347	-6.323	0.615
0.347	-6.319	0.623
0.347	-6.321	0.632
0.347	-6.327	0.639
0.347	-6.336	0.640
0.347	-6.345	0.636
0.347	-6.349	0.628
0.347	-6.347	0.618
0.347	-6.341	0.612
0.347	-6.332	0.610
-0.047	-6.286	-0.002
-0.043	-6.283	0.005
-0.040	-6.286	0.013
-0.038	-6.293	0.019
-0.039	-6.302	0.020
-0.042	-6.310	0.016
-0.046	-6.313	0.008
-0.050	-6.310	-0.000
-0.051	-6.303	-0.006
-0.051	-6.294	-0.007
0.662	-6.388	-0.342
0.666	-6.385	-0.334
0.669	-6.388	-0.326
0.671	-6.395	-0.320
0.671	-6.404	-0.320
0.669	-6.412	-0.325
0.665	-6.415	-0.332
0.662	-6.412	-0.341
0.660	-6.405	-0.346
0.660	-6.396	-0.346
0.731	-6.384	-0.368
0.734	-6.381	-0.360
0.737	-6.384	-0.352
0.739	-6.391	-0.347
0.740	-6.401	-0.347
0.738	-6.408	-0.352
0.735	-6.411	-0.360
0.732	-6.409	-0.368
0.730	-6.401	-0.373
0.729	-6.392	-0.373
-0.041	-6.410	0.012
-0.040	-6.403	0.018
-0.041	-6.394	0.019
-0.046	-6.387	0.016
-0.051	-6.383	0.009
-0.055	-6.386	0.001
-0.056	-6.393	-0.005
-0.054	-6.402	-0.007
-0.050	-6.409	-0.003
-0.045	-6.413	0.004
-0.664	-6.592	0.378
-0.663	-6.585	0.384
-0.664	-6.576	0.386
-0.669	-6.568	0.383
-0.674	-6.565	0.376
-0.679	-6.568	0.368
-0.681	-6.575	0.363
-0.679	-6.584	0.361
-0.675	-6.591	0.364
-0.669	-6.594	0.371
-0.778	-6.630	0.478
-0.776	-6.623	0.483
-0.777	-6.614	0.485
-0.782	-6.607	0.482
-0.788	-6.604	0.476
-0.794	-6.606	0.469
-0.796	-6.613	0.464
-0.795	-6.622	0.462
-0.790	-6.630	0.465
-0.783	-6.633	0.471
-0.039	-6.503	0.001
-0.038	-6.494	0.005
-0.041	-6.487	0.010
-0.049	-6.484	0.014
-0.057	-6.487	0.017
-0.064	-6.493	0.016
-0.066	-6.502	0.013
-0.062	-6.509	0.008
-0.054	-6.512	0.003
-0.046	-6.509	0.001
0.236	-6.822	0.651
0.238	-6.813	0.653
0.234	-6.806	0.658
0.227	-6.803	0.662
0.218	-6.805	0.665
0.212	-6.812	0.665
0.210	-6.820	0.662
0.213	-6.828	0.657
0.221	-6.831	0.653
0.230	-6.828	0.650
0.294	-6.869	0.798
0.298	-6.869	0.806
0.296	-6.869	0.815
0.290	-6.869	0.822
0.281	-6.869	0.823
0.272	-6.869	0.819
0.268	-6.869	0.810
[...]
         <CellData>
           <DataArray type="Float32" Name="combinedRootClassID" NumberOfComponents="1" format="ascii">
 -5.000e+00 -5.000e+00 -5.000e+00 -5.000e+00 -5.000e+00 -5.000e+00 -5.000e+00 -5.000e+00 -5.000e+00 -5.000e+00 -5.000e+00 -5.000e+00 -2.000e+00 -2.000e+00 -2.000e+00 -2.000e+00 -2.000e+00 -2.000e+00 -2.000e+00 -2.000e+00 -2.000e+00 -2.000e+00 -2.000e+00 -2.000e+00 -7.000e+00 -7.000e+00 -7.000e+00 -7.000e+00 -7.000e+00 -7.000e+00 -7.000e+00 -7.000e+00 -7.000e+00 -7.000e+00 -7.000e+00 -7.000e+00 -7.000e+00 -7.000e+00 -7.000e+00 -7.000e+00 -7.000e+00 -7.000e+00 -7.000e+00 -7.000e+00 -7.000e+00 -7.000e+00 -7.000e+00 -7.000e+00 -7.000e+00 -7.000e+00 -7.000e+00 -7.000e+00 -7.000e+00 -7.000e+00 -7.000e+00 -7.000e+00 -7.000e+00 -7.000e+00 -7.000e+00 -7.000e+00 -7.000e+00 -7.000e+00 -7.000e+00 -7.000e+00 -7.000e+00 -7.000e+00 -7.000e+00 -7.000e+00 -7.000e+00 -7.000e+00 -7.000e+00 -7.000e+00 -7.000e+00 -7.000e+00 -7.000e+00 -7.000e+00 -7.000e+00 -7.000e+00 -7.000e+00 -7.000e+00 -9.000e+00 -9.000e+00 -4.000e+00 -4.000e+00 -4.000e+00 -4.000e+00 -4.000e+00 -4.000e+00 -4.000e+00 -4.000e+00 -4.000e+00 -4.000e+00 -4.000e+00 -4.000e+00 -4.000e+00 -4.000e+00 -4.000e+00 -4.000e+00 -4.000e+00 -4.000e+00 -4.000e+00 -4.000e+00 -4.000e+00 -4.000e+00 -4.000e+00 -4.000e+00 -4.000e+00 -4.000e+00 -4.000e+00 -4.000e+00 -4.000e+00
           </DataArray>
           <DataArray type="Float32" Name="nitrate/minimalNutrientConcentration" NumberOfComponents="1" format="ascii">
 6.000e+02 6.000e+02 6.000e+02 6.000e+02 6.000e+02 6.000e+02 6.000e+02 6.000e+02 6.000e+02 6.000e+02 6.000e+02 6.000e+02 6.000e+02 6.000e+02 6.000e+02 6.000e+02 6.000e+02 6.000e+02 6.000e+02 6.000e+02 6.000e+02 6.000e+02 6.000e+02 6.000e+02 6.000e+02 6.000e+02 6.000e+02 6.000e+02 6.000e+02 6.000e+02 6.000e+02 6.000e+02 6.000e+02 6.000e+02 6.000e+02 6.000e+02 6.000e+02 6.000e+02 6.000e+02 6.000e+02 6.000e+02 6.000e+02 6.000e+02 6.000e+02 6.000e+02 6.000e+02 6.000e+02 6.000e+02 6.000e+02 6.000e+02 6.000e+02 6.000e+02 6.000e+02 6.000e+02 6.000e+02 6.000e+02 6.000e+02 6.000e+02 6.000e+02 6.000e+02 6.000e+02 6.000e+02 6.000e+02 6.000e+02 6.000e+02 6.000e+02 6.000e+02 6.000e+02 6.000e+02 6.000e+02 6.000e+02 6.000e+02 6.000e+02 6.000e+02 6.000e+02 6.000e+02 6.000e+02 6.000e+02 6.000e+02 6.000e+02 6.000e+02 6.000e+02 6.000e+02 6.000e+02 6.000e+02 6.000e+02 6.000e+02 6.000e+02 6.000e+02 6.000e+02 6.000e+02 6.000e+02 6.000e+02 6.000e+02 6.000e+02 6.000e+02 6.000e+02 6.000e+02 6.000e+02 6.000e+02 6.000e+02 6.000e+02 6.000e+02 6.000e+02 6.000e+02 6.000e+02 6.000e+02 6.000e+02 6.000e+02 6.000e+02 6.000e+02
           </DataArray>
           <DataArray type="Float32" Name="nitrate/optimalNutrientConcentration" NumberOfComponents="1" format="ascii">
 1.200e+03 1.200e+03 1.200e+03 1.200e+03 1.200e+03 1.200e+03 1.200e+03 1.200e+03 1.200e+03 1.200e+03 1.200e+03 1.200e+03 1.200e+03 1.200e+03 1.200e+03 1.200e+03 1.200e+03 1.200e+03 1.200e+03 1.200e+03 1.200e+03 1.200e+03 1.200e+03 1.200e+03 1.200e+03 1.200e+03 1.200e+03 1.200e+03 1.200e+03 1.200e+03 1.200e+03 1.200e+03 1.200e+03 1.200e+03 1.200e+03 1.200e+03 1.200e+03 1.200e+03 1.200e+03 1.200e+03 1.200e+03 1.200e+03 1.200e+03 1.200e+03 1.200e+03 1.200e+03 1.200e+03 1.200e+03 1.200e+03 1.200e+03 1.200e+03 1.200e+03 1.200e+03 1.200e+03 1.200e+03 1.200e+03 1.200e+03 1.200e+03 1.200e+03 1.200e+03 1.200e+03 1.200e+03 1.200e+03 1.200e+03 1.200e+03 1.200e+03 1.200e+03 1.200e+03 1.200e+03 1.200e+03 1.200e+03 1.200e+03 1.200e+03 1.200e+03 1.200e+03 1.200e+03 1.200e+03 1.200e+03 1.200e+03 1.200e+03 1.200e+03 1.200e+03 1.200e+03 1.200e+03 1.200e+03 1.200e+03 1.200e+03 1.200e+03 1.200e+03 1.200e+03 1.200e+03 1.200e+03 1.200e+03 1.200e+03 1.200e+03 1.200e+03 1.200e+03 1.200e+03 1.200e+03 1.200e+03 1.200e+03 1.200e+03 1.200e+03 1.200e+03 1.200e+03 1.200e+03 1.200e+03 1.200e+03 1.200e+03 1.200e+03 1.200e+03
           </DataArray>
           <DataArray type="Float32" Name="nitrate/radiusDepletionZone" NumberOfComponents="1" format="ascii">
 3.400e-02 3.400e-02 4.433e-01 3.400e-02 3.400e-02 4.433e-01 3.400e-02 3.400e-02 4.340e-01 3.400e-02 3.400e-02 4.107e-01 2.532e+00 2.684e+00 1.703e+01 1.362e+01 1.135e+01 9.724e+00 8.023e+00 7.130e+00 6.416e+00 2.025e-01 2.022e-01 2.017e-01 1.501e-02 1.500e-02 1.501e-02 1.500e-02 1.500e-02 1.500e-02 1.500e-02 1.500e-02 1.500e-02 1.500e-02 1.500e-02 1.500e-02 1.500e-02 1.500e-02 1.500e-02 1.500e-02 1.500e-02 1.500e-02 1.500e-02 1.500e-02 1.500e-02 1.500e-02 1.500e-02 1.500e-02 1.500e-02 1.500e-02 1.500e-02 1.500e-02 1.500e-02 1.500e-02 1.500e-02 1.500e-02 1.500e-02 1.500e-02 1.500e-02 1.500e-02 1.500e-02 1.500e-02 1.500e-02 1.500e-02 1.500e-02 1.500e-02 1.500e-02 1.500e-02 1.500e-02 1.500e-02 1.500e-02 1.500e-02 1.500e-02 1.500e-02 1.500e-02 1.500e-02 1.500e-02 1.500e-02 1.500e-02 1.500e-02 1.501e-02 1.500e-02 1.986e+00 3.198e+01 1.855e+01 1.391e+01 1.035e+01 8.626e+00 6.839e+00 5.983e+00 5.318e+00 4.398e+00 3.998e+00 3.342e+00 3.084e+00 2.864e+00 2.415e+00 2.263e+00 1.902e+00 1.796e+00 1.498e+00 1.423e+00 1.355e+00 1.117e+00 1.069e+00 8.629e-01 8.283e-01 6.475e-01 6.235e-01 4.630e-01 3.135e-01
           </DataArray>
           <DataArray type="Float32" Name="nitrate/rootSegmentMinimalNutrientContent" NumberOfComponents="1" format="ascii">
 1.941e-01 1.502e-01 1.406e-01 1.941e-01 1.502e-01 1.406e-01 1.941e-01 1.502e-01 1.406e-01 1.941e-01 1.502e-01 1.406e-01 7.418e+00 3.665e+00 4.245e+00 4.517e+00 4.488e+00 4.462e+00 4.439e+00 4.419e+00 4.109e+00 3.510e+00 5.249e+00 5.850e+00 3.247e-02 1.746e-02 3.463e-02 1.475e-02 3.153e-02 9.542e-03 3.059e-02 3.266e-02 2.951e-03 3.010e-02 6.245e-03 3.123e-02 6.778e-03 3.141e-02 3.209e-03 3.172e-02 3.137e-02 2.941e-02 3.328e-02 2.979e-02 2.240e-02 2.911e-02 2.509e-02 2.554e-02 2.026e-02 2.064e-02 2.158e-02 1.800e-02 1.526e-02 1.608e-02 1.624e-02 3.322e-02 2.017e-02 1.303e-02 1.140e-02 1.055e-02 9.515e-03 7.697e-03 7.075e-03 6.009e-03 4.975e-03 3.192e-03 1.558e-03 3.105e-02 1.970e-02 6.427e-04 3.428e-02 1.242e-02 3.297e-02 8.518e-03 3.252e-02 2.466e-03 3.296e-02 1.351e-02 3.431e-02 1.470e-02 3.524e-02 2.965e-02 4.302e-01 2.071e-01 2.033e-01 1.998e-01 1.965e-01 1.934e-01 1.907e-01 1.883e-01 1.862e-01 1.845e-01 1.830e-01 1.815e-01 1.802e-01 1.789e-01 1.777e-01 1.766e-01 1.756e-01 1.746e-01 1.737e-01 1.729e-01 1.722e-01 1.716e-01 1.710e-01 1.705e-01 1.701e-01 1.697e-01 1.695e-01 1.693e-01 1.692e-01
           </DataArray>
           <DataArray type="Float32" Name="nitrate/rootSegmentNutrientUptake" NumberOfComponents="1" format="ascii">
 0.000e+00 0.000e+00 3.551e-02 0.000e+00 0.000e+00 3.551e-02 0.000e+00 0.000e+00 3.741e-02 0.000e+00 0.000e+00 3.590e-02 4.028e+00 4.197e+00 2.373e+00 2.509e+00 2.460e+00 2.424e+00 2.384e+00 2.324e+00 2.129e+00 0.000e+00 0.000e+00 0.000e+00 0.000e+00 0.000e+00 0.000e+00 0.000e+00 0.000e+00 0.000e+00 0.000e+00 0.000e+00 0.000e+00 0.000e+00 0.000e+00 0.000e+00 0.000e+00 0.000e+00 0.000e+00 0.000e+00 0.000e+00 0.000e+00 0.000e+00 0.000e+00 0.000e+00 0.000e+00 0.000e+00 0.000e+00 0.000e+00 0.000e+00 0.000e+00 0.000e+00 0.000e+00 0.000e+00 0.000e+00 0.000e+00 0.000e+00 0.000e+00 0.000e+00 0.000e+00 0.000e+00 0.000e+00 0.000e+00 0.000e+00 0.000e+00 0.000e+00 0.000e+00 0.000e+00 0.000e+00 0.000e+00 0.000e+00 0.000e+00 0.000e+00 0.000e+00 0.000e+00 0.000e+00 0.000e+00 0.000e+00 0.000e+00 0.000e+00 0.000e+00 0.000e+00 2.492e+00 1.062e+00 1.225e+00 1.199e+00 1.168e+00 1.133e+00 1.093e+00 1.051e+00 1.006e+00 9.604e-01 9.133e-01 8.655e-01 8.172e-01 7.684e-01 7.193e-01 6.701e-01 6.206e-01 5.709e-01 5.212e-01 4.713e-01 4.213e-01 3.712e-01 3.210e-01 2.708e-01 2.205e-01 1.703e-01 1.201e-01 6.988e-02 1.995e-02
           </DataArray>
           <DataArray type="Float32" Name="nitrate/rootSegmentOptimalNutrientContent" NumberOfComponents="1" format="ascii">
 3.882e-01 3.003e-01 2.812e-01 3.882e-01 3.003e-01 2.812e-01 3.882e-01 3.003e-01 2.812e-01 3.882e-01 3.003e-01 2.812e-01 1.484e+01 7.331e+00 8.490e+00 9.034e+00 8.976e+00 8.924e+00 8.878e+00 8.839e+00 8.218e+00 7.021e+00 1.050e+01 1.170e+01 6.495e-02 3.492e-02 6.925e-02 2.950e-02 6.306e-02 1.908e-02 6.119e-02 6.531e-02 5.903e-03 6.019e-02 1.249e-02 6.245e-02 1.356e-02 6.283e-02 6.418e-03 6.344e-02 6.274e-02 5.881e-02 6.656e-02 5.959e-02 4.481e-02 5.821e-02 5.018e-02 5.108e-02 4.052e-02 4.128e-02 4.317e-02 3.600e-02 3.052e-02 3.216e-02 3.247e-02 6.645e-02 4.033e-02 2.607e-02 2.280e-02 2.111e-02 1.903e-02 1.539e-02 1.415e-02 1.202e-02 9.949e-03 6.383e-03 3.117e-03 6.211e-02 3.939e-02 1.285e-03 6.855e-02 2.484e-02 6.595e-02 1.704e-02 6.504e-02 4.931e-03 6.593e-02 2.701e-02 6.861e-02 2.939e-02 7.048e-02 5.930e-02 8.605e-01 4.141e-01 4.067e-01 3.996e-01 3.929e-01 3.868e-01 3.814e-01 3.766e-01 3.725e-01 3.690e-01 3.660e-01 3.631e-01 3.604e-01 3.578e-01 3.554e-01 3.532e-01 3.511e-01 3.492e-01 3.474e-01 3.458e-01 3.444e-01 3.431e-01 3.420e-01 3.410e-01 3.402e-01 3.395e-01 3.390e-01 3.386e-01 3.384e-01
           </DataArray>
           <DataArray type="Float32" Name="parentRootClassID" NumberOfComponents="1" format="ascii">
 -2.000e+00 -2.000e+00 -2.000e+00 -2.000e+00 -2.000e+00 -2.000e+00 -2.000e+00 -2.000e+00 -2.000e+00 -2.000e+00 -2.000e+00 -2.000e+00 -3.000e+00 -3.000e+00 -3.000e+00 -3.000e+00 -3.000e+00 -3.000e+00 -3.000e+00 -3.000e+00 -3.000e+00 -3.000e+00 -3.000e+00 -3.000e+00 -4.000e+00 -4.000e+00 -4.000e+00 -4.000e+00 -4.000e+00 -4.000e+00 -4.000e+00 -4.000e+00 -4.000e+00 -4.000e+00 -4.000e+00 -4.000e+00 -4.000e+00 -4.000e+00 -4.000e+00 -4.000e+00 -4.000e+00 -4.000e+00 -4.000e+00 -4.000e+00 -4.000e+00 -4.000e+00 -4.000e+00 -4.000e+00 -4.000e+00 -4.000e+00 -4.000e+00 -4.000e+00 -4.000e+00 -4.000e+00 -4.000e+00 -4.000e+00 -4.000e+00 -4.000e+00 -4.000e+00 -4.000e+00 -4.000e+00 -4.000e+00 -4.000e+00 -4.000e+00 -4.000e+00 -4.000e+00 -4.000e+00 -4.000e+00 -4.000e+00 -4.000e+00 -4.000e+00 -4.000e+00 -4.000e+00 -4.000e+00 -4.000e+00 -4.000e+00 -4.000e+00 -4.000e+00 -4.000e+00 -4.000e+00 -4.000e+00 -4.000e+00 -3.000e+00 -3.000e+00 -3.000e+00 -3.000e+00 -3.000e+00 -3.000e+00 -3.000e+00 -3.000e+00 -3.000e+00 -3.000e+00 -3.000e+00 -3.000e+00 -3.000e+00 -3.000e+00 -3.000e+00 -3.000e+00 -3.000e+00 -3.000e+00 -3.000e+00 -3.000e+00 -3.000e+00 -3.000e+00 -3.000e+00 -3.000e+00 -3.000e+00 -3.000e+00 -3.000e+00 -3.000e+00 -3.000e+00
           </DataArray>
           <DataArray type="Float32" Name="plantID" NumberOfComponents="1" format="ascii">
 7.000e+00 7.000e+00 7.000e+00 7.000e+00 7.000e+00 7.000e+00 7.000e+00 7.000e+00 7.000e+00 7.000e+00 7.000e+00 7.000e+00 7.000e+00 7.000e+00 7.000e+00 7.000e+00 7.000e+00 7.000e+00 7.000e+00 7.000e+00 7.000e+00 7.000e+00 7.000e+00 7.000e+00 7.000e+00 7.000e+00 7.000e+00 7.000e+00 7.000e+00 7.000e+00 7.000e+00 7.000e+00 7.000e+00 7.000e+00 7.000e+00 7.000e+00 7.000e+00 7.000e+00 7.000e+00 7.000e+00 7.000e+00 7.000e+00 7.000e+00 7.000e+00 7.000e+00 7.000e+00 7.000e+00 7.000e+00 7.000e+00 7.000e+00 7.000e+00 7.000e+00 7.000e+00 7.000e+00 7.000e+00 7.000e+00 7.000e+00 7.000e+00 7.000e+00 7.000e+00 7.000e+00 7.000e+00 7.000e+00 7.000e+00 7.000e+00 7.000e+00 7.000e+00 7.000e+00 7.000e+00 7.000e+00 7.000e+00 7.000e+00 7.000e+00 7.000e+00 7.000e+00 7.000e+00 7.000e+00 7.000e+00 7.000e+00 7.000e+00 7.000e+00 7.000e+00 7.000e+00 7.000e+00 7.000e+00 7.000e+00 7.000e+00 7.000e+00 7.000e+00 7.000e+00 7.000e+00 7.000e+00 7.000e+00 7.000e+00 7.000e+00 7.000e+00 7.000e+00 7.000e+00 7.000e+00 7.000e+00 7.000e+00 7.000e+00 7.000e+00 7.000e+00 7.000e+00 7.000e+00 7.000e+00 7.000e+00 7.000e+00 7.000e+00 7.000e+00
           </DataArray>
           <DataArray type="Float32" Name="plantTypeID" NumberOfComponents="1" format="ascii">
 0.000e+00 0.000e+00 0.000e+00 0.000e+00 0.000e+00 0.000e+00 0.000e+00 0.000e+00 0.000e+00 0.000e+00 0.000e+00 0.000e+00 0.000e+00 0.000e+00 0.000e+00 0.000e+00 0.000e+00 0.000e+00 0.000e+00 0.000e+00 0.000e+00 0.000e+00 0.000e+00 0.000e+00 0.000e+00 0.000e+00 0.000e+00 0.000e+00 0.000e+00 0.000e+00 0.000e+00 0.000e+00 0.000e+00 0.000e+00 0.000e+00 0.000e+00 0.000e+00 0.000e+00 0.000e+00 0.000e+00 0.000e+00 0.000e+00 0.000e+00 0.000e+00 0.000e+00 0.000e+00 0.000e+00 0.000e+00 0.000e+00 0.000e+00 0.000e+00 0.000e+00 0.000e+00 0.000e+00 0.000e+00 0.000e+00 0.000e+00 0.000e+00 0.000e+00 0.000e+00 0.000e+00 0.000e+00 0.000e+00 0.000e+00 0.000e+00 0.000e+00 0.000e+00 0.000e+00 0.000e+00 0.000e+00 0.000e+00 0.000e+00 0.000e+00 0.000e+00 0.000e+00 0.000e+00 0.000e+00 0.000e+00 0.000e+00 0.000e+00 0.000e+00 0.000e+00 0.000e+00 0.000e+00 0.000e+00 0.000e+00 0.000e+00 0.000e+00 0.000e+00 0.000e+00 0.000e+00 0.000e+00 0.000e+00 0.000e+00 0.000e+00 0.000e+00 0.000e+00 0.000e+00 0.000e+00 0.000e+00 0.000e+00 0.000e+00 0.000e+00 0.000e+00 0.000e+00 0.000e+00 0.000e+00 0.000e+00 0.000e+00 0.000e+00 0.000e+00
           </DataArray>
           <DataArray type="Float32" Name="rootCircumference" NumberOfComponents="1" format="ascii">
 2.136e-01 2.136e-01 2.136e-01 2.136e-01 2.136e-01 2.136e-01 2.136e-01 2.136e-01 2.136e-01 2.136e-01 2.136e-01 2.136e-01 1.320e+00 1.304e+00 1.300e+00 1.295e+00 1.291e+00 1.287e+00 1.284e+00 1.281e+00 1.279e+00 1.276e+00 1.274e+00 1.271e+00 9.431e-02 9.425e-02 9.430e-02 9.425e-02 9.428e-02 9.425e-02 9.428e-02 9.428e-02 9.425e-02 9.427e-02 9.425e-02 9.427e-02 9.425e-02 9.427e-02 9.425e-02 9.427e-02 9.427e-02 9.427e-02 9.426e-02 9.430e-02 9.426e-02 9.426e-02 9.426e-02 9.426e-02 9.426e-02 9.426e-02 9.426e-02 9.426e-02 9.425e-02 9.425e-02 9.425e-02 9.430e-02 9.425e-02 9.425e-02 9.425e-02 9.425e-02 9.425e-02 9.425e-02 9.425e-02 9.425e-02 9.425e-02 9.425e-02 9.425e-02 9.429e-02 9.425e-02 9.425e-02 9.429e-02 9.425e-02 9.429e-02 9.425e-02 9.429e-02 9.425e-02 9.428e-02 9.425e-02 9.428e-02 9.425e-02 9.435e-02 9.427e-02 3.189e-01 3.128e-01 3.100e-01 3.073e-01 3.047e-01 3.023e-01 3.002e-01 2.983e-01 2.967e-01 2.953e-01 2.941e-01 2.929e-01 2.918e-01 2.908e-01 2.898e-01 2.889e-01 2.881e-01 2.873e-01 2.865e-01 2.859e-01 2.853e-01 2.848e-01 2.843e-01 2.839e-01 2.835e-01 2.832e-01 2.830e-01 2.829e-01 2.828e-01
           </DataArray>
           <DataArray type="Float32" Name="rootClassID" NumberOfComponents="1" format="ascii">
 9.900e+01 9.900e+01 9.900e+01 9.900e+01 9.900e+01 9.900e+01 9.900e+01 9.900e+01 9.900e+01 9.900e+01 9.900e+01 9.900e+01 -2.000e+00 -2.000e+00 -2.000e+00 -2.000e+00 -2.000e+00 -2.000e+00 -2.000e+00 -2.000e+00 -2.000e+00 -2.000e+00 -2.000e+00 -2.000e+00 9.700e+01 9.700e+01 9.700e+01 9.700e+01 9.700e+01 9.700e+01 9.700e+01 9.700e+01 9.700e+01 9.700e+01 9.700e+01 9.700e+01 9.700e+01 9.700e+01 9.700e+01 9.700e+01 9.700e+01 9.700e+01 9.700e+01 9.700e+01 9.700e+01 9.700e+01 9.700e+01 9.700e+01 9.700e+01 9.700e+01 9.700e+01 9.700e+01 9.700e+01 9.700e+01 9.700e+01 9.700e+01 9.700e+01 9.700e+01 9.700e+01 9.700e+01 9.700e+01 9.700e+01 9.700e+01 9.700e+01 9.700e+01 9.700e+01 9.700e+01 9.700e+01 9.700e+01 9.700e+01 9.700e+01 9.700e+01 9.700e+01 9.700e+01 9.700e+01 9.700e+01 9.700e+01 9.700e+01 9.700e+01 9.700e+01 9.700e+01 9.700e+01 -4.000e+00 -4.000e+00 -4.000e+00 -4.000e+00 -4.000e+00 -4.000e+00 -4.000e+00 -4.000e+00 -4.000e+00 -4.000e+00 -4.000e+00 -4.000e+00 -4.000e+00 -4.000e+00 -4.000e+00 -4.000e+00 -4.000e+00 -4.000e+00 -4.000e+00 -4.000e+00 -4.000e+00 -4.000e+00 -4.000e+00 -4.000e+00 -4.000e+00 -4.000e+00 -4.000e+00 -4.000e+00 -4.000e+00
           </DataArray>
           <DataArray type="Float32" Name="rootDiameter" NumberOfComponents="1" format="ascii">
 6.800e-02 6.800e-02 6.800e-02 6.800e-02 6.800e-02 6.800e-02 6.800e-02 6.800e-02 6.800e-02 6.800e-02 6.800e-02 6.800e-02 4.201e-01 4.152e-01 4.137e-01 4.123e-01 4.109e-01 4.097e-01 4.087e-01 4.078e-01 4.070e-01 4.063e-01 4.057e-01 4.045e-01 3.002e-02 3.000e-02 3.002e-02 3.000e-02 3.001e-02 3.000e-02 3.001e-02 3.001e-02 3.000e-02 3.001e-02 3.000e-02 3.001e-02 3.000e-02 3.001e-02 3.000e-02 3.001e-02 3.001e-02 3.001e-02 3.001e-02 3.002e-02 3.000e-02 3.000e-02 3.000e-02 3.000e-02 3.000e-02 3.000e-02 3.000e-02 3.000e-02 3.000e-02 3.000e-02 3.000e-02 3.002e-02 3.000e-02 3.000e-02 3.000e-02 3.000e-02 3.000e-02 3.000e-02 3.000e-02 3.000e-02 3.000e-02 3.000e-02 3.000e-02 3.001e-02 3.000e-02 3.000e-02 3.001e-02 3.000e-02 3.001e-02 3.000e-02 3.001e-02 3.000e-02 3.001e-02 3.000e-02 3.001e-02 3.000e-02 3.003e-02 3.001e-02 1.015e-01 9.958e-02 9.868e-02 9.782e-02 9.700e-02 9.624e-02 9.556e-02 9.496e-02 9.444e-02 9.400e-02 9.361e-02 9.324e-02 9.289e-02 9.256e-02 9.225e-02 9.196e-02 9.169e-02 9.144e-02 9.121e-02 9.100e-02 9.081e-02 9.064e-02 9.049e-02 9.036e-02 9.025e-02 9.016e-02 9.009e-02 9.004e-02 9.001e-02
           </DataArray>
           <DataArray type="Float32" Name="rootLength2Base" NumberOfComponents="1" format="ascii">
 0.000e+00 9.477e-01 1.681e+00 0.000e+00 9.477e-01 1.681e+00 0.000e+00 9.477e-01 1.681e+00 0.000e+00 9.477e-01 1.681e+00 0.000e+00 9.600e-01 1.440e+00 2.000e+00 2.600e+00 3.200e+00 3.800e+00 4.400e+00 5.000e+00 5.560e+00 6.040e+00 6.760e+00 0.000e+00 8.136e-01 0.000e+00 8.675e-01 0.000e+00 7.903e-01 0.000e+00 0.000e+00 8.186e-01 0.000e+00 7.545e-01 0.000e+00 7.828e-01 0.000e+00 7.876e-01 0.000e+00 0.000e+00 0.000e+00 0.000e+00 0.000e+00 7.465e-01 0.000e+00 0.000e+00 0.000e+00 0.000e+00 0.000e+00 0.000e+00 0.000e+00 0.000e+00 0.000e+00 0.000e+00 0.000e+00 8.325e-01 0.000e+00 0.000e+00 0.000e+00 0.000e+00 0.000e+00 0.000e+00 0.000e+00 0.000e+00 0.000e+00 0.000e+00 0.000e+00 7.782e-01 0.000e+00 0.000e+00 8.589e-01 0.000e+00 8.263e-01 0.000e+00 8.151e-01 0.000e+00 8.262e-01 0.000e+00 8.599e-01 0.000e+00 8.820e-01 0.000e+00 9.428e-01 1.414e+00 1.886e+00 2.357e+00 2.828e+00 3.300e+00 3.771e+00 4.243e+00 4.714e+00 5.185e+00 5.657e+00 6.128e+00 6.600e+00 7.071e+00 7.542e+00 8.014e+00 8.485e+00 8.957e+00 9.428e+00 9.899e+00 1.037e+01 1.084e+01 1.131e+01 1.179e+01 1.226e+01 1.273e+01 1.320e+01 1.367e+01
           </DataArray>
           <DataArray type="Float32" Name="rootPotentialSecondaryGrowth" NumberOfComponents="1" format="ascii">
 6.800e-02 6.800e-02 6.800e-02 6.800e-02 6.800e-02 6.800e-02 6.800e-02 6.800e-02 6.800e-02 6.800e-02 6.800e-02 6.800e-02 4.201e-01 4.152e-01 4.137e-01 4.123e-01 4.109e-01 4.097e-01 4.087e-01 4.078e-01 4.070e-01 4.063e-01 4.057e-01 4.045e-01 3.002e-02 3.000e-02 3.002e-02 3.000e-02 3.001e-02 3.000e-02 3.001e-02 3.001e-02 3.000e-02 3.001e-02 3.000e-02 3.001e-02 3.000e-02 3.001e-02 3.000e-02 3.001e-02 3.001e-02 3.001e-02 3.001e-02 3.002e-02 3.000e-02 3.000e-02 3.000e-02 3.000e-02 3.000e-02 3.000e-02 3.000e-02 3.000e-02 3.000e-02 3.000e-02 3.000e-02 3.002e-02 3.000e-02 3.000e-02 3.000e-02 3.000e-02 3.000e-02 3.000e-02 3.000e-02 3.000e-02 3.000e-02 3.000e-02 3.000e-02 3.001e-02 3.000e-02 3.000e-02 3.001e-02 3.000e-02 3.001e-02 3.000e-02 3.001e-02 3.000e-02 3.001e-02 3.000e-02 3.001e-02 3.000e-02 3.003e-02 3.001e-02 1.015e-01 9.958e-02 9.868e-02 9.782e-02 9.700e-02 9.624e-02 9.556e-02 9.496e-02 9.444e-02 9.400e-02 9.361e-02 9.324e-02 9.289e-02 9.256e-02 9.225e-02 9.196e-02 9.169e-02 9.144e-02 9.121e-02 9.100e-02 9.081e-02 9.064e-02 9.049e-02 9.036e-02 9.025e-02 9.016e-02 9.009e-02 9.004e-02 9.001e-02
           </DataArray>
           <DataArray type="Float32" Name="rootSegmentAge" NumberOfComponents="1" format="ascii">