<?xml version="1.0"?>
<VTKFile type="UnstructuredGrid" version="0.1" byte_order="LittleEndian">
   <UnstructuredGrid>
      <Piece NumberOfPoints="44970" NumberOfCells="3218">
         <Points>
            <DataArray type="Float32" Name="Position" NumberOfComponents="3" format="ascii">
0.118	-5.061	0.060
0.116	-5.053	0.064
0.111	-5.049	0.071
0.106	-5.050	0.078
0.101	-5.056	0.083
0.099	-5.065	0.083
0.101	-5.074	0.080
0.105	-5.078	0.073
0.111	-5.077	0.066
0.116	-5.070	0.061
0.788	-5.158	0.599
0.786	-5.150	0.603
0.781	-5.147	0.610
0.776	-5.149	0.618
0.772	-5.156	0.622
0.771	-5.165	0.623
0.773	-5.173	0.618
0.777	-5.176	0.611
0.783	-5.174	0.603
0.787	-5.167	0.599
1.553	-5.232	1.023
1.551	-5.225	1.028
1.547	-5.222	1.036
1.542	-5.224	1.043
1.539	-5.232	1.047
1.538	-5.241	1.047
1.540	-5.248	1.042
1.544	-5.252	1.034
1.549	-5.249	1.027
1.552	-5.241	1.022
2.286	-5.355	1.489
2.284	-5.347	1.493
2.280	-5.343	1.500
2.274	-5.344	1.507
2.269	-5.350	1.512
2.267	-5.359	1.512
2.268	-5.367	1.508
2.273	-5.372	1.501
2.279	-5.370	1.494
2.284	-5.364	1.489
2.731	-5.485	1.915
2.730	-5.477	1.918
2.725	-5.472	1.925
2.719	-5.472	1.931
2.713	-5.477	1.936
2.710	-5.486	1.936
2.711	-5.495	1.933
2.715	-5.500	1.927
2.722	-5.499	1.920
2.727	-5.494	1.916
0.193	-5.154	0.126
0.199	-5.151	0.133
0.205	-5.154	0.139
0.208	-5.162	0.144
0.207	-5.171	0.144
0.203	-5.178	0.140
0.197	-5.181	0.134
0.192	-5.178	0.127
0.189	-5.171	0.123
0.189	-5.162	0.122
0.851	-5.216	-0.454
0.857	-5.213	-0.447
0.862	-5.216	-0.439
0.865	-5.224	-0.435
0.864	-5.233	-0.434
0.860	-5.241	-0.438
0.855	-5.243	-0.445
0.850	-5.241	-0.453
0.847	-5.233	-0.457
0.848	-5.224	-0.458
1.598	-5.285	-0.902
1.602	-5.282	-0.894
1.606	-5.285	-0.886
1.607	-5.292	-0.881
1.606	-5.301	-0.880
1.603	-5.309	-0.884
1.599	-5.312	-0.891
1.595	-5.309	-0.899
1.594	-5.302	-0.905
1.595	-5.293	-0.906
2.401	-5.483	-1.212
2.405	-5.480	-1.204
2.408	-5.482	-1.196
2.408	-5.488	-1.189
2.406	-5.497	-1.188
2.402	-5.505	-1.191
2.398	-5.508	-1.199
2.395	-5.506	-1.207
2.395	-5.499	-1.214
2.397	-5.491	-1.215
3.034	-5.753	-1.485
3.039	-5.750	-1.478
3.042	-5.752	-1.469
3.042	-5.758	-1.463
3.039	-5.767	-1.461
3.034	-5.774	-1.464
3.030	-5.777	-1.471
3.027	-5.775	-1.480
3.027	-5.769	-1.486
3.030	-5.760	-1.488
0.759	-6.295	0.578
0.766	-6.300	0.581
0.769	-6.306	0.588
0.766	-6.311	0.596
0.759	-6.312	0.601
0.750	-6.310	0.602
0.743	-6.305	0.599
0.740	-6.299	0.593
0.743	-6.295	0.585
0.750	-6.293	0.580
0.525	-6.972	0.073
0.532	-6.977	0.077
0.534	-6.982	0.085
0.530	-6.986	0.092
0.522	-6.987	0.097
0.513	-6.984	0.098
0.507	-6.979	0.094
0.505	-6.973	0.086
0.509	-6.969	0.079
0.517	-6.969	0.074
0.278	-7.683	-0.357
0.282	-7.686	-0.350
0.282	-7.688	-0.341
0.276	-7.689	-0.334
0.267	-7.688	-0.331
0.258	-7.686	-0.335
0.253	-7.684	-0.342
0.254	-7.682	-0.351
0.260	-7.681	-0.358
0.269	-7.682	-0.361
0.332	-8.513	-0.307
0.337	-8.511	-0.299
0.336	-8.510	-0.290
0.330	-8.512	-0.283
0.322	-8.515	-0.280
0.314	-8.518	-0.284
0.309	-8.520	-0.291
0.310	-8.520	-0.301
0.315	-8.518	-0.308
0.324	-8.516	-0.310
0.591	-8.902	-0.293
0.595	-8.898	-0.285
0.595	-8.898	-0.276
0.591	-8.901	-0.269
0.583	-8.906	-0.266
0.576	-8.911	-0.269
0.572	-8.914	-0.276
0.572	-8.914	-0.285
0.576	-8.911	-0.293
0.584	-8.906	-0.296
2.036	-19.606	1.607
2.038	-19.601	1.615
2.038	-19.601	1.624
2.036	-19.607	1.631
2.034	-19.616	1.634
2.032	-19.624	1.630
2.031	-19.629	1.622
2.031	-19.629	1.613
2.032	-19.623	1.606
2.034	-19.614	1.604
2.739	-19.786	1.604
2.743	-19.778	1.604
2.742	-19.768	1.604
2.735	-19.762	1.604
2.726	-19.760	1.604
2.718	-19.765	1.604
2.713	-19.773	1.604
2.715	-19.782	1.604
2.721	-19.789	1.604
2.731	-19.790	1.604
2.040	-19.757	1.601
2.040	-19.751	1.608
2.038	-19.751	1.617
2.036	-19.756	1.625
2.034	-19.764	1.627
2.033	-19.773	1.625
2.033	-19.779	1.617
2.035	-19.779	1.608
2.037	-19.774	1.601
2.039	-19.765	1.598
2.886	-19.896	1.771
2.887	-19.890	1.778
2.887	-19.891	1.788
2.885	-19.896	1.795
2.882	-19.905	1.797
2.880	-19.913	1.794
2.879	-19.918	1.787
2.880	-19.918	1.777
2.881	-19.912	1.770
2.884	-19.904	1.768
3.042	-19.960	1.752
3.044	-19.956	1.760
3.045	-19.957	1.769
3.044	-19.962	1.777
3.040	-19.971	1.779
3.037	-19.978	1.776
3.034	-19.983	1.768
3.033	-19.982	1.759
3.035	-19.976	1.752
3.038	-19.968	1.749
2.050	-19.925	1.606
2.053	-19.917	1.610
2.051	-19.909	1.614
2.044	-19.903	1.614
2.035	-19.901	1.612
2.027	-19.905	1.608
2.024	-19.912	1.603
2.026	-19.920	1.600
2.033	-19.927	1.599
2.042	-19.928	1.601
1.799	-20.295	2.355
1.802	-20.288	2.360
1.800	-20.280	2.363
1.793	-20.273	2.364
1.784	-20.272	2.362
1.777	-20.275	2.357
1.774	-20.282	2.352
1.776	-20.291	2.349
1.783	-20.297	2.348
1.792	-20.298	2.350
1.757	-20.342	2.446
1.757	-20.333	2.451
1.757	-20.324	2.449
1.757	-20.318	2.443
1.757	-20.316	2.433
1.757	-20.320	2.425
1.757	-20.329	2.421
1.757	-20.338	2.422
1.757	-20.344	2.429
1.757	-20.346	2.438
2.027	-20.054	1.601
2.034	-20.051	1.597
2.043	-20.053	1.595
2.049	-20.059	1.595
2.051	-20.068	1.598
2.047	-20.075	1.602
2.040	-20.079	1.606
2.031	-20.077	1.608
2.024	-20.070	1.608
2.023	-20.061	1.605
1.756	-20.344	0.836
1.762	-20.340	0.831
1.771	-20.341	0.827
1.778	-20.346	0.826
1.781	-20.355	0.828
1.779	-20.363	0.832
1.773	-20.367	0.837
1.764	-20.366	0.841
1.757	-20.361	0.842
1.754	-20.352	0.840
1.681	-20.394	0.735
1.685	-20.388	0.730
1.692	-20.386	0.724
1.700	-20.390	0.720
1.705	-20.398	0.720
1.705	-20.407	0.724
1.701	-20.413	0.729
1.694	-20.414	0.735
1.687	-20.410	0.739
1.682	-20.402	0.739
2.034	-20.204	1.585
2.039	-20.200	1.593
2.041	-20.202	1.602
2.041	-20.209	1.608
2.039	-20.218	1.610
2.035	-20.225	1.606
2.030	-20.229	1.599
2.028	-20.227	1.590
2.028	-20.220	1.584
2.030	-20.211	1.582
2.803	-20.495	1.282
2.807	-20.491	1.289
2.810	-20.493	1.298
2.810	-20.500	1.304
2.808	-20.508	1.306
2.803	-20.516	1.303
2.799	-20.519	1.295
2.796	-20.517	1.287
2.796	-20.511	1.280
2.799	-20.502	1.278
2.030	-20.353	1.582
2.035	-20.350	1.588
2.039	-20.352	1.596
2.041	-20.360	1.602
2.039	-20.369	1.603
2.034	-20.376	1.600
2.029	-20.379	1.593
2.025	-20.376	1.585
2.023	-20.369	1.579
2.025	-20.360	1.578
2.638	-20.540	1.193
2.644	-20.537	1.200
2.648	-20.540	1.208
2.649	-20.547	1.213
2.648	-20.556	1.215
2.643	-20.563	1.211
2.638	-20.566	1.204
2.634	-20.564	1.197
2.632	-20.556	1.191
2.634	-20.547	1.189
2.038	-20.526	1.590
2.041	-20.519	1.596
2.039	-20.511	1.599
2.033	-20.503	1.597
2.026	-20.500	1.592
2.021	-20.503	1.584
2.019	-20.509	1.578
2.021	-20.518	1.576
2.026	-20.525	1.578
2.033	-20.528	1.583
1.519	-20.789	2.069
1.523	-20.781	2.069
1.522	-20.772	2.069
1.515	-20.765	2.069
1.506	-20.764	2.069
1.498	-20.768	2.069
1.494	-20.776	2.069
1.495	-20.785	2.069
1.502	-20.792	2.069
1.511	-20.793	2.069
2.035	-20.660	1.572
2.035	-20.653	1.578
2.031	-20.650	1.586
2.027	-20.653	1.593
2.022	-20.660	1.597
2.020	-20.669	1.596
2.020	-20.676	1.590
2.024	-20.679	1.582
2.028	-20.676	1.575
2.033	-20.669	1.571
2.702	-20.882	1.920
2.701	-20.875	1.926
2.698	-20.872	1.934
2.693	-20.875	1.942
2.689	-20.882	1.946
2.686	-20.891	1.944
2.687	-20.898	1.939
2.690	-20.901	1.930
2.695	-20.899	1.923
2.700	-20.891	1.919
2.027	-20.804	1.570
2.028	-20.800	1.578
2.030	-20.801	1.588
2.029	-20.808	1.594
2.028	-20.817	1.596
2.026	-20.825	1.592
2.024	-20.829	1.584
2.023	-20.827	1.575
2.023	-20.821	1.568
2.025	-20.812	1.566
2.765	-20.935	1.465
2.767	-20.931	1.473
2.768	-20.932	1.482
2.768	-20.938	1.488
2.767	-20.947	1.490
2.765	-20.956	1.486
2.763	-20.960	1.478
2.762	-20.958	1.469
2.762	-20.952	1.462
2.763	-20.943	1.461
2.030	-20.976	1.587
2.030	-20.969	1.592
2.028	-20.960	1.593
2.026	-20.953	1.588
2.023	-20.950	1.579
2.022	-20.952	1.571
2.023	-20.959	1.565
2.025	-20.968	1.564
2.027	-20.976	1.569
2.029	-20.979	1.578
1.230	-21.147	1.735
1.230	-21.140	1.741
1.228	-21.131	1.742
1.225	-21.124	1.737
1.223	-21.121	1.728
1.222	-21.123	1.719
1.222	-21.131	1.714
1.224	-21.140	1.713
1.227	-21.147	1.718
1.229	-21.150	1.727
0.813	-6.443	0.628
0.813	-6.448	0.636
0.808	-6.449	0.644
0.800	-6.446	0.648
0.793	-6.440	0.648
0.789	-6.433	0.643
0.790	-6.428	0.635
0.795	-6.427	0.627
0.802	-6.430	0.623
0.810	-6.436	0.623
0.335	-7.030	0.222
0.335	-7.034	0.230
0.329	-7.036	0.237
0.321	-7.034	0.241
0.313	-7.029	0.239
0.309	-7.023	0.234
0.309	-7.019	0.226
0.315	-7.017	0.218
0.323	-7.019	0.215
0.331	-7.024	0.216
0.148	-7.783	-0.185
0.145	-7.787	-0.178
0.137	-7.789	-0.173
0.128	-7.786	-0.172
0.121	-7.782	-0.176
0.119	-7.776	-0.184
0.123	-7.772	-0.191
0.130	-7.771	-0.196
0.139	-7.773	-0.197
0.146	-7.778	-0.192
-0.046	-8.461	-0.722
-0.048	-8.466	-0.714
-0.055	-8.468	-0.708
-0.064	-8.466	-0.706
-0.071	-8.461	-0.708
-0.074	-8.454	-0.714
-0.072	-8.449	-0.722
-0.065	-8.447	-0.728
-0.057	-8.449	-0.730
-0.049	-8.455	-0.728
-0.332	-8.854	-1.092
-0.325	-8.861	-1.090
-0.322	-8.867	-1.084
-0.325	-8.872	-1.077
-0.331	-8.874	-1.070
-0.340	-8.870	-1.067
-0.346	-8.864	-1.069
-0.349	-8.858	-1.075
-0.347	-8.853	-1.082
-0.340	-8.851	-1.089
2.020	-21.102	1.570
2.029	-21.100	1.572
2.037	-21.103	1.576
2.040	-21.111	1.580
2.039	-21.120	1.582
2.032	-21.126	1.582
2.024	-21.128	1.580
2.016	-21.125	1.576
2.012	-21.117	1.572
2.014	-21.109	1.570
2.255	-21.331	0.938
2.259	-21.331	0.946
2.258	-21.331	0.955
2.251	-21.331	0.961
2.242	-21.331	0.963
2.234	-21.331	0.959
2.230	-21.331	0.950
2.231	-21.331	0.941
2.238	-21.331	0.935
2.247	-21.331	0.933
2.033	-21.276	1.575
2.036	-21.269	1.581
2.034	-21.260	1.584
2.028	-21.253	1.582
2.021	-21.250	1.577
2.014	-21.253	1.571
2.012	-21.260	1.565
2.014	-21.268	1.563
2.020	-21.275	1.564
2.027	-21.278	1.569
1.579	-21.539	2.106
1.579	-21.531	2.110
1.579	-21.521	2.109
1.579	-21.515	2.102
1.579	-21.513	2.093
1.579	-21.518	2.085
1.579	-21.526	2.081
1.579	-21.535	2.082
1.579	-21.542	2.089
1.579	-21.543	2.098
2.031	-21.425	1.570
2.034	-21.418	1.575
2.032	-21.409	1.578
2.026	-21.402	1.578
2.017	-21.400	1.575
2.010	-21.403	1.570
2.007	-21.411	1.565
2.009	-21.419	1.562
2.015	-21.426	1.562
2.024	-21.428	1.566
1.744	-21.683	2.167
1.747	-21.675	2.172
1.746	-21.667	2.175
1.739	-21.660	2.175
1.731	-21.658	2.172
1.723	-21.661	2.167
1.720	-21.668	2.162
1.722	-21.677	2.159
1.729	-21.684	2.159
[...]
         <CellData>
           <DataArray type="Float32" Name="combinedRootClassID" NumberOfComponents="1" format="ascii">
 -1.300e+01 -1.300e+01 -1.300e+01 -1.300e+01 -1.300e+01 -1.300e+01 -1.300e+01 -1.300e+01 -1.300e+01 -1.300e+01 -1.300e+01 -1.300e+01 -1.300e+01 -1.300e+01 -1.300e+01 -1.300e+01 -1.300e+01 -1.300e+01 -1.300e+01 -1.300e+01 -1.300e+01 -1.300e+01 -1.300e+01 -1.300e+01 -1.300e+01 -1.300e+01 -1.300e+01 -1.300e+01 -1.300e+01 -1.300e+01 -1.300e+01 -1.300e+01 -1.300e+01 -1.300e+01 -1.300e+01 -1.300e+01 -1.300e+01 -1.300e+01 -1.300e+01 -1.300e+01 -1.300e+01 -1.300e+01 -1.300e+01 -1.300e+01 -1.300e+01 -1.300e+01 -1.300e+01 -1.300e+01 -1.300e+01 -1.300e+01 -1.300e+01 -1.300e+01 -1.300e+01 -1.300e+01 -1.300e+01 -1.300e+01 -1.300e+01 -1.300e+01 -1.300e+01 -1.300e+01 -1.300e+01 -1.300e+01 -1.300e+01 -1.300e+01 -1.300e+01 -1.300e+01 -1.300e+01 -1.300e+01 -1.300e+01 -1.300e+01 -1.300e+01 -1.300e+01 -1.300e+01 -1.300e+01 -1.300e+01 -1.300e+01 -1.300e+01 -1.300e+01 -1.300e+01 -1.300e+01 -1.300e+01 -1.300e+01 -1.300e+01 -1.300e+01 -1.300e+01 -1.300e+01 -1.300e+01 -1.300e+01 -1.300e+01 -1.300e+01 -1.300e+01 -1.300e+01 -1.300e+01 -1.300e+01 -1.300e+01 -1.300e+01 -1.300e+01 -1.300e+01 -1.300e+01 -1.300e+01 -1.300e+01 -1.300e+01 -1.300e+01 -1.300e+01 -1.300e+01 -1.300e+01 -1.300e+01 -1.300e+01 -1.300e+01 -1.300e+01 -1.300e+01 -1.300e+01 -1.300e+01 -1.300e+01 -1.300e+01 -1.300e+01 -1.300e+01 -1.300e+01 -1.300e+01 -1.300e+01 -1.300e+01 -1.300e+01 -1.300e+01 -1.300e+01 -1.300e+01 -1.300e+01 -1.300e+01 -1.300e+01 -1.300e+01 -1.300e+01 -1.300e+01 -1.300e+01 -1.300e+01 -1.300e+01 -1.300e+01 -1.300e+01 -1.300e+01 -1.300e+01 -1.300e+01 -1.300e+01 -1.300e+01 -1.300e+01 -1.300e+01 -1.300e+01 -1.300e+01 -1.300e+01 -1.300e+01 -1.300e+01 -1.300e+01 -1.300e+01 -1.300e+01 -1.300e+01 -1.300e+01 -1.300e+01 -1.300e+01 -1.300e+01 -1.300e+01 -1.300e+01 -1.300e+01 -1.300e+01 -1.300e+01 -1.300e+01 -1.300e+01 -1.300e+01 -1.300e+01 -1.300e+01 -1.300e+01 -1.300e+01 -1.300e+01 -1.300e+01 -1.300e+01 -1.300e+01 -1.300e+01 -1.300e+01 -1.300e+01 -1.300e+01 -1.300e+01 -1.300e+01 -1.300e+01 -1.300e+01 -1.300e+01 -1.300e+01 -1.300e+01 -1.300e+01 -1.300e+01 -1.300e+01 -1.300e+01 -1.300e+01 -1.300e+01 -1.300e+01 -1.300e+01 -1.300e+01 -1.300e+01 -1.300e+01 -1.300e+01 -1.300e+01 -1.300e+01 -1.300e+01 -1.300e+01 -1.300e+01 -1.300e+01 -1.300e+01 -1.300e+01 -1.300e+01 -1.300e+01 -1.300e+01 -1.300e+01 -1.300e+01 -1.300e+01 -1.300e+01 -1.300e+01 -1.300e+01 -1.300e+01 -1.300e+01 -1.300e+01 -1.300e+01 -1.300e+01 -1.300e+01 -1.300e+01 -1.300e+01 -1.300e+01 -1.300e+01 -1.300e+01 -1.300e+01 -1.300e+01 -1.300e+01 -1.300e+01 -1.300e+01 -1.300e+01 -1.300e+01 -1.300e+01 -1.300e+01 -1.300e+01 -1.300e+01 -1.300e+01 -1.300e+01 -1.300e+01 -1.300e+01 -1.300e+01 -1.300e+01 -1.300e+01 -1.300e+01 -1.300e+01 -1.300e+01 -1.300e+01 -1.300e+01 -1.300e+01 -1.300e+01 -1.300e+01 -1.300e+01 -1.300e+01 -1.300e+01 -1.300e+01 -1.300e+01 -1.300e+01 -1.300e+01 -1.300e+01 -1.300e+01 -1.300e+01 -1.300e+01 -1.300e+01 -1.300e+01 -1.300e+01 -1.300e+01 -1.300e+01 -1.300e+01 -1.300e+01 -1.300e+01 -1.300e+01 -1.300e+01 -1.300e+01 -1.300e+01 -1.300e+01 -1.300e+01 -1.300e+01 -1.300e+01 -1.300e+01 -1.300e+01 -1.300e+01 -1.300e+01 -1.300e+01 -1.300e+01 -1.300e+01 -1.300e+01 -1.300e+01 -1.300e+01 -1.300e+01 -1.300e+01 -1.300e+01 -1.300e+01 -1.300e+01 -1.300e+01 -1.300e+01 -1.300e+01 -1.300e+01 -1.300e+01 -1.300e+01 -1.300e+01 -1.300e+01 -1.300e+01 -1.300e+01 -1.300e+01 -1.300e+01 -1.300e+01 -1.300e+01 -1.300e+01 -1.300e+01 -1.300e+01 -1.300e+01 -1.300e+01 -1.300e+01 -1.300e+01 -1.300e+01 -1.300e+01 -1.300e+01 -1.300e+01 -1.300e+01 -1.300e+01 -1.300e+01 -1.300e+01 -1.300e+01 -1.300e+01 -1.300e+01 -1.300e+01 -1.300e+01 -1.300e+01 -1.300e+01 -1.300e+01 -1.300e+01 -5.000e+00 -5.000e+00 -5.000e+00 -5.000e+00 -5.000e+00 -5.000e+00 -5.000e+00 -5.000e+00 -5.000e+00 -5.000e+00 -5.000e+00 -5.000e+00 -5.000e+00 -5.000e+00 -5.000e+00 -5.000e+00 -5.000e+00 -5.000e+00 -5.000e+00 -5.000e+00 -5.000e+00 -5.000e+00 -5.000e+00 -5.000e+00 -5.000e+00 -5.000e+00 -5.000e+00 -5.000e+00 -5.000e+00 -5.000e+00 -5.000e+00 -5.000e+00 -5.000e+00 -5.000e+00 -5.000e+00 -5.000e+00 -5.000e+00 -5.000e+00 -1.300e+01 -1.300e+01 -1.300e+01 -1.300e+01 -1.300e+01 -1.300e+01 -1.300e+01 -1.300e+01 -1.300e+01 -1.300e+01 -1.300e+01 -1.300e+01 -1.300e+01 -1.300e+01 -1.300e+01 -1.300e+01 -1.300e+01 -1.300e+01 -1.300e+01 -1.300e+01 -1.300e+01 -1.300e+01 -1.300e+01 -1.300e+01 -1.300e+01 -1.300e+01 -1.300e+01 -1.300e+01 -1.300e+01 -1.300e+01 -1.300e+01 -1.300e+01 -1.300e+01 -1.300e+01 -1.300e+01 -1.300e+01 -1.300e+01 -1.300e+01 -1.300e+01 -1.300e+01 -1.300e+01 -1.300e+01 -1.300e+01 -1.300e+01 -1.300e+01 -1.300e+01 -1.300e+01 -1.300e+01 -1.300e+01 -1.300e+01 -1.300e+01 -1.300e+01 -1.300e+01 -1.300e+01 -1.300e+01 -1.300e+01 -1.300e+01 -1.300e+01 -1.300e+01 -1.300e+01 -1.300e+01 -1.300e+01 -1.300e+01 -1.300e+01 -1.300e+01 -1.300e+01 -1.300e+01 -1.300e+01 -1.300e+01 -1.300e+01 -1.300e+01 -1.300e+01 -1.300e+01 -1.300e+01 -1.300e+01 -1.300e+01 -1.300e+01 -1.300e+01 -1.300e+01 -1.300e+01 -1.300e+01 -1.300e+01 -1.300e+01 -1.300e+01 -1.300e+01 -1.300e+01 -1.300e+01 -1.300e+01 -1.300e+01 -1.300e+01 -1.300e+01 -1.300e+01 -1.300e+01 -1.300e+01 -1.300e+01 -1.300e+01 -1.300e+01 -1.300e+01 -1.300e+01 -1.300e+01 -1.300e+01 -1.300e+01 -1.300e+01 -1.300e+01 -1.300e+01 -1.300e+01 -1.300e+01 -1.300e+01 -1.300e+01 -1.300e+01 -1.300e+01 -1.300e+01 -1.300e+01 -1.300e+01 -1.300e+01 -1.300e+01 -1.300e+01 -1.300e+01 -1.300e+01 -1.300e+01 -1.300e+01 -1.300e+01 -1.300e+01 -1.300e+01 -1.300e+01 -1.300e+01 -1.300e+01 -1.300e+01 -1.300e+01 -1.300e+01 -1.300e+01 -1.300e+01 -1.300e+01 -1.300e+01 -1.300e+01 -1.300e+01 -1.300e+01 -1.300e+01 -1.300e+01 -1.300e+01 -1.300e+01 -1.300e+01 -1.300e+01 -1.300e+01 -1.300e+01 -1.300e+01 -1.300e+01 -1.300e+01 -1.300e+01 -1.300e+01 -1.300e+01 -1.300e+01 -1.300e+01 -1.300e+01 -1.300e+01 -1.300e+01 -1.300e+01 -1.300e+01 -1.300e+01 -1.300e+01 -1.300e+01 -1.300e+01 -1.300e+01 -1.300e+01 -1.300e+01 -1.300e+01 -1.300e+01 -1.300e+01 -1.300e+01 -1.300e+01 -1.300e+01 -1.300e+01 -1.300e+01 -1.300e+01 -1.300e+01 -1.300e+01 -1.300e+01 -1.300e+01 -1.300e+01 -1.300e+01 -1.300e+01 -1.300e+01 -1.300e+01 -1.300e+01 -1.300e+01 -1.300e+01 -1.300e+01 -1.300e+01 -1.300e+01 -1.300e+01 -1.300e+01 -1.300e+01 -1.300e+01 -1.300e+01 -1.300e+01 -1.300e+01 -1.300e+01 -1.300e+01 -1.300e+01 -1.300e+01 -1.300e+01 -1.300e+01 -1.300e+01 -1.300e+01 -1.300e+01 -1.300e+01 -1.300e+01 -1.300e+01 -1.300e+01 -1.300e+01 -1.300e+01 -1.300e+01 -1.300e+01 -1.300e+01 -1.300e+01 -1.300e+01 -1.300e+01 -1.300e+01 -1.300e+01 -1.300e+01 -1.300e+01 -1.300e+01 -1.300e+01 -1.300e+01 -1.300e+01 -1.300e+01 -1.300e+01 -1.300e+01 -1.300e+01 -1.300e+01 -1.300e+01 -1.300e+01 -1.300e+01 -1.300e+01 -1.300e+01 -1.300e+01 -1.300e+01 -1.300e+01 -1.300e+01 -1.300e+01 -1.300e+01 -1.300e+01 -1.300e+01 -1.300e+01 -1.300e+01 -1.300e+01 -1.300e+01 -1.300e+01 -1.300e+01 -1.300e+01 -1.300e+01 -1.300e+01 -1.300e+01 -1.300e+01 -1.300e+01 -1.300e+01 -1.300e+01 -1.300e+01 -1.300e+01 -1.300e+01 -1.300e+01 -1.300e+01 -1.300e+01 -1.300e+01 -1.300e+01 -1.300e+01 -1.300e+01 -1.300e+01 -1.300e+01 -1.300e+01 -1.300e+01 -1.300e+01 -1.300e+01 -1.300e+01 -1.300e+01 -1.300e+01 -1.300e+01 -1.300e+01 -1.300e+01 -1.300e+01 -1.300e+01 -1.300e+01 -1.300e+01 -1.300e+01 -1.300e+01 -1.300e+01 -1.300e+01 -1.300e+01 -1.300e+01 -1.300e+01 -1.300e+01 -1.300e+01 -1.300e+01 -1.300e+01 -1.300e+01 -1.300e+01 -1.300e+01 -1.300e+01 -1.300e+01 -1.300e+01 -1.300e+01 -1.300e+01 -1.300e+01 -1.300e+01 -1.300e+01 -1.300e+01 -1.300e+01 -1.300e+01 -1.300e+01 -1.300e+01 -1.300e+01 -1.300e+01 -1.300e+01 -1.300e+01 -1.300e+01 -1.300e+01 -1.300e+01 -1.300e+01 -1.300e+01 -1.300e+01 -1.300e+01 -1.300e+01 -1.300e+01 -1.300e+01 -1.300e+01 -1.300e+01 -1.300e+01 -1.300e+01 -1.300e+01 -1.300e+01 -1.300e+01 -1.300e+01 -1.300e+01 -1.300e+01 -1.300e+01 -1.300e+01 -1.300e+01 -1.300e+01 -5.000e+00 -5.000e+00 -5.000e+00 -5.000e+00 -5.000e+00 -5.000e+00 -5.000e+00 -5.000e+00 -5.000e+00 -5.000e+00 -5.000e+00 -5.000e+00 -5.000e+00 -5.000e+00 -5.000e+00 -5.000e+00 -5.000e+00 -5.000e+00 -5.000e+00 -5.000e+00 -5.000e+00 -5.000e+00 -5.000e+00 -5.000e+00 -5.000e+00 -5.000e+00 -5.000e+00 -5.000e+00 -5.000e+00 -5.000e+00 -5.000e+00 -5.000e+00 -5.000e+00 -5.000e+00 -5.000e+00 -5.000e+00 -5.000e+00 -5.000e+00 -1.300e+01 -1.300e+01 -1.300e+01 -1.300e+01 -1.300e+01 -1.300e+01 -1.300e+01 -1.300e+01 -1.300e+01 -1.300e+01 -1.300e+01 -1.300e+01 -1.300e+01 -1.300e+01 -1.300e+01 -1.300e+01 -1.300e+01 -1.300e+01 -1.300e+01 -1.300e+01 -1.300e+01 -1.300e+01 -1.300e+01 -1.300e+01 -1.300e+01 -1.300e+01 -1.300e+01 -1.300e+01 -1.300e+01 -1.300e+01 -1.300e+01 -1.300e+01 -1.300e+01 -1.300e+01 -1.300e+01 -1.300e+01 -1.300e+01 -1.300e+01 -1.300e+01 -1.300e+01 -1.300e+01 -1.300e+01 -1.300e+01 -1.300e+01 -1.300e+01 -1.300e+01 -1.300e+01 -1.300e+01 -1.300e+01 -1.300e+01 -1.300e+01 -1.300e+01 -1.300e+01 -1.300e+01 -1.300e+01 -1.300e+01 -1.300e+01 -1.300e+01 -1.300e+01 -1.300e+01 -1.300e+01 -1.300e+01 -1.300e+01 -1.300e+01 -1.300e+01 -1.300e+01 -1.300e+01 -1.300e+01 -1.300e+01 -1.300e+01 -1.300e+01 -1.300e+01 -1.300e+01 -1.300e+01 -1.300e+01 -1.300e+01 -1.300e+01 -1.300e+01 -1.300e+01 -1.300e+01 -1.300e+01 -1.300e+01 -1.300e+01 -1.300e+01 -1.300e+01 -1.300e+01 -1.300e+01 -1.300e+01 -1.300e+01 -1.300e+01 -1.300e+01 -1.300e+01 -1.300e+01 -1.300e+01 -1.300e+01 -1.300e+01 -1.300e+01 -1.300e+01 -1.300e+01 -1.300e+01 -1.300e+01 -1.300e+01 -1.300e+01 -1.300e+01 -1.300e+01 -1.300e+01 -1.300e+01 -1.300e+01 -1.300e+01 -1.300e+01 -1.300e+01 -1.300e+01 -1.300e+01 -1.300e+01 -1.300e+01 -1.300e+01 -1.300e+01 -1.300e+01 -1.300e+01 -1.300e+01 -1.300e+01 -1.300e+01 -1.300e+01 -1.300e+01 -1.300e+01 -1.300e+01 -1.300e+01 -1.300e+01 -1.300e+01 -1.300e+01 -1.300e+01 -1.300e+01 -1.300e+01 -1.300e+01 -1.300e+01 -1.300e+01 -1.300e+01 -1.300e+01 -1.300e+01 -1.300e+01 -1.300e+01 -1.300e+01 -1.300e+01 -1.300e+01 -1.300e+01 -1.300e+01 -1.300e+01 -1.300e+01 -1.300e+01 -1.300e+01 -1.300e+01 -1.300e+01 -1.300e+01 -1.300e+01 -1.300e+01 -1.300e+01 -1.300e+01 -1.300e+01 -1.300e+01 -1.300e+01 -1.300e+01 -1.300e+01 -1.300e+01 -1.300e+01 -1.300e+01 -1.300e+01 -1.300e+01 -1.300e+01 -1.300e+01 -1.300e+01 -1.300e+01 -1.300e+01 -1.300e+01 -1.300e+01 -1.300e+01 -1.300e+01 -1.300e+01 -1.300e+01 -1.300e+01 -1.300e+01 -1.300e+01 -1.300e+01 -1.300e+01 -1.300e+01 -1.300e+01 -1.300e+01 -1.300e+01 -1.300e+01 -1.300e+01 -1.300e+01 -1.300e+01 -1.300e+01 -1.300e+01 -1.300e+01 -1.300e+01 -1.300e+01 -1.300e+01 -1.300e+01 -1.300e+01 -1.300e+01 -1.300e+01 -1.300e+01 -1.300e+01 -1.300e+01 -1.300e+01 -1.300e+01 -1.300e+01 -1.300e+01 -1.300e+01 -1.300e+01 -1.300e+01 -1.300e+01 -1.300e+01 -1.300e+01 -1.300e+01 -1.300e+01 -1.300e+01 -1.300e+01 -1.300e+01 -1.300e+01 -1.300e+01 -1.300e+01 -1.300e+01 -1.300e+01 -1.300e+01 -1.300e+01 -1.300e+01 -1.300e+01 -1.300e+01 -1.300e+01 -1.300e+01 -1.300e+01 -1.300e+01 -1.300e+01 -1.300e+01 -1.300e+01 -1.300e+01 -1.300e+01 -1.300e+01 -1.300e+01 -1.300e+01 -1.300e+01 -1.300e+01 -1.300e+01 -1.300e+01 -1.300e+01 -1.300e+01 -1.300e+01 -1.300e+01 -1.300e+01 -1.300e+01 -1.300e+01 -1.300e+01 -1.300e+01 -1.300e+01 -1.300e+01 -1.300e+01 -1.300e+01 -1.300e+01 -1.300e+01 -1.300e+01 -1.300e+01 -1.300e+01 -1.300e+01 -1.300e+01 -1.300e+01 -1.300e+01 -1.300e+01 -1.300e+01 -1.300e+01 -1.300e+01 -1.300e+01 -1.300e+01 -1.300e+01 -1.300e+01 -1.300e+01 -1.300e+01 -1.300e+01 -1.300e+01 -1.300e+01 -1.300e+01 -1.300e+01 -1.300e+01 -1.300e+01 -1.300e+01 -1.300e+01 -1.300e+01 -1.300e+01 -1.300e+01 -1.300e+01 -1.300e+01 -1.300e+01 -1.300e+01 -1.300e+01 -1.300e+01 -1.300e+01 -1.300e+01 -1.300e+01 -1.300e+01 -1.300e+01 -1.300e+01 -1.300e+01 -1.300e+01 -1.300e+01 -1.300e+01 -1.300e+01 -1.300e+01 -1.300e+01 -1.300e+01 -1.300e+01 -1.300e+01 -1.300e+01 -1.300e+01 -1.300e+01 -1.300e+01 -1.300e+01 -1.300e+01 -1.300e+01 -1.300e+01 -1.300e+01 -1.300e+01 -1.300e+01 -1.300e+01 -1.300e+01 -1.300e+01 -1.300e+01 -1.300e+01 -1.300e+01 -1.300e+01 -1.300e+01 -1.300e+01 -1.300e+01 -1.300e+01 -1.300e+01 -1.300e+01 -1.300e+01 -5.000e+00 -5.000e+00 -5.000e+00 -5.000e+00 -5.000e+00 -5.000e+00 -5.000e+00 -5.000e+00 -5.000e+00 -5.000e+00 -5.000e+00 -5.000e+00 -5.000e+00 -5.000e+00 -5.000e+00 -5.000e+00 -5.000e+00 -5.000e+00 -5.000e+00 -5.000e+00 -5.000e+00 -5.000e+00 -5.000e+00 -5.000e+00 -5.000e+00 -5.000e+00 -5.000e+00 -5.000e+00 -5.000e+00 -5.000e+00 -5.000e+00 -5.000e+00 -5.000e+00 -5.000e+00 -5.000e+00 -5.000e+00 -5.000e+00 -5.000e+00 -1.300e+01 -1.300e+01 -1.300e+01 -1.300e+01 -1.300e+01 -1.300e+01 -1.300e+01 -1.300e+01 -1.300e+01 -1.300e+01 -1.300e+01 -1.300e+01 -1.300e+01 -1.300e+01 -1.300e+01 -1.300e+01 -1.300e+01 -1.300e+01 -1.300e+01 -1.300e+01 -1.300e+01 -1.300e+01 -1.300e+01 -1.300e+01 -1.300e+01 -1.300e+01 -1.300e+01 -1.300e+01 -1.300e+01 -1.300e+01 -1.300e+01 -1.300e+01 -1.300e+01 -1.300e+01 -1.300e+01 -1.300e+01 -1.300e+01 -1.300e+01 -1.300e+01 -1.300e+01 -1.300e+01 -1.300e+01 -1.300e+01 -1.300e+01 -1.300e+01 -1.300e+01 -1.300e+01 -1.300e+01 -1.300e+01 -1.300e+01 -1.300e+01 -1.300e+01 -1.300e+01 -1.300e+01 -1.300e+01 -1.300e+01 -1.300e+01 -1.300e+01 -1.300e+01 -1.300e+01 -1.300e+01 -1.300e+01 -1.300e+01 -1.300e+01 -1.300e+01 -1.300e+01 -1.300e+01 -1.300e+01 -1.300e+01 -1.300e+01 -1.300e+01 -1.300e+01 -1.300e+01 -1.300e+01 -1.300e+01 -1.300e+01 -1.300e+01 -1.300e+01 -1.300e+01 -1.300e+01 -1.300e+01 -1.300e+01 -1.300e+01 -1.300e+01 -1.300e+01 -1.300e+01 -1.300e+01 -1.300e+01 -1.300e+01 -1.300e+01 -1.300e+01 -1.300e+01 -1.300e+01 -1.300e+01 -1.300e+01 -1.300e+01 -1.300e+01 -1.300e+01 -1.300e+01 -1.300e+01 -1.300e+01 -1.300e+01 -1.300e+01 -1.300e+01 -1.300e+01 -1.300e+01 -1.300e+01 -1.300e+01 -1.300e+01 -1.300e+01 -1.300e+01 -1.300e+01 -1.300e+01 -1.300e+01 -1.300e+01 -1.300e+01 -1.300e+01 -1.300e+01 -1.300e+01 -1.300e+01 -1.300e+01 -1.300e+01 -1.300e+01 -1.300e+01 -1.300e+01 -1.300e+01 -1.300e+01 -1.300e+01 -1.300e+01 -1.300e+01 -1.300e+01 -1.300e+01 -1.300e+01 -1.300e+01 -1.300e+01 -1.300e+01 -1.300e+01 -1.300e+01 -1.300e+01 -1.300e+01 -1.300e+01 -1.300e+01 -1.300e+01 -1.300e+01 -1.300e+01 -1.300e+01 -1.300e+01 -1.300e+01 -1.300e+01 -1.300e+01 -1.300e+01 -1.300e+01 -1.300e+01 -1.300e+01 -1.300e+01 -1.300e+01 -1.300e+01 -1.300e+01 -1.300e+01 -1.300e+01 -1.300e+01 -1.300e+01 -1.300e+01 -1.300e+01 -1.300e+01 -1.300e+01 -1.300e+01 -1.300e+01 -1.300e+01 -1.300e+01 -1.300e+01 -1.300e+01 -1.300e+01 -1.300e+01 -1.300e+01 -1.300e+01 -1.300e+01 -1.300e+01 -1.300e+01 -1.300e+01 -1.300e+01 -1.300e+01 -1.300e+01 -1.300e+01 -1.300e+01 -1.300e+01 -1.300e+01 -1.300e+01 -1.300e+01 -1.300e+01 -1.300e+01 -1.300e+01 -1.300e+01 -1.300e+01 -1.300e+01 -1.300e+01 -1.300e+01 -1.300e+01 -1.300e+01 -1.300e+01 -1.300e+01 -1.300e+01 -1.300e+01 -1.300e+01 -1.300e+01 -1.300e+01 -1.300e+01 -1.300e+01 -1.300e+01 -1.300e+01 -1.300e+01 -1.300e+01 -1.300e+01 -1.300e+01 -1.300e+01 -1.300e+01 -1.300e+01 -1.300e+01 -1.300e+01 -1.300e+01 -1.300e+01 -1.300e+01 -1.300e+01 -1.300e+01 -1.300e+01 -1.300e+01 -1.300e+01 -1.300e+01 -1.300e+01 -1.300e+01 -1.300e+01 -1.300e+01 -1.300e+01 -1.300e+01 -1.300e+01 -1.300e+01 -1.300e+01 -1.300e+01 -1.300e+01 -1.300e+01 -1.300e+01 -1.300e+01 -1.300e+01 -1.300e+01 -1.300e+01 -1.300e+01 -1.300e+01 -1.300e+01 -1.300e+01 -1.300e+01 -1.300e+01 -1.300e+01 -1.300e+01 -1.300e+01 -1.300e+01 -1.300e+01 -1.300e+01 -1.300e+01 -1.300e+01 -1.300e+01 -1.300e+01 -1.300e+01 -1.300e+01 -1.300e+01 -1.300e+01 -1.300e+01 -1.300e+01 -1.300e+01 -1.300e+01 -1.300e+01 -1.300e+01 -1.300e+01 -1.300e+01 -1.300e+01 -1.300e+01 -1.300e+01 -1.300e+01 -1.300e+01 -1.300e+01 -1.300e+01 -1.300e+01 -1.300e+01 -1.300e+01 -1.300e+01 -1.300e+01 -1.300e+01 -1.300e+01 -1.300e+01 -1.300e+01 -1.300e+01 -1.300e+01 -1.300e+01 -1.300e+01 -1.300e+01 -1.300e+01 -1.300e+01 -1.300e+01 -1.300e+01 -1.300e+01 -1.300e+01 -1.300e+01 -1.300e+01 -1.300e+01 -1.300e+01 -1.300e+01 -1.300e+01 -1.300e+01 -1.300e+01 -1.300e+01 -1.300e+01 -1.300e+01 -1.300e+01 -1.300e+01 -1.300e+01 -1.300e+01 -1.300e+01 -1.300e+01 -1.300e+01 -1.300e+01 -1.300e+01 -1.300e+01 -1.300e+01 -1.300e+01 -1.300e+01 -1.300e+01 -1.300e+01 -1.300e+01 -1.300e+01 -1.300e+01 -1.300e+01 -1.300e+01 -1.300e+01 -1.300e+01 -1.300e+01 -1.300e+01 -1.300e+01 -1.300e+01 -1.300e+01 -1.300e+01 -5.000e+00 -5.000e+00 -5.000e+00 -5.000e+00 -5.000e+00 -5.000e+00 -5.000e+00 -5.000e+00 -5.000e+00 -5.000e+00 -5.000e+00 -5.000e+00 -5.000e+00 -5.000e+00 -5.000e+00 -5.000e+00 -5.000e+00 -5.000e+00 -5.000e+00 -5.000e+00 -5.000e+00 -5.000e+00 -5.000e+00 -5.000e+00 -5.000e+00 -5.000e+00 -5.000e+00 -5.000e+00 -5.000e+00 -5.000e+00 -5.000e+00 -5.000e+00 -5.000e+00 -5.000e+00 -5.000e+00 -5.000e+00 -5.000e+00 -5.000e+00 -1.900e+01 -1.900e+01 -1.900e+01 -1.900e+01 -1.900e+01 -1.900e+01 -1.900e+01 -1.900e+01 -1.900e+01 -1.900e+01 -1.900e+01 -1.900e+01 -1.900e+01 -1.900e+01 -1.900e+01 -1.900e+01 -1.900e+01 -1.900e+01 -1.900e+01 -1.900e+01 -1.900e+01 -1.900e+01 -1.900e+01 -1.900e+01 -1.900e+01 -1.900e+01 -1.900e+01 -1.900e+01 -1.900e+01 -1.900e+01 -1.900e+01 -1.900e+01 -1.900e+01 -1.900e+01 -1.900e+01 -1.900e+01 -1.900e+01 -1.900e+01 -1.900e+01 -1.900e+01 -1.900e+01 -1.900e+01 -1.900e+01 -1.900e+01 -1.900e+01 -1.900e+01 -1.900e+01 -1.900e+01 -1.900e+01 -1.900e+01 -1.900e+01 -1.900e+01 -1.900e+01 -1.900e+01 -1.900e+01 -1.900e+01 -1.900e+01 -1.900e+01 -1.900e+01 -1.900e+01 -1.900e+01 -1.900e+01 -1.900e+01 -1.900e+01 -1.900e+01 -1.900e+01 -1.900e+01 -1.900e+01 -1.900e+01 -1.900e+01 -1.900e+01 -1.900e+01 -1.900e+01 -1.900e+01 -1.900e+01 -1.900e+01 -1.900e+01 -1.900e+01 -1.900e+01 -1.900e+01 -1.900e+01 -1.900e+01 -1.900e+01 -1.900e+01 -1.900e+01 -1.900e+01 -1.900e+01 -1.900e+01 -1.900e+01 -1.900e+01 -1.900e+01 -1.900e+01 -1.900e+01 -1.900e+01 -1.900e+01 -1.900e+01 -1.900e+01 -1.900e+01 -1.900e+01 -1.900e+01 -1.900e+01 -1.900e+01 -1.900e+01 -1.900e+01 -1.900e+01 -1.900e+01 -1.900e+01 -1.900e+01 -1.900e+01 -1.900e+01 -1.100e+01 -1.100e+01 -1.100e+01 -1.100e+01 -1.100e+01 -1.100e+01 -1.100e+01 -1.100e+01 -1.100e+01 -1.100e+01 -1.100e+01 -1.100e+01 -1.100e+01 -1.100e+01 -1.100e+01 -1.100e+01 -1.100e+01 -1.100e+01 -1.100e+01 -1.100e+01 -1.100e+01 -1.100e+01 -1.100e+01 -1.100e+01 -1.100e+01 -1.100e+01 -1.100e+01 -1.900e+01 -1.900e+01 -1.900e+01 -1.900e+01 -1.900e+01 -1.900e+01 -1.900e+01 -1.900e+01 -1.900e+01 -1.900e+01 -1.900e+01 -1.900e+01 -1.900e+01 -1.900e+01 -1.900e+01 -1.900e+01 -1.900e+01 -1.900e+01 -1.900e+01 -1.900e+01 -1.900e+01 -1.900e+01 -1.900e+01 -1.900e+01 -1.900e+01 -1.900e+01 -1.900e+01 -1.900e+01 -1.900e+01 -1.900e+01 -1.900e+01 -1.900e+01 -1.900e+01 -1.900e+01 -1.900e+01 -1.900e+01 -1.900e+01 -1.900e+01 -1.900e+01 -1.900e+01 -1.900e+01 -1.900e+01 -1.900e+01 -1.900e+01 -1.900e+01 -1.900e+01 -1.900e+01 -1.900e+01 -1.900e+01 -1.900e+01 -1.900e+01 -1.900e+01 -1.900e+01 -1.900e+01 -1.900e+01 -1.900e+01 -1.900e+01 -1.900e+01 -1.900e+01 -1.900e+01 -1.900e+01 -1.900e+01 -1.900e+01 -1.900e+01 -1.900e+01 -1.900e+01 -1.900e+01 -1.900e+01 -1.900e+01 -1.900e+01 -1.900e+01 -1.900e+01 -1.900e+01 -1.900e+01 -1.900e+01 -1.900e+01 -1.900e+01 -1.900e+01 -1.900e+01 -1.900e+01 -1.900e+01 -1.900e+01 -1.900e+01 -1.900e+01 -1.900e+01 -1.900e+01 -1.900e+01 -1.900e+01 -1.900e+01 -1.900e+01 -1.900e+01 -1.900e+01 -1.900e+01 -1.900e+01 -1.900e+01 -1.900e+01 -1.900e+01 -1.900e+01 -1.900e+01 -1.900e+01 -1.900e+01 -1.900e+01 -1.900e+01 -1.900e+01 -1.900e+01 -1.900e+01 -1.900e+01 -1.900e+01 -1.900e+01 -1.100e+01 -1.100e+01 -1.100e+01 -1.100e+01 -1.100e+01 -1.100e+01 -1.100e+01 -1.100e+01 -1.100e+01 -1.100e+01 -1.100e+01 -1.100e+01 -1.100e+01 -1.100e+01 -1.100e+01 -1.100e+01 -1.100e+01 -1.100e+01 -1.100e+01 -1.100e+01 -1.100e+01 -1.100e+01 -1.100e+01 -1.100e+01 -1.100e+01 -1.100e+01 -1.100e+01 -1.900e+01 -1.900e+01 -1.900e+01 -1.900e+01 -1.900e+01 -1.900e+01 -1.900e+01 -1.900e+01 -1.900e+01 -1.900e+01 -1.900e+01 -1.900e+01 -1.900e+01 -1.900e+01 -1.900e+01 -1.900e+01 -1.900e+01 -1.900e+01 -1.900e+01 -1.900e+01 -1.900e+01 -1.900e+01 -1.900e+01 -1.900e+01 -1.900e+01 -1.900e+01 -1.900e+01 -1.900e+01 -1.900e+01 -1.900e+01 -1.900e+01 -1.900e+01 -1.900e+01 -1.900e+01 -1.900e+01 -1.900e+01 -1.900e+01 -1.900e+01 -1.900e+01 -1.900e+01