<?xml version="1.0"?>
<VTKFile type="UnstructuredGrid" version="0.1" byte_order="LittleEndian">
   <UnstructuredGrid>
      <Piece NumberOfPoints="76230" NumberOfCells="5672">
         <Points>
            <DataArray type="Float32" Name="Position" NumberOfComponents="3" format="ascii">
0.138	-5.019	0.063
0.142	-5.018	0.071
0.141	-5.018	0.080
0.134	-5.018	0.087
0.125	-5.019	0.089
0.117	-5.019	0.084
0.113	-5.020	0.076
0.114	-5.021	0.067
0.121	-5.021	0.060
0.130	-5.020	0.059
0.202	-5.871	0.125
0.206	-5.870	0.133
0.205	-5.869	0.142
0.199	-5.870	0.149
0.190	-5.872	0.151
0.182	-5.874	0.147
0.178	-5.875	0.139
0.179	-5.876	0.130
0.185	-5.875	0.123
0.194	-5.873	0.121
0.484	-6.719	0.181
0.489	-6.717	0.189
0.488	-6.716	0.198
0.482	-6.718	0.205
0.473	-6.720	0.207
0.465	-6.724	0.204
0.461	-6.726	0.196
0.462	-6.727	0.187
0.468	-6.725	0.180
0.476	-6.723	0.178
0.777	-7.489	0.301
0.781	-7.485	0.309
0.779	-7.484	0.318
0.774	-7.485	0.325
0.765	-7.488	0.327
0.758	-7.493	0.324
0.754	-7.496	0.316
0.755	-7.498	0.307
0.761	-7.496	0.300
0.769	-7.493	0.298
1.020	-7.925	0.423
1.023	-7.921	0.430
1.022	-7.919	0.439
1.016	-7.920	0.446
1.008	-7.924	0.449
1.001	-7.929	0.446
0.997	-7.933	0.438
0.998	-7.935	0.429
1.004	-7.934	0.422
1.012	-7.930	0.420
0.260	-5.055	0.132
0.258	-5.048	0.137
0.254	-5.046	0.146
0.250	-5.049	0.153
0.247	-5.057	0.157
0.247	-5.066	0.156
0.249	-5.073	0.151
0.253	-5.075	0.143
0.257	-5.072	0.135
0.260	-5.064	0.131
0.961	-5.105	0.485
0.958	-5.098	0.490
0.955	-5.096	0.499
0.951	-5.099	0.506
0.948	-5.107	0.510
0.948	-5.116	0.509
0.950	-5.123	0.504
0.954	-5.126	0.495
0.958	-5.122	0.488
0.960	-5.114	0.484
1.794	-5.187	0.875
1.792	-5.180	0.880
1.788	-5.177	0.888
1.784	-5.180	0.895
1.780	-5.188	0.900
1.779	-5.197	0.899
1.781	-5.204	0.894
1.785	-5.207	0.886
1.790	-5.204	0.878
1.793	-5.197	0.874
2.451	-5.320	1.298
2.450	-5.312	1.303
2.445	-5.308	1.310
2.440	-5.310	1.317
2.436	-5.317	1.322
2.434	-5.326	1.322
2.435	-5.334	1.317
2.440	-5.338	1.310
2.445	-5.336	1.303
2.450	-5.329	1.298
3.141	-5.447	1.824
3.139	-5.439	1.828
3.135	-5.435	1.835
3.129	-5.436	1.842
3.124	-5.443	1.847
3.122	-5.452	1.847
3.124	-5.460	1.843
3.129	-5.464	1.837
3.134	-5.463	1.830
3.139	-5.456	1.825
3.355	-5.478	1.996
3.353	-5.470	2.000
3.349	-5.466	2.007
3.343	-5.467	2.014
3.338	-5.473	2.019
3.336	-5.482	2.019
3.338	-5.491	2.016
3.343	-5.495	2.009
3.349	-5.494	2.002
3.353	-5.487	1.997
1.335	-5.666	0.701
1.339	-5.657	0.702
1.338	-5.648	0.703
1.331	-5.642	0.704
1.322	-5.641	0.703
1.314	-5.645	0.702
1.310	-5.653	0.700
1.311	-5.662	0.699
1.318	-5.669	0.699
1.327	-5.670	0.700
1.255	-5.776	1.529
1.259	-5.768	1.530
1.257	-5.759	1.531
1.251	-5.752	1.532
1.242	-5.751	1.531
1.233	-5.755	1.530
1.229	-5.763	1.529
1.231	-5.773	1.528
1.238	-5.779	1.528
1.247	-5.780	1.528
1.222	-5.865	2.387
1.227	-5.857	2.388
1.225	-5.848	2.388
1.219	-5.841	2.388
1.210	-5.840	2.388
1.201	-5.844	2.386
1.197	-5.852	2.386
1.199	-5.861	2.385
1.205	-5.868	2.385
1.214	-5.870	2.386
1.109	-5.908	3.259
1.113	-5.900	3.260
1.112	-5.891	3.260
1.106	-5.884	3.259
1.097	-5.882	3.259
1.089	-5.886	3.258
1.084	-5.894	3.257
1.085	-5.903	3.257
1.092	-5.910	3.257
1.101	-5.912	3.258
1.081	-5.917	3.631
1.085	-5.909	3.631
1.084	-5.900	3.631
1.078	-5.893	3.631
1.069	-5.892	3.630
1.060	-5.896	3.630
1.056	-5.904	3.629
1.057	-5.913	3.629
1.064	-5.920	3.629
1.073	-5.921	3.630
7.085	-17.272	3.633
7.080	-17.269	3.640
7.074	-17.262	3.643
7.069	-17.255	3.641
7.067	-17.249	3.634
7.069	-17.248	3.625
7.073	-17.250	3.618
7.079	-17.257	3.614
7.084	-17.264	3.617
7.086	-17.270	3.624
6.462	-17.756	3.442
6.459	-17.753	3.451
6.453	-17.747	3.455
6.448	-17.740	3.453
6.444	-17.735	3.447
6.444	-17.733	3.438
6.447	-17.735	3.430
6.453	-17.741	3.425
6.459	-17.749	3.427
6.462	-17.754	3.433
5.849	-18.301	3.431
5.846	-18.298	3.439
5.841	-18.292	3.443
5.835	-18.285	3.442
5.832	-18.279	3.435
5.831	-18.278	3.426
5.834	-18.281	3.418
5.840	-18.287	3.413
5.845	-18.294	3.415
5.849	-18.300	3.422
5.684	-18.423	3.407
5.680	-18.419	3.415
5.674	-18.412	3.418
5.669	-18.405	3.416
5.667	-18.400	3.409
5.667	-18.399	3.399
5.671	-18.402	3.392
5.676	-18.409	3.388
5.681	-18.416	3.391
5.684	-18.422	3.398
7.115	-17.390	3.638
7.123	-17.388	3.641
7.131	-17.391	3.645
7.135	-17.399	3.649
7.133	-17.408	3.652
7.126	-17.414	3.651
7.118	-17.416	3.649
7.110	-17.413	3.645
7.106	-17.405	3.641
7.108	-17.396	3.638
7.393	-17.658	2.889
7.402	-17.656	2.893
7.409	-17.659	2.897
7.413	-17.667	2.901
7.411	-17.676	2.903
7.405	-17.683	2.902
7.397	-17.685	2.898
7.390	-17.682	2.894
7.386	-17.674	2.890
7.387	-17.665	2.889
7.805	-17.803	2.137
7.813	-17.800	2.142
7.820	-17.803	2.146
7.824	-17.811	2.150
7.824	-17.820	2.151
7.818	-17.827	2.149
7.810	-17.830	2.144
7.803	-17.827	2.140
7.799	-17.819	2.136
7.800	-17.810	2.135
7.924	-17.821	1.945
7.924	-17.816	1.953
7.924	-17.818	1.963
7.924	-17.824	1.969
7.924	-17.834	1.971
7.924	-17.842	1.966
7.924	-17.846	1.958
7.924	-17.845	1.949
7.924	-17.838	1.942
7.924	-17.829	1.941
7.172	-17.557	3.665
7.167	-17.554	3.672
7.161	-17.548	3.675
7.156	-17.540	3.673
7.154	-17.535	3.666
7.156	-17.533	3.657
7.161	-17.535	3.650
7.167	-17.542	3.647
7.172	-17.549	3.649
7.174	-17.555	3.656
6.579	-18.032	3.441
6.574	-18.029	3.448
6.568	-18.023	3.451
6.563	-18.016	3.449
6.560	-18.010	3.442
6.562	-18.008	3.433
6.567	-18.011	3.426
6.573	-18.017	3.423
6.578	-18.024	3.425
6.580	-18.030	3.432
5.933	-18.557	3.218
5.928	-18.553	3.225
5.922	-18.546	3.227
5.919	-18.538	3.223
5.918	-18.533	3.215
5.920	-18.532	3.207
5.925	-18.537	3.200
5.931	-18.544	3.198
5.935	-18.551	3.202
5.935	-18.556	3.209
5.207	-18.958	2.997
5.203	-18.953	3.003
5.198	-18.945	3.003
5.195	-18.937	2.999
5.196	-18.933	2.990
5.199	-18.934	2.982
5.204	-18.940	2.976
5.208	-18.948	2.975
5.211	-18.955	2.980
5.211	-18.959	2.988
7.212	-17.681	3.661
7.209	-17.675	3.668
7.206	-17.673	3.676
7.203	-17.678	3.684
7.201	-17.686	3.687
7.202	-17.695	3.686
7.204	-17.701	3.680
7.208	-17.703	3.671
7.211	-17.698	3.664
7.212	-17.690	3.660
7.930	-17.692	3.957
7.928	-17.686	3.963
7.924	-17.684	3.972
7.921	-17.688	3.979
7.919	-17.696	3.983
7.919	-17.706	3.982
7.921	-17.712	3.976
7.925	-17.714	3.968
7.929	-17.710	3.960
7.931	-17.702	3.956
8.648	-17.731	4.306
8.645	-17.724	4.312
8.642	-17.723	4.320
8.639	-17.727	4.328
8.636	-17.735	4.332
8.636	-17.744	4.330
8.638	-17.751	4.324
8.642	-17.752	4.316
8.645	-17.748	4.308
8.648	-17.740	4.304
9.317	-17.788	4.565
9.325	-17.784	4.565
9.334	-17.785	4.565
9.341	-17.792	4.565
9.342	-17.801	4.565
9.338	-17.809	4.565
9.330	-17.814	4.565
9.321	-17.812	4.565
9.314	-17.806	4.565
9.313	-17.796	4.565
7.243	-17.819	3.679
7.251	-17.817	3.683
7.259	-17.820	3.687
7.262	-17.828	3.691
7.261	-17.837	3.693
7.255	-17.844	3.692
7.247	-17.846	3.688
7.239	-17.843	3.684
7.236	-17.835	3.680
7.237	-17.826	3.678
7.621	-18.022	2.952
7.628	-18.020	2.956
7.635	-18.024	2.962
7.638	-18.031	2.966
7.636	-18.040	2.968
7.629	-18.047	2.967
7.622	-18.049	2.962
7.615	-18.046	2.957
7.612	-18.038	2.952
7.614	-18.029	2.950
8.164	-18.348	2.327
8.172	-18.346	2.332
8.177	-18.350	2.339
8.178	-18.357	2.345
8.175	-18.365	2.348
8.168	-18.371	2.346
8.161	-18.373	2.341
8.155	-18.370	2.334
8.154	-18.363	2.328
8.157	-18.354	2.326
8.419	-18.595	2.036
8.424	-18.595	2.044
8.422	-18.595	2.053
8.416	-18.595	2.060
8.407	-18.595	2.061
8.398	-18.595	2.057
8.394	-18.595	2.049
8.396	-18.595	2.039
8.402	-18.595	2.033
8.411	-18.595	2.031
7.302	-17.986	3.698
7.306	-17.977	3.699
7.305	-17.968	3.699
7.298	-17.962	3.699
7.289	-17.960	3.698
7.281	-17.964	3.697
7.276	-17.972	3.696
7.278	-17.981	3.695
7.284	-17.988	3.696
7.293	-17.990	3.696
7.213	-18.050	4.530
7.217	-18.042	4.531
7.215	-18.033	4.531
7.208	-18.026	4.532
7.199	-18.025	4.532
7.191	-18.029	4.531
7.187	-18.038	4.530
7.189	-18.047	4.530
7.195	-18.053	4.529
7.204	-18.054	4.529
7.259	-18.114	5.372
7.263	-18.106	5.374
7.262	-18.097	5.374
7.255	-18.090	5.374
7.246	-18.089	5.373
7.238	-18.093	5.372
7.234	-18.101	5.371
7.235	-18.110	5.370
7.242	-18.117	5.371
7.251	-18.118	5.371
7.222	-18.101	5.464
7.222	-18.097	5.472
7.222	-18.098	5.482
7.222	-18.105	5.488
7.222	-18.114	5.490
7.222	-18.122	5.485
7.222	-18.127	5.477
7.222	-18.125	5.468
7.222	-18.119	5.461
7.222	-18.109	5.460
7.341	-18.130	3.713
7.337	-18.128	3.721
7.331	-18.121	3.724
7.326	-18.114	3.721
7.324	-18.108	3.714
7.325	-18.106	3.705
7.330	-18.109	3.698
7.336	-18.116	3.695
7.341	-18.123	3.697
7.343	-18.129	3.704
6.681	-18.647	3.488
6.677	-18.645	3.496
6.671	-18.640	3.500
6.665	-18.633	3.499
6.662	-18.627	3.493
6.662	-18.624	3.484
6.666	-18.626	3.476
6.673	-18.631	3.471
6.678	-18.638	3.473
6.682	-18.644	3.479
6.152	-19.178	3.305
6.148	-19.177	3.313
6.142	-19.173	3.318
6.136	-19.166	3.318
6.132	-19.160	3.313
6.131	-19.157	3.304
6.135	-19.157	3.296
6.141	-19.162	3.290
6.148	-19.168	3.291
6.152	-19.174	3.296
5.798	-19.520	3.157
5.794	-19.520	3.166
5.787	-19.515	3.170
5.781	-19.509	3.170
5.777	-19.502	3.165
5.777	-19.499	3.156
5.781	-19.499	3.148
5.788	-19.504	3.143
5.794	-19.511	3.143
5.798	-19.517	3.149
7.384	-18.274	3.725
7.380	-18.271	3.732
7.374	-18.264	3.736
7.369	-18.257	3.733
7.366	-18.251	3.726
7.367	-18.250	3.717
7.372	-18.253	3.710
7.377	-18.259	3.706
7.383	-18.267	3.709
7.385	-18.272	3.716
6.719	-18.779	3.564
6.714	-18.776	3.571
6.709	-18.769	3.574
6.704	-18.762	3.572
6.701	-18.756	3.565
6.703	-18.755	3.556
6.707	-18.758	3.548
6.713	-18.764	3.545
6.718	-18.772	3.548
6.720	-18.777	3.555
6.123	-19.233	3.378
6.119	-19.232	3.386
6.113	-19.226	3.390
6.107	-19.219	3.389
6.103	-19.213	3.383
6.103	-19.210	3.374
6.108	-19.212	3.366
6.114	-19.217	3.362
6.120	-19.224	3.363
6.123	-19.230	3.369
5.786	-19.598	3.242
5.783	-19.598	3.251
5.777	-19.594	3.257
5.770	-19.588	3.258
5.765	-19.582	3.253
5.764	-19.578	3.245
5.767	-19.577	3.236
5.773	-19.581	3.230
5.780	-19.587	3.229
5.785	-19.593	3.234
7.421	-18.418	3.739
7.416	-18.415	3.746
7.410	-18.408	3.748
7.406	-18.401	3.745
7.405	-18.395	3.737
7.407	-18.394	3.728
7.413	-18.397	3.721
7.418	-18.404	3.719
7.423	-18.412	3.723
7.424	-18.417	3.730
6.814	-18.868	3.495
6.810	-18.865	3.503
6.804	-18.858	3.505
[...]
         <CellData>
           <DataArray type="Float32" Name="combinedRootClassID" NumberOfComponents="1" format="ascii">
 -1.300e+01 -1.300e+01 -1.300e+01 -1.300e+01 -1.300e+01 -1.300e+01 -1.300e+01 -1.300e+01 -1.300e+01 -1.300e+01 -1.300e+01 -1.300e+01 -1.300e+01 -1.300e+01 -1.300e+01 -1.300e+01 -1.300e+01 -1.300e+01 -1.300e+01 -1.300e+01 -1.300e+01 -1.300e+01 -1.300e+01 -1.300e+01 -1.300e+01 -1.300e+01 -1.300e+01 -1.300e+01 -1.300e+01 -1.300e+01 -1.300e+01 -1.300e+01 -1.300e+01 -1.300e+01 -1.300e+01 -1.300e+01 -1.300e+01 -1.300e+01 -1.300e+01 -1.300e+01 -1.300e+01 -1.300e+01 -1.300e+01 -1.300e+01 -1.300e+01 -1.300e+01 -1.300e+01 -1.300e+01 -1.300e+01 -1.300e+01 -1.300e+01 -1.300e+01 -1.300e+01 -1.300e+01 -1.300e+01 -1.300e+01 -1.300e+01 -1.300e+01 -1.300e+01 -1.300e+01 -1.300e+01 -1.300e+01 -1.300e+01 -1.300e+01 -1.300e+01 -1.300e+01 -1.300e+01 -1.300e+01 -1.300e+01 -1.300e+01 -1.300e+01 -1.300e+01 -1.300e+01 -1.300e+01 -1.300e+01 -1.300e+01 -1.300e+01 -1.300e+01 -1.300e+01 -1.300e+01 -1.300e+01 -1.300e+01 -1.300e+01 -1.300e+01 -1.300e+01 -1.300e+01 -1.300e+01 -1.300e+01 -1.300e+01 -1.300e+01 -1.300e+01 -1.300e+01 -1.300e+01 -1.300e+01 -1.300e+01 -1.300e+01 -1.300e+01 -1.300e+01 -1.300e+01 -1.300e+01 -1.300e+01 -1.300e+01 -1.300e+01 -1.300e+01 -1.300e+01 -1.300e+01 -1.300e+01 -1.300e+01 -1.300e+01 -1.300e+01 -1.300e+01 -1.300e+01 -1.300e+01 -1.300e+01 -1.300e+01 -1.300e+01 -1.300e+01 -1.300e+01 -1.300e+01 -1.300e+01 -1.300e+01 -1.300e+01 -1.300e+01 -1.300e+01 -1.300e+01 -1.300e+01 -1.300e+01 -1.300e+01 -1.300e+01 -1.300e+01 -1.300e+01 -1.300e+01 -1.300e+01 -1.300e+01 -1.300e+01 -1.300e+01 -1.300e+01 -1.300e+01 -1.300e+01 -1.300e+01 -1.300e+01 -1.300e+01 -1.300e+01 -1.300e+01 -1.300e+01 -1.300e+01 -1.300e+01 -1.300e+01 -1.300e+01 -1.300e+01 -1.300e+01 -1.300e+01 -1.300e+01 -1.300e+01 -1.300e+01 -1.300e+01 -1.300e+01 -1.300e+01 -1.300e+01 -1.300e+01 -1.300e+01 -1.300e+01 -1.300e+01 -1.300e+01 -1.300e+01 -1.300e+01 -1.300e+01 -1.300e+01 -1.300e+01 -1.300e+01 -1.300e+01 -1.300e+01 -1.300e+01 -1.300e+01 -1.300e+01 -1.300e+01 -1.300e+01 -1.300e+01 -1.300e+01 -1.300e+01 -1.300e+01 -1.300e+01 -1.300e+01 -1.300e+01 -1.300e+01 -1.300e+01 -1.300e+01 -1.300e+01 -1.300e+01 -1.300e+01 -1.300e+01 -1.300e+01 -1.300e+01 -1.300e+01 -1.300e+01 -1.300e+01 -1.300e+01 -1.300e+01 -1.300e+01 -1.300e+01 -1.300e+01 -1.300e+01 -1.300e+01 -1.300e+01 -1.300e+01 -1.300e+01 -1.300e+01 -1.300e+01 -1.300e+01 -1.300e+01 -1.300e+01 -1.300e+01 -1.300e+01 -1.300e+01 -1.300e+01 -1.300e+01 -1.300e+01 -1.300e+01 -1.300e+01 -1.300e+01 -1.300e+01 -1.300e+01 -1.300e+01 -1.300e+01 -1.300e+01 -1.300e+01 -1.300e+01 -1.300e+01 -1.300e+01 -1.300e+01 -1.300e+01 -1.300e+01 -1.300e+01 -1.300e+01 -1.300e+01 -1.300e+01 -1.300e+01 -1.300e+01 -1.300e+01 -1.300e+01 -1.300e+01 -1.300e+01 -1.300e+01 -1.300e+01 -1.300e+01 -1.300e+01 -1.300e+01 -1.300e+01 -1.300e+01 -1.300e+01 -1.300e+01 -1.300e+01 -1.300e+01 -1.300e+01 -1.300e+01 -1.300e+01 -1.300e+01 -1.300e+01 -1.300e+01 -1.300e+01 -1.300e+01 -1.300e+01 -1.300e+01 -1.300e+01 -1.300e+01 -1.300e+01 -1.300e+01 -1.300e+01 -1.300e+01 -1.300e+01 -1.300e+01 -1.300e+01 -1.300e+01 -1.300e+01 -1.300e+01 -1.300e+01 -1.300e+01 -1.300e+01 -1.300e+01 -1.300e+01 -1.300e+01 -1.300e+01 -1.300e+01 -1.300e+01 -1.300e+01 -1.300e+01 -1.300e+01 -1.300e+01 -1.300e+01 -1.300e+01 -1.300e+01 -1.300e+01 -1.300e+01 -1.300e+01 -1.300e+01 -1.300e+01 -1.300e+01 -1.300e+01 -1.300e+01 -1.300e+01 -1.300e+01 -1.300e+01 -1.300e+01 -1.300e+01 -1.300e+01 -1.300e+01 -1.300e+01 -1.300e+01 -1.300e+01 -1.300e+01 -1.300e+01 -1.300e+01 -1.300e+01 -1.300e+01 -1.300e+01 -1.300e+01 -1.300e+01 -1.300e+01 -1.300e+01 -1.300e+01 -1.300e+01 -1.300e+01 -1.300e+01 -1.300e+01 -1.300e+01 -1.300e+01 -1.300e+01 -1.300e+01 -1.300e+01 -1.300e+01 -1.300e+01 -1.300e+01 -1.300e+01 -1.300e+01 -1.300e+01 -1.300e+01 -1.300e+01 -1.300e+01 -1.300e+01 -1.300e+01 -1.300e+01 -1.300e+01 -1.300e+01 -1.300e+01 -1.300e+01 -1.300e+01 -1.300e+01 -1.300e+01 -1.300e+01 -1.300e+01 -1.300e+01 -1.300e+01 -1.300e+01 -1.300e+01 -1.300e+01 -1.300e+01 -1.300e+01 -1.300e+01 -1.300e+01 -1.300e+01 -1.300e+01 -1.300e+01 -1.300e+01 -1.300e+01 -1.300e+01 -1.300e+01 -1.300e+01 -1.300e+01 -1.300e+01 -1.300e+01 -1.300e+01 -1.300e+01 -1.300e+01 -1.300e+01 -1.300e+01 -1.300e+01 -1.300e+01 -1.300e+01 -1.300e+01 -1.300e+01 -1.300e+01 -1.300e+01 -1.300e+01 -1.300e+01 -1.300e+01 -1.300e+01 -1.300e+01 -1.300e+01 -1.300e+01 -1.300e+01 -1.300e+01 -1.300e+01 -1.300e+01 -1.300e+01 -1.300e+01 -1.300e+01 -1.300e+01 -1.300e+01 -1.300e+01 -1.300e+01 -1.300e+01 -1.300e+01 -1.300e+01 -1.300e+01 -1.300e+01 -1.300e+01 -1.300e+01 -1.300e+01 -1.300e+01 -1.300e+01 -1.300e+01 -1.300e+01 -1.300e+01 -1.300e+01 -1.300e+01 -1.300e+01 -1.300e+01 -1.300e+01 -1.300e+01 -1.300e+01 -1.300e+01 -1.300e+01 -1.300e+01 -1.300e+01 -1.300e+01 -1.300e+01 -1.300e+01 -1.300e+01 -1.300e+01 -1.300e+01 -1.300e+01 -1.300e+01 -1.300e+01 -1.300e+01 -1.300e+01 -1.300e+01 -1.300e+01 -1.300e+01 -1.300e+01 -1.300e+01 -1.300e+01 -1.300e+01 -1.300e+01 -1.300e+01 -1.300e+01 -1.300e+01 -1.300e+01 -1.300e+01 -1.300e+01 -1.300e+01 -1.300e+01 -1.300e+01 -1.300e+01 -1.300e+01 -1.300e+01 -1.300e+01 -1.300e+01 -1.300e+01 -1.300e+01 -1.300e+01 -1.300e+01 -1.300e+01 -1.300e+01 -1.300e+01 -1.300e+01 -1.300e+01 -1.300e+01 -1.300e+01 -1.300e+01 -1.300e+01 -1.300e+01 -1.300e+01 -1.300e+01 -1.300e+01 -1.300e+01 -1.300e+01 -1.300e+01 -1.300e+01 -1.300e+01 -1.300e+01 -1.300e+01 -1.300e+01 -1.300e+01 -1.300e+01 -1.300e+01 -1.300e+01 -1.300e+01 -1.300e+01 -1.300e+01 -1.300e+01 -1.300e+01 -1.300e+01 -1.300e+01 -1.300e+01 -1.300e+01 -1.300e+01 -1.300e+01 -1.300e+01 -1.300e+01 -1.300e+01 -1.300e+01 -1.300e+01 -1.300e+01 -1.300e+01 -1.300e+01 -1.300e+01 -1.300e+01 -1.300e+01 -1.300e+01 -1.300e+01 -1.300e+01 -1.300e+01 -1.300e+01 -1.300e+01 -1.300e+01 -1.300e+01 -1.300e+01 -1.300e+01 -1.300e+01 -1.300e+01 -1.300e+01 -1.300e+01 -1.300e+01 -1.300e+01 -1.300e+01 -1.300e+01 -1.300e+01 -1.300e+01 -1.300e+01 -1.300e+01 -1.300e+01 -1.300e+01 -1.300e+01 -1.300e+01 -1.300e+01 -1.300e+01 -1.300e+01 -1.300e+01 -1.300e+01 -1.300e+01 -1.300e+01 -1.300e+01 -1.300e+01 -1.300e+01 -1.300e+01 -1.300e+01 -1.300e+01 -1.300e+01 -1.300e+01 -1.300e+01 -1.300e+01 -1.300e+01 -1.300e+01 -1.300e+01 -1.300e+01 -1.300e+01 -1.300e+01 -1.300e+01 -1.300e+01 -1.300e+01 -1.300e+01 -1.300e+01 -1.300e+01 -1.300e+01 -1.300e+01 -1.300e+01 -1.300e+01 -1.300e+01 -1.300e+01 -1.300e+01 -1.300e+01 -1.300e+01 -1.300e+01 -5.000e+00 -5.000e+00 -5.000e+00 -5.000e+00 -5.000e+00 -5.000e+00 -5.000e+00 -5.000e+00 -5.000e+00 -5.000e+00 -5.000e+00 -5.000e+00 -5.000e+00 -5.000e+00 -5.000e+00 -5.000e+00 -5.000e+00 -5.000e+00 -5.000e+00 -5.000e+00 -5.000e+00 -5.000e+00 -5.000e+00 -5.000e+00 -5.000e+00 -5.000e+00 -5.000e+00 -5.000e+00 -5.000e+00 -5.000e+00 -5.000e+00 -5.000e+00 -5.000e+00 -5.000e+00 -5.000e+00 -5.000e+00 -5.000e+00 -5.000e+00 -5.000e+00 -5.000e+00 -5.000e+00 -5.000e+00 -5.000e+00 -5.000e+00 -5.000e+00 -5.000e+00 -5.000e+00 -5.000e+00 -1.300e+01 -1.300e+01 -1.300e+01 -1.300e+01 -1.300e+01 -1.300e+01 -1.300e+01 -1.300e+01 -1.300e+01 -1.300e+01 -1.300e+01 -1.300e+01 -1.300e+01 -1.300e+01 -1.300e+01 -1.300e+01 -1.300e+01 -1.300e+01 -1.300e+01 -1.300e+01 -1.300e+01 -1.300e+01 -1.300e+01 -1.300e+01 -1.300e+01 -1.300e+01 -1.300e+01 -1.300e+01 -1.300e+01 -1.300e+01 -1.300e+01 -1.300e+01 -1.300e+01 -1.300e+01 -1.300e+01 -1.300e+01 -1.300e+01 -1.300e+01 -1.300e+01 -1.300e+01 -1.300e+01 -1.300e+01 -1.300e+01 -1.300e+01 -1.300e+01 -1.300e+01 -1.300e+01 -1.300e+01 -1.300e+01 -1.300e+01 -1.300e+01 -1.300e+01 -1.300e+01 -1.300e+01 -1.300e+01 -1.300e+01 -1.300e+01 -1.300e+01 -1.300e+01 -1.300e+01 -1.300e+01 -1.300e+01 -1.300e+01 -1.300e+01 -1.300e+01 -1.300e+01 -1.300e+01 -1.300e+01 -1.300e+01 -1.300e+01 -1.300e+01 -1.300e+01 -1.300e+01 -1.300e+01 -1.300e+01 -1.300e+01 -1.300e+01 -1.300e+01 -1.300e+01 -1.300e+01 -1.300e+01 -1.300e+01 -1.300e+01 -1.300e+01 -1.300e+01 -1.300e+01 -1.300e+01 -1.300e+01 -1.300e+01 -1.300e+01 -1.300e+01 -1.300e+01 -1.300e+01 -1.300e+01 -1.300e+01 -1.300e+01 -1.300e+01 -1.300e+01 -1.300e+01 -1.300e+01 -1.300e+01 -1.300e+01 -1.300e+01 -1.300e+01 -1.300e+01 -1.300e+01 -1.300e+01 -1.300e+01 -1.300e+01 -1.300e+01 -1.300e+01 -1.300e+01 -1.300e+01 -1.300e+01 -1.300e+01 -1.300e+01 -1.300e+01 -1.300e+01 -1.300e+01 -1.300e+01 -1.300e+01 -1.300e+01 -1.300e+01 -1.300e+01 -1.300e+01 -1.300e+01 -1.300e+01 -1.300e+01 -1.300e+01 -1.300e+01 -1.300e+01 -1.300e+01 -1.300e+01 -1.300e+01 -1.300e+01 -1.300e+01 -1.300e+01 -1.300e+01 -1.300e+01 -1.300e+01 -1.300e+01 -1.300e+01 -1.300e+01 -1.300e+01 -1.300e+01 -1.300e+01 -1.300e+01 -1.300e+01 -1.300e+01 -1.300e+01 -1.300e+01 -1.300e+01 -1.300e+01 -1.300e+01 -1.300e+01 -1.300e+01 -1.300e+01 -1.300e+01 -1.300e+01 -1.300e+01 -1.300e+01 -1.300e+01 -1.300e+01 -1.300e+01 -1.300e+01 -1.300e+01 -1.300e+01 -1.300e+01 -1.300e+01 -1.300e+01 -1.300e+01 -1.300e+01 -1.300e+01 -1.300e+01 -1.300e+01 -1.300e+01 -1.300e+01 -1.300e+01 -1.300e+01 -1.300e+01 -1.300e+01 -1.300e+01 -1.300e+01 -1.300e+01 -1.300e+01 -1.300e+01 -1.300e+01 -1.300e+01 -1.300e+01 -1.300e+01 -1.300e+01 -1.300e+01 -1.300e+01 -1.300e+01 -1.300e+01 -1.300e+01 -1.300e+01 -1.300e+01 -1.300e+01 -1.300e+01 -1.300e+01 -1.300e+01 -1.300e+01 -1.300e+01 -1.300e+01 -1.300e+01 -1.300e+01 -1.300e+01 -1.300e+01 -1.300e+01 -1.300e+01 -1.300e+01 -1.300e+01 -1.300e+01 -1.300e+01 -1.300e+01 -1.300e+01 -1.300e+01 -1.300e+01 -1.300e+01 -1.300e+01 -1.300e+01 -1.300e+01 -1.300e+01 -1.300e+01 -1.300e+01 -1.300e+01 -1.300e+01 -1.300e+01 -1.300e+01 -1.300e+01 -1.300e+01 -1.300e+01 -1.300e+01 -1.300e+01 -1.300e+01 -1.300e+01 -1.300e+01 -1.300e+01 -1.300e+01 -1.300e+01 -1.300e+01 -1.300e+01 -1.300e+01 -1.300e+01 -1.300e+01 -1.300e+01 -1.300e+01 -1.300e+01 -1.300e+01 -1.300e+01 -1.300e+01 -1.300e+01 -1.300e+01 -1.300e+01 -1.300e+01 -1.300e+01 -1.300e+01 -1.300e+01 -1.300e+01 -1.300e+01 -1.300e+01 -1.300e+01 -1.300e+01 -1.300e+01 -1.300e+01 -1.300e+01 -1.300e+01 -1.300e+01 -1.300e+01 -1.300e+01 -1.300e+01 -1.300e+01 -1.300e+01 -1.300e+01 -1.300e+01 -1.300e+01 -1.300e+01 -1.300e+01 -1.300e+01 -1.300e+01 -1.300e+01 -1.300e+01 -1.300e+01 -1.300e+01 -1.300e+01 -1.300e+01 -1.300e+01 -1.300e+01 -1.300e+01 -1.300e+01 -1.300e+01 -1.300e+01 -1.300e+01 -1.300e+01 -1.300e+01 -1.300e+01 -1.300e+01 -1.300e+01 -1.300e+01 -1.300e+01 -1.300e+01 -1.300e+01 -1.300e+01 -1.300e+01 -1.300e+01 -1.300e+01 -1.300e+01 -1.300e+01 -1.300e+01 -1.300e+01 -1.300e+01 -1.300e+01 -1.300e+01 -1.300e+01 -1.300e+01 -1.300e+01 -1.300e+01 -1.300e+01 -1.300e+01 -1.300e+01 -1.300e+01 -1.300e+01 -1.300e+01 -1.300e+01 -1.300e+01 -1.300e+01 -1.300e+01 -1.300e+01 -1.300e+01 -1.300e+01 -1.300e+01 -1.300e+01 -1.300e+01 -1.300e+01 -1.300e+01 -1.300e+01 -1.300e+01 -1.300e+01 -1.300e+01 -1.300e+01 -1.300e+01 -1.300e+01 -1.300e+01 -1.300e+01 -1.300e+01 -1.300e+01 -1.300e+01 -1.300e+01 -1.300e+01 -1.300e+01 -1.300e+01 -1.300e+01 -1.300e+01 -1.300e+01 -1.300e+01 -1.300e+01 -1.300e+01 -1.300e+01 -1.300e+01 -1.300e+01 -1.300e+01 -1.300e+01 -1.300e+01 -1.300e+01 -1.300e+01 -1.300e+01 -1.300e+01 -1.300e+01 -1.300e+01 -1.300e+01 -1.300e+01 -1.300e+01 -1.300e+01 -1.300e+01 -1.300e+01 -1.300e+01 -1.300e+01 -1.300e+01 -1.300e+01 -1.300e+01 -1.300e+01 -1.300e+01 -1.300e+01 -1.300e+01 -1.300e+01 -1.300e+01 -1.300e+01 -1.300e+01 -1.300e+01 -1.300e+01 -1.300e+01 -1.300e+01 -1.300e+01 -1.300e+01 -1.300e+01 -1.300e+01 -1.300e+01 -1.300e+01 -1.300e+01 -1.300e+01 -1.300e+01 -1.300e+01 -1.300e+01 -1.300e+01 -1.300e+01 -1.300e+01 -1.300e+01 -1.300e+01 -1.300e+01 -1.300e+01 -1.300e+01 -1.300e+01 -1.300e+01 -1.300e+01 -1.300e+01 -1.300e+01 -1.300e+01 -1.300e+01 -1.300e+01 -1.300e+01 -1.300e+01 -1.300e+01 -1.300e+01 -1.300e+01 -1.300e+01 -1.300e+01 -1.300e+01 -1.300e+01 -1.300e+01 -1.300e+01 -1.300e+01 -1.300e+01 -1.300e+01 -1.300e+01 -1.300e+01 -1.300e+01 -1.300e+01 -1.300e+01 -1.300e+01 -1.300e+01 -1.300e+01 -1.300e+01 -1.300e+01 -1.300e+01 -1.300e+01 -1.300e+01 -1.300e+01 -1.300e+01 -1.300e+01 -1.300e+01 -1.300e+01 -1.300e+01 -1.300e+01 -1.300e+01 -1.300e+01 -1.300e+01 -1.300e+01 -1.300e+01 -1.300e+01 -1.300e+01 -1.300e+01 -1.300e+01 -1.300e+01 -1.300e+01 -1.300e+01 -1.300e+01 -1.300e+01 -1.300e+01 -1.300e+01 -1.300e+01 -1.300e+01 -1.300e+01 -1.300e+01 -1.300e+01 -1.300e+01 -1.300e+01 -1.300e+01 -1.300e+01 -1.300e+01 -1.300e+01 -1.300e+01 -1.300e+01 -1.300e+01 -1.300e+01 -1.300e+01 -1.300e+01 -1.300e+01 -1.300e+01 -1.300e+01 -1.300e+01 -1.300e+01 -1.300e+01 -1.300e+01 -1.300e+01 -1.300e+01 -1.300e+01 -1.300e+01 -1.300e+01 -1.300e+01 -1.300e+01 -1.300e+01 -1.300e+01 -1.300e+01 -1.300e+01 -1.300e+01 -1.300e+01 -1.300e+01 -1.300e+01 -1.300e+01 -1.300e+01 -1.300e+01 -1.300e+01 -1.300e+01 -1.300e+01 -1.300e+01 -1.300e+01 -1.300e+01 -1.300e+01 -1.300e+01 -1.300e+01 -1.300e+01 -1.300e+01 -1.300e+01 -1.300e+01 -1.300e+01 -1.300e+01 -1.300e+01 -1.300e+01 -1.300e+01 -1.300e+01 -1.300e+01 -1.300e+01 -1.300e+01 -1.300e+01 -1.300e+01 -1.300e+01 -1.300e+01 -1.300e+01 -1.300e+01 -1.300e+01 -1.300e+01 -1.300e+01 -1.300e+01 -1.300e+01 -1.300e+01 -1.300e+01 -1.300e+01 -1.300e+01 -1.300e+01 -1.300e+01 -1.300e+01 -1.300e+01 -1.300e+01 -1.300e+01 -1.300e+01 -1.300e+01 -1.300e+01 -1.300e+01 -1.300e+01 -1.300e+01 -1.300e+01 -1.300e+01 -1.300e+01 -1.300e+01 -1.300e+01 -1.300e+01 -1.300e+01 -1.300e+01 -1.300e+01 -1.300e+01 -1.300e+01 -1.300e+01 -1.300e+01 -1.300e+01 -5.000e+00 -5.000e+00 -5.000e+00 -5.000e+00 -5.000e+00 -5.000e+00 -5.000e+00 -5.000e+00 -5.000e+00 -5.000e+00 -5.000e+00 -5.000e+00 -5.000e+00 -5.000e+00 -5.000e+00 -5.000e+00 -5.000e+00 -5.000e+00 -5.000e+00 -5.000e+00 -5.000e+00 -5.000e+00 -5.000e+00 -5.000e+00 -5.000e+00 -5.000e+00 -5.000e+00 -5.000e+00 -5.000e+00 -5.000e+00 -5.000e+00 -5.000e+00 -5.000e+00 -5.000e+00 -5.000e+00 -5.000e+00 -5.000e+00 -5.000e+00 -5.000e+00 -5.000e+00 -5.000e+00 -5.000e+00 -5.000e+00 -5.000e+00 -5.000e+00 -5.000e+00 -5.000e+00 -5.000e+00 -1.300e+01 -1.300e+01 -1.300e+01 -1.300e+01 -1.300e+01 -1.300e+01 -1.300e+01 -1.300e+01 -1.300e+01 -1.300e+01 -1.300e+01 -1.300e+01 -1.300e+01 -1.300e+01 -1.300e+01 -1.300e+01 -1.300e+01 -1.300e+01 -1.300e+01 -1.300e+01 -1.300e+01 -1.300e+01 -1.300e+01 -1.300e+01 -1.300e+01 -1.300e+01 -1.300e+01 -1.300e+01 -1.300e+01 -1.300e+01 -1.300e+01 -1.300e+01 -1.300e+01 -1.300e+01 -1.300e+01 -1.300e+01 -1.300e+01 -1.300e+01 -1.300e+01 -1.300e+01 -1.300e+01 -1.300e+01 -1.300e+01 -1.300e+01 -1.300e+01 -1.300e+01 -1.300e+01 -1.300e+01 -1.300e+01 -1.300e+01 -1.300e+01 -1.300e+01 -1.300e+01 -1.300e+01 -1.300e+01 -1.300e+01 -1.300e+01 -1.300e+01 -1.300e+01 -1.300e+01 -1.300e+01 -1.300e+01 -1.300e+01 -1.300e+01 -1.300e+01 -1.300e+01 -1.300e+01 -1.300e+01 -1.300e+01 -1.300e+01 -1.300e+01 -1.300e+01 -1.300e+01 -1.300e+01 -1.300e+01 -1.300e+01 -1.300e+01 -1.300e+01 -1.300e+01 -1.300e+01 -1.300e+01 -1.300e+01 -1.300e+01 -1.300e+01 -1.300e+01 -1.300e+01 -1.300e+01 -1.300e+01 -1.300e+01 -1.300e+01 -1.300e+01 -1.300e+01 -1.300e+01 -1.300e+01 -1.300e+01 -1.300e+01 -1.300e+01 -1.300e+01 -1.300e+01 -1.300e+01 -1.300e+01 -1.300e+01 -1.300e+01 -1.300e+01 -1.300e+01 -1.300e+01 -1.300e+01 -1.300e+01 -1.300e+01 -1.300e+01 -1.300e+01 -1.300e+01 -1.300e+01 -1.300e+01 -1.300e+01 -1.300e+01 -1.300e+01 -1.300e+01 -1.300e+01 -1.300e+01 -1.300e+01 -1.300e+01 -1.300e+01 -1.300e+01 -1.300e+01 -1.300e+01 -1.300e+01 -1.300e+01 -1.300e+01 -1.300e+01 -1.300e+01 -1.300e+01 -1.300e+01 -1.300e+01 -1.300e+01 -1.300e+01 -1.300e+01 -1.300e+01 -1.300e+01 -1.300e+01 -1.300e+01 -1.300e+01 -1.300e+01 -1.300e+01 -1.300e+01 -1.300e+01 -1.300e+01 -1.300e+01 -1.300e+01 -1.300e+01 -1.300e+01 -1.300e+01 -1.300e+01 -1.300e+01 -1.300e+01 -1.300e+01 -1.300e+01 -1.300e+01 -1.300e+01 -1.300e+01 -1.300e+01 -1.300e+01 -1.300e+01 -1.300e+01 -1.300e+01 -1.300e+01 -1.300e+01 -1.300e+01 -1.300e+01 -1.300e+01 -1.300e+01 -1.300e+01 -1.300e+01 -1.300e+01 -1.300e+01 -1.300e+01 -1.300e+01 -1.300e+01 -1.300e+01 -1.300e+01 -1.300e+01 -1.300e+01 -1.300e+01 -1.300e+01 -1.300e+01 -1.300e+01 -1.300e+01 -1.300e+01 -1.300e+01 -1.300e+01 -1.300e+01 -1.300e+01 -1.300e+01 -1.300e+01 -1.300e+01 -1.300e+01 -1.300e+01 -1.300e+01 -1.300e+01 -1.300e+01 -1.300e+01 -1.300e+01 -1.300e+01 -1.300e+01 -1.300e+01 -1.300e+01 -1.300e+01 -1.300e+01 -1.300e+01 -1.300e+01 -1.300e+01 -1.300e+01 -1.300e+01 -1.300e+01 -1.300e+01 -1.300e+01 -1.300e+01 -1.300e+01 -1.300e+01 -1.300e+01 -1.300e+01 -1.300e+01 -1.300e+01 -1.300e+01 -1.300e+01 -1.300e+01 -1.300e+01 -1.300e+01 -1.300e+01 -1.300e+01 -1.300e+01 -1.300e+01 -1.300e+01 -1.300e+01 -1.300e+01 -1.300e+01 -1.300e+01 -1.300e+01 -1.300e+01 -1.300e+01 -1.300e+01 -1.300e+01 -1.300e+01 -1.300e+01 -1.300e+01 -1.300e+01 -1.300e+01 -1.300e+01 -1.300e+01 -1.300e+01 -1.300e+01 -1.300e+01 -1.300e+01 -1.300e+01 -1.300e+01 -1.300e+01 -1.300e+01 -1.300e+01 -1.300e+01 -1.300e+01 -1.300e+01 -1.300e+01 -1.300e+01 -1.300e+01 -1.300e+01 -1.300e+01 -1.300e+01 -1.300e+01 -1.300e+01 -1.300e+01 -1.300e+01 -1.300e+01 -1.300e+01 -1.300e+01 -1.300e+01 -1.300e+01 -1.300e+01 -1.300e+01 -1.300e+01 -1.300e+01 -1.300e+01 -1.300e+01 -1.300e+01 -1.300e+01 -1.300e+01 -1.300e+01 -1.300e+01 -1.300e+01 -1.300e+01 -1.300e+01 -1.300e+01 -1.300e+01 -1.300e+01 -1.300e+01 -1.300e+01 -1.300e+01 -1.300e+01 -1.300e+01 -1.300e+01 -1.300e+01 -1.300e+01 -1.300e+01 -1.300e+01 -1.300e+01 -1.300e+01 -1.300e+01 -1.300e+01 -1.300e+01 -1.300e+01 -1.300e+01 -1.300e+01 -1.300e+01 -1.300e+01 -1.300e+01 -1.300e+01 -1.300e+01 -1.300e+01 -1.300e+01 -1.300e+01 -1.300e+01 -1.300e+01 -1.300e+01 -1.300e+01 -1.300e+01 -1.300e+01 -1.300e+01 -1.300e+01 -1.300e+01 -1.300e+01 -1.300e+01 -1.300e+01 -1.300e+01 -1.300e+01 -1.300e+01 -1.300e+01 -1.300e+01 -1.300e+01 -1.300e+01 -1.300e+01 -1.300e+01 -1.300e+01 -1.300e+01 -1.300e+01 -1.300e+01 -1.300e+01 -1.300e+01 -1.300e+01 -1.300e+01 -1.300e+01 -1.300e+01 -1.300e+01 -1.300e+01 -1.300e+01 -1.300e+01 -1.300e+01 -1.300e+01 -1.300e+01 -1.300e+01 -1.300e+01 -1.300e+01 -1.300e+01 -1.300e+01 -1.300e+01 -1.300e+01 -1.300e+01 -1.300e+01 -1.300e+01 -1.300e+01 -1.300e+01 -1.300e+01 -1.300e+01 -1.300e+01 -1.300e+01 -1.300e+01 -1.300e+01 -1.300e+01 -1.300e+01 -1.300e+01 -1.300e+01 -1.300e+01 -1.300e+01 -1.300e+01 -1.300e+01 -1.300e+01 -1.300e+01 -1.300e+01 -1.300e+01 -1.300e+01 -1.300e+01 -1.300e+01 -1.300e+01 -1.300e+01 -1.300e+01 -1.300e+01 -1.300e+01 -1.300e+01 -1.300e+01 -1.300e+01 -1.300e+01 -1.300e+01 -1.300e+01 -1.300e+01 -1.300e+01 -1.300e+01 -1.300e+01 -1.300e+01 -1.300e+01 -1.300e+01 -1.300e+01 -1.300e+01 -1.300e+01 -1.300e+01 -1.300e+01 -1.300e+01 -1.300e+01 -1.300e+01 -1.300e+01 -1.300e+01 -1.300e+01 -1.300e+01 -1.300e+01 -1.300e+01 -1.300e+01 -1.300e+01 -1.300e+01 -1.300e+01 -1.300e+01 -1.300e+01 -1.300e+01 -1.300e+01 -1.300e+01 -1.300e+01 -1.300e+01 -1.300e+01 -1.300e+01 -1.300e+01 -1.300e+01 -1.300e+01 -1.300e+01 -1.300e+01 -1.300e+01 -1.300e+01 -1.300e+01 -1.300e+01 -1.300e+01 -1.300e+01 -1.300e+01 -1.300e+01 -1.300e+01 -1.300e+01 -1.300e+01 -1.300e+01 -1.300e+01 -1.300e+01 -1.300e+01 -1.300e+01 -1.300e+01 -1.300e+01 -1.300e+01 -1.300e+01 -1.300e+01 -1.300e+01 -1.300e+01 -1.300e+01 -1.300e+01 -1.300e+01 -1.300e+01 -1.300e+01 -1.300e+01 -1.300e+01 -1.300e+01 -1.300e+01 -1.300e+01 -1.300e+01 -1.300e+01 -1.300e+01 -1.300e+01 -1.300e+01 -1.300e+01 -1.300e+01 -1.300e+01 -1.300e+01 -1.300e+01 -1.300e+01 -1.300e+01 -1.300e+01 -1.300e+01 -1.300e+01 -1.300e+01 -1.300e+01 -1.300e+01 -1.300e+01 -1.300e+01 -1.300e+01 -1.300e+01 -1.300e+01 -1.300e+01 -1.300e+01 -1.300e+01 -1.300e+01 -1.300e+01 -1.300e+01 -1.300e+01 -1.300e+01 -1.300e+01 -1.300e+01 -1.300e+01 -1.300e+01 -1.300e+01 -1.300e+01 -1.300e+01 -1.300e+01 -1.300e+01 -1.300e+01 -1.300e+01 -1.300e+01 -1.300e+01 -1.300e+01 -1.300e+01 -1.300e+01 -1.300e+01 -1.300e+01 -1.300e+01 -1.300e+01 -1.300e+01 -1.300e+01 -1.300e+01 -1.300e+01 -1.300e+01 -1.300e+01 -1.300e+01 -1.300e+01 -1.300e+01 -1.300e+01 -1.300e+01 -1.300e+01 -1.300e+01 -1.300e+01 -1.300e+01 -1.300e+01 -1.300e+01 -1.300e+01 -1.300e+01 -1.300e+01 -1.300e+01 -1.300e+01 -1.300e+01 -1.300e+01 -1.300e+01 -1.300e+01 -1.300e+01 -1.300e+01 -1.300e+01 -1.300e+01 -1.300e+01 -1.300e+01 -1.300e+01 -1.300e+01 -1.300e+01 -1.300e+01 -1.300e+01 -1.300e+01 -1.300e+01