<?xml version="1.0"?>
<VTKFile type="UnstructuredGrid" version="0.1" byte_order="LittleEndian">
   <UnstructuredGrid>
      <Piece NumberOfPoints="4920" NumberOfCells="356">
         <Points>
            <DataArray type="Float32" Name="Position" NumberOfComponents="3" format="ascii">
0.138	-5.019	0.063
0.142	-5.019	0.071
0.141	-5.019	0.080
0.135	-5.019	0.087
0.125	-5.019	0.089
0.117	-5.020	0.084
0.113	-5.020	0.076
0.114	-5.020	0.067
0.121	-5.020	0.060
0.130	-5.020	0.059
0.147	-5.216	0.080
0.151	-5.207	0.080
0.150	-5.198	0.080
0.143	-5.192	0.080
0.134	-5.190	0.080
0.126	-5.194	0.080
0.122	-5.203	0.080
0.123	-5.212	0.080
0.130	-5.218	0.080
0.139	-5.220	0.080
0.261	-5.056	0.132
0.258	-5.048	0.137
0.254	-5.046	0.144
0.249	-5.048	0.152
0.246	-5.056	0.156
0.246	-5.065	0.156
0.249	-5.073	0.152
0.253	-5.076	0.144
0.258	-5.073	0.137
0.261	-5.065	0.132
0.427	-5.059	0.234
0.424	-5.051	0.238
0.419	-5.048	0.246
0.415	-5.051	0.253
0.412	-5.059	0.258
0.411	-5.068	0.258
0.414	-5.075	0.253
0.419	-5.078	0.246
0.423	-5.075	0.238
0.426	-5.068	0.234
0.389	-5.117	0.214
0.393	-5.109	0.216
0.392	-5.100	0.217
0.386	-5.093	0.216
0.377	-5.091	0.214
0.369	-5.095	0.212
0.365	-5.103	0.210
0.366	-5.112	0.209
0.372	-5.119	0.210
0.381	-5.121	0.212
0.355	-5.134	0.359
0.359	-5.126	0.361
0.358	-5.117	0.361
0.352	-5.110	0.361
0.343	-5.108	0.359
0.335	-5.112	0.357
0.331	-5.120	0.355
0.332	-5.129	0.354
0.338	-5.136	0.354
0.347	-5.138	0.356
0.497	-5.146	0.273
0.504	-5.143	0.278
0.510	-5.146	0.285
0.514	-5.154	0.289
0.513	-5.163	0.289
0.508	-5.171	0.286
0.502	-5.173	0.280
0.495	-5.170	0.274
0.492	-5.163	0.270
0.492	-5.153	0.269
0.591	-5.158	0.167
0.598	-5.155	0.173
0.604	-5.158	0.179
0.608	-5.166	0.183
0.607	-5.175	0.183
0.603	-5.182	0.180
0.596	-5.185	0.174
0.589	-5.182	0.168
0.586	-5.174	0.164
0.587	-5.165	0.164
0.634	-5.222	0.333
0.638	-5.224	0.341
0.636	-5.224	0.350
0.629	-5.224	0.356
0.620	-5.223	0.358
0.612	-5.221	0.353
0.608	-5.219	0.345
0.610	-5.218	0.336
0.617	-5.218	0.330
0.626	-5.220	0.328
0.615	-5.332	0.319
0.618	-5.334	0.327
0.617	-5.335	0.336
0.610	-5.334	0.342
0.601	-5.333	0.344
0.593	-5.331	0.339
0.589	-5.329	0.331
0.591	-5.328	0.322
0.598	-5.329	0.316
0.607	-5.330	0.314
0.752	-5.299	0.407
0.756	-5.291	0.409
0.755	-5.282	0.410
0.750	-5.275	0.408
0.741	-5.273	0.406
0.733	-5.276	0.403
0.728	-5.284	0.401
0.729	-5.293	0.401
0.735	-5.300	0.402
0.743	-5.303	0.405
0.718	-5.282	0.474
0.718	-5.278	0.482
0.718	-5.280	0.491
0.718	-5.286	0.498
0.718	-5.295	0.499
0.718	-5.304	0.495
0.718	-5.308	0.487
0.718	-5.306	0.478
0.718	-5.300	0.471
0.718	-5.291	0.470
0.855	-5.344	0.459
0.862	-5.341	0.465
0.869	-5.344	0.470
0.872	-5.352	0.474
0.872	-5.361	0.475
0.867	-5.369	0.472
0.860	-5.371	0.467
0.853	-5.368	0.461
0.849	-5.361	0.457
0.850	-5.352	0.456
0.915	-5.374	0.412
0.919	-5.366	0.412
0.917	-5.356	0.412
0.911	-5.350	0.412
0.902	-5.348	0.412
0.893	-5.353	0.412
0.889	-5.361	0.412
0.891	-5.370	0.412
0.897	-5.377	0.412
0.906	-5.378	0.412
0.990	-5.427	0.514
0.994	-5.428	0.523
0.993	-5.429	0.532
0.986	-5.429	0.538
0.977	-5.428	0.540
0.969	-5.426	0.535
0.965	-5.424	0.527
0.967	-5.424	0.518
0.973	-5.424	0.512
0.982	-5.425	0.510
0.984	-5.468	0.509
0.988	-5.469	0.518
0.987	-5.470	0.527
0.980	-5.470	0.533
0.971	-5.469	0.535
0.963	-5.467	0.530
0.959	-5.466	0.522
0.961	-5.465	0.513
0.967	-5.465	0.507
0.976	-5.466	0.505
1.108	-5.501	0.574
1.111	-5.503	0.583
1.109	-5.503	0.592
1.101	-5.502	0.598
1.092	-5.500	0.598
1.085	-5.498	0.594
1.082	-5.496	0.585
1.084	-5.496	0.576
1.091	-5.497	0.570
1.100	-5.499	0.570
1.104	-5.518	0.573
1.107	-5.519	0.581
1.104	-5.520	0.590
1.097	-5.519	0.596
1.088	-5.516	0.597
1.081	-5.514	0.592
1.078	-5.512	0.583
1.080	-5.512	0.574
1.087	-5.513	0.568
1.096	-5.515	0.568
0.019	-4.981	-0.027
0.019	-4.965	-0.014
0.011	-4.958	0.005
-0.000	-4.963	0.022
-0.011	-4.979	0.030
-0.018	-4.999	0.028
-0.018	-5.015	0.014
-0.010	-5.022	-0.004
0.001	-5.017	-0.021
0.012	-5.001	-0.030
0.799	-5.300	0.398
0.800	-5.284	0.412
0.793	-5.278	0.431
0.782	-5.283	0.448
0.769	-5.298	0.456
0.761	-5.317	0.452
0.760	-5.333	0.439
0.767	-5.340	0.420
0.778	-5.334	0.403
0.791	-5.319	0.395
1.367	-5.663	0.686
1.370	-5.649	0.701
1.365	-5.642	0.720
1.353	-5.647	0.737
1.339	-5.661	0.745
1.329	-5.679	0.740
1.326	-5.694	0.726
1.331	-5.700	0.706
1.343	-5.695	0.690
1.357	-5.681	0.682
1.873	-6.052	0.942
1.878	-6.038	0.957
1.873	-6.032	0.977
1.861	-6.037	0.994
1.846	-6.049	1.001
1.834	-6.066	0.996
1.829	-6.079	0.980
1.834	-6.085	0.961
1.846	-6.081	0.944
1.861	-6.068	0.937
2.398	-6.602	1.203
2.404	-6.589	1.219
2.400	-6.584	1.239
2.387	-6.588	1.255
2.371	-6.600	1.262
2.357	-6.615	1.256
2.351	-6.627	1.240
2.355	-6.632	1.220
2.368	-6.628	1.204
2.384	-6.617	1.197
2.766	-7.042	1.381
2.773	-7.031	1.398
2.769	-7.026	1.418
2.757	-7.030	1.434
2.740	-7.040	1.440
2.725	-7.054	1.434
2.718	-7.065	1.418
2.722	-7.070	1.398
2.734	-7.067	1.381
2.751	-7.056	1.375
3.129	-7.555	1.564
3.137	-7.544	1.580
3.133	-7.539	1.600
3.120	-7.542	1.616
3.102	-7.552	1.622
3.087	-7.564	1.616
3.079	-7.575	1.599
3.083	-7.580	1.579
3.096	-7.577	1.563
3.114	-7.567	1.557
3.481	-8.132	1.766
3.489	-8.122	1.782
3.485	-8.117	1.803
3.472	-8.119	1.818
3.453	-8.128	1.824
3.437	-8.140	1.817
3.430	-8.150	1.800
3.433	-8.155	1.780
3.447	-8.152	1.764
3.465	-8.144	1.759
3.823	-8.773	1.980
3.831	-8.764	1.997
3.828	-8.759	2.017
3.814	-8.761	2.033
3.795	-8.768	2.038
3.778	-8.779	2.031
3.770	-8.788	2.014
3.773	-8.793	1.994
3.787	-8.791	1.978
3.806	-8.784	1.973
4.125	-9.473	2.193
4.133	-9.464	2.210
4.130	-9.460	2.230
4.116	-9.462	2.246
4.097	-9.469	2.251
4.080	-9.479	2.243
4.072	-9.487	2.226
4.075	-9.491	2.206
4.089	-9.490	2.190
4.108	-9.482	2.185
4.453	-10.180	2.369
4.462	-10.171	2.386
4.459	-10.168	2.407
4.445	-10.170	2.423
4.426	-10.178	2.428
4.409	-10.187	2.420
4.400	-10.196	2.403
4.403	-10.199	2.383
4.417	-10.197	2.367
4.436	-10.189	2.362
4.784	-10.889	2.536
4.793	-10.881	2.553
4.790	-10.877	2.574
4.776	-10.879	2.590
4.757	-10.886	2.595
4.740	-10.896	2.587
4.731	-10.904	2.570
4.734	-10.908	2.549
4.748	-10.906	2.534
4.767	-10.899	2.529
5.075	-11.610	2.726
5.083	-11.602	2.743
5.080	-11.599	2.764
5.066	-11.600	2.779
5.047	-11.607	2.784
5.030	-11.616	2.777
5.021	-11.624	2.759
5.024	-11.628	2.739
5.038	-11.626	2.723
5.057	-11.620	2.718
5.230	-11.968	2.813
5.238	-11.960	2.831
5.235	-11.956	2.851
5.222	-11.959	2.867
5.202	-11.966	2.872
5.185	-11.975	2.864
5.176	-11.983	2.847
5.179	-11.987	2.827
5.193	-11.985	2.811
5.212	-11.977	2.806
0.065	-4.993	-0.134
0.073	-4.990	-0.131
0.081	-4.993	-0.127
0.086	-5.001	-0.124
0.086	-5.010	-0.124
0.081	-5.018	-0.126
0.073	-5.020	-0.129
0.065	-5.018	-0.133
0.060	-5.010	-0.136
0.060	-5.001	-0.136
0.141	-5.001	-0.293
0.149	-4.998	-0.289
0.157	-5.001	-0.285
0.162	-5.008	-0.283
0.162	-5.018	-0.282
0.157	-5.025	-0.284
0.149	-5.028	-0.288
0.141	-5.025	-0.292
0.136	-5.018	-0.295
0.136	-5.009	-0.295
0.132	-5.034	-0.249
0.134	-5.025	-0.251
0.139	-5.019	-0.257
0.145	-5.019	-0.264
0.151	-5.025	-0.269
0.153	-5.034	-0.270
0.152	-5.042	-0.268
0.147	-5.048	-0.262
0.140	-5.048	-0.256
0.135	-5.042	-0.251
-0.007	-5.046	-0.388
-0.005	-5.037	-0.390
-0.000	-5.032	-0.396
0.006	-5.032	-0.402
0.012	-5.037	-0.407
0.014	-5.046	-0.409
0.013	-5.055	-0.407
0.008	-5.061	-0.401
0.001	-5.061	-0.395
-0.004	-5.055	-0.389
0.217	-5.061	-0.399
0.215	-5.055	-0.392
0.213	-5.054	-0.383
0.210	-5.059	-0.376
0.209	-5.068	-0.373
0.209	-5.077	-0.375
0.211	-5.083	-0.382
0.213	-5.083	-0.391
0.216	-5.078	-0.399
0.217	-5.069	-0.402
0.375	-5.069	-0.355
0.373	-5.063	-0.348
0.371	-5.063	-0.340
0.368	-5.068	-0.332
0.367	-5.077	-0.329
0.367	-5.086	-0.332
0.369	-5.091	-0.339
0.371	-5.092	-0.348
0.374	-5.087	-0.355
0.375	-5.078	-0.358
0.273	-5.118	-0.499
0.274	-5.110	-0.503
0.280	-5.105	-0.509
0.286	-5.105	-0.515
0.292	-5.111	-0.519
0.295	-5.120	-0.520
0.293	-5.129	-0.516
0.288	-5.133	-0.510
0.281	-5.133	-0.504
0.275	-5.127	-0.500
0.177	-5.140	-0.602
0.179	-5.132	-0.605
0.184	-5.127	-0.611
0.191	-5.127	-0.617
0.197	-5.133	-0.621
0.199	-5.142	-0.622
0.198	-5.151	-0.619
0.192	-5.155	-0.613
0.186	-5.155	-0.606
0.180	-5.149	-0.602
0.342	-5.184	-0.616
0.343	-5.175	-0.618
0.347	-5.169	-0.624
0.353	-5.168	-0.631
0.359	-5.173	-0.636
0.362	-5.181	-0.638
0.361	-5.190	-0.636
0.357	-5.196	-0.630
0.351	-5.197	-0.623
0.345	-5.192	-0.618
0.272	-5.197	-0.679
0.272	-5.188	-0.681
0.277	-5.182	-0.687
0.283	-5.181	-0.694
0.288	-5.185	-0.699
0.292	-5.194	-0.701
0.291	-5.203	-0.699
0.287	-5.209	-0.693
0.281	-5.210	-0.686
0.275	-5.205	-0.681
0.411	-5.239	-0.747
0.419	-5.236	-0.743
0.426	-5.239	-0.738
0.431	-5.246	-0.735
0.431	-5.255	-0.735
0.426	-5.263	-0.738
0.419	-5.266	-0.742
0.411	-5.263	-0.747
0.406	-5.255	-0.750
0.406	-5.246	-0.750
0.465	-5.262	-0.811
0.465	-5.253	-0.807
0.465	-5.244	-0.809
0.465	-5.238	-0.815
0.465	-5.236	-0.824
0.465	-5.241	-0.833
0.465	-5.249	-0.837
0.465	-5.258	-0.835
0.465	-5.264	-0.829
0.465	-5.266	-0.820
0.472	-5.329	-0.844
0.472	-5.320	-0.846
0.476	-5.313	-0.851
0.482	-5.312	-0.858
0.487	-5.316	-0.865
0.491	-5.324	-0.867
0.490	-5.333	-0.866
0.487	-5.340	-0.860
0.481	-5.341	-0.853
0.475	-5.337	-0.847
0.423	-5.335	-0.885
0.423	-5.326	-0.887
0.427	-5.319	-0.892
0.432	-5.318	-0.899
0.438	-5.322	-0.905
0.441	-5.330	-0.908
0.441	-5.339	-0.906
0.437	-5.346	-0.901
0.431	-5.347	-0.894
0.426	-5.343	-0.888
0.533	-5.408	-0.956
0.533	-5.399	-0.958
0.536	-5.392	-0.964
0.542	-5.391	-0.971
0.548	-5.395	-0.977
0.551	-5.403	-0.979
0.551	-5.412	-0.977
0.548	-5.419	-0.972
0.542	-5.420	-0.965
0.537	-5.416	-0.959
0.491	-5.413	-0.991
0.500	-5.413	-0.986
0.509	-5.413	-0.988
0.515	-5.413	-0.995
0.517	-5.413	-1.004
0.513	-5.413	-1.012
0.504	-5.413	-1.016
0.495	-5.413	-1.015
0.489	-5.413	-1.008
0.487	-5.413	-0.999
0.594	-5.472	-1.086
0.602	-5.469	-1.082
0.609	-5.472	-1.077
0.614	-5.479	-1.074
0.614	-5.489	-1.074
0.609	-5.496	-1.076
0.601	-5.499	-1.081
0.593	-5.496	-1.085
0.589	-5.489	-1.088
0.589	-5.479	-1.088
0.604	-5.473	-1.104
0.612	-5.470	-1.100
0.619	-5.473	-1.095
0.624	-5.480	-1.093
0.624	-5.489	-1.092
0.619	-5.497	-1.095
0.611	-5.500	-1.099
0.603	-5.497	-1.103
0.599	-5.489	-1.106
[...]
         <CellData>
           <DataArray type="Float32" Name="combinedRootClassID" NumberOfComponents="1" format="ascii">
 -1.300e+01 -1.300e+01 -1.300e+01 -1.300e+01 -1.300e+01 -1.300e+01 -1.300e+01 -1.300e+01 -1.300e+01 -5.000e+00 -5.000e+00 -5.000e+00 -5.000e+00 -5.000e+00 -5.000e+00 -5.000e+00 -5.000e+00 -5.000e+00 -5.000e+00 -5.000e+00 -5.000e+00 -5.000e+00 -1.300e+01 -1.300e+01 -1.300e+01 -1.300e+01 -1.300e+01 -1.300e+01 -1.300e+01 -1.300e+01 -1.300e+01 -5.000e+00 -5.000e+00 -5.000e+00 -5.000e+00 -5.000e+00 -5.000e+00 -5.000e+00 -5.000e+00 -5.000e+00 -5.000e+00 -5.000e+00 -5.000e+00 -5.000e+00 -1.300e+01 -1.300e+01 -1.300e+01 -1.300e+01 -1.300e+01 -1.300e+01 -1.300e+01 -1.300e+01 -1.300e+01 -5.000e+00 -5.000e+00 -5.000e+00 -5.000e+00 -5.000e+00 -5.000e+00 -5.000e+00 -5.000e+00 -5.000e+00 -5.000e+00 -5.000e+00 -5.000e+00 -5.000e+00 -1.300e+01 -1.300e+01 -1.300e+01 -1.300e+01 -1.300e+01 -1.300e+01 -1.300e+01 -1.300e+01 -1.300e+01 -5.000e+00 -5.000e+00 -5.000e+00 -5.000e+00 -5.000e+00 -5.000e+00 -5.000e+00 -5.000e+00 -5.000e+00 -5.000e+00 -5.000e+00 -5.000e+00 -5.000e+00 -1.100e+01 -1.100e+01 -1.100e+01 -1.100e+01 -1.100e+01 -1.100e+01 -1.100e+01 -1.100e+01 -1.100e+01 -1.100e+01 -1.100e+01 -1.100e+01 -2.000e+00 -2.000e+00 -2.000e+00 -2.000e+00 -2.000e+00 -2.000e+00 -2.000e+00 -2.000e+00 -2.000e+00 -2.000e+00 -2.000e+00 -2.000e+00 -7.000e+00 -7.000e+00 -7.000e+00 -7.000e+00 -7.000e+00 -7.000e+00 -7.000e+00 -7.000e+00 -7.000e+00 -7.000e+00 -7.000e+00 -7.000e+00 -7.000e+00 -7.000e+00 -7.000e+00 -7.000e+00 -7.000e+00 -7.000e+00 -7.000e+00 -7.000e+00 -7.000e+00 -7.000e+00 -7.000e+00 -7.000e+00 -7.000e+00 -7.000e+00 -7.000e+00 -7.000e+00 -7.000e+00 -7.000e+00 -7.000e+00 -7.000e+00 -7.000e+00 -7.000e+00 -7.000e+00 -7.000e+00 -7.000e+00 -7.000e+00 -7.000e+00 -7.000e+00 -7.000e+00 -7.000e+00 -7.000e+00 -7.000e+00 -7.000e+00 -7.000e+00 -7.000e+00 -7.000e+00 -7.000e+00 -7.000e+00 -7.000e+00 -7.000e+00 -7.000e+00 -7.000e+00 -7.000e+00 -7.000e+00 -7.000e+00 -7.000e+00 -7.000e+00 -7.000e+00 -7.000e+00 -7.000e+00 -7.000e+00 -7.000e+00 -7.000e+00 -7.000e+00 -7.000e+00 -7.000e+00 -7.000e+00 -7.000e+00 -7.000e+00 -7.000e+00 -7.000e+00 -7.000e+00 -7.000e+00 -7.000e+00 -7.000e+00 -7.000e+00 -7.000e+00 -7.000e+00 -7.000e+00 -7.000e+00 -7.000e+00 -7.000e+00 -7.000e+00 -7.000e+00 -7.000e+00 -7.000e+00 -7.000e+00 -7.000e+00 -7.000e+00 -7.000e+00 -7.000e+00 -7.000e+00 -7.000e+00 -7.000e+00 -7.000e+00 -7.000e+00 -7.000e+00 -7.000e+00 -7.000e+00 -7.000e+00 -7.000e+00 -7.000e+00 -7.000e+00 -7.000e+00 -7.000e+00 -7.000e+00 -7.000e+00 -7.000e+00 -7.000e+00 -7.000e+00 -7.000e+00 -7.000e+00 -7.000e+00 -7.000e+00 -7.000e+00 -7.000e+00 -7.000e+00 -7.000e+00 -7.000e+00 -7.000e+00 -7.000e+00 -7.000e+00 -7.000e+00 -7.000e+00 -7.000e+00 -7.000e+00 -7.000e+00 -7.000e+00 -7.000e+00 -7.000e+00 -7.000e+00 -7.000e+00 -7.000e+00 -7.000e+00 -7.000e+00 -7.000e+00 -7.000e+00 -7.000e+00 -7.000e+00 -7.000e+00 -7.000e+00 -7.000e+00 -7.000e+00 -7.000e+00 -7.000e+00 -7.000e+00 -7.000e+00 -7.000e+00 -7.000e+00 -7.000e+00 -7.000e+00 -7.000e+00 -7.000e+00 -7.000e+00 -7.000e+00 -7.000e+00 -7.000e+00 -7.000e+00 -7.000e+00 -7.000e+00 -7.000e+00 -7.000e+00 -7.000e+00 -7.000e+00 -7.000e+00 -7.000e+00 -7.000e+00 -7.000e+00 -7.000e+00 -7.000e+00 -7.000e+00 -7.000e+00 -7.000e+00 -7.000e+00 -7.000e+00 -7.000e+00 -7.000e+00 -7.000e+00 -7.000e+00 -7.000e+00 -7.000e+00 -7.000e+00 -7.000e+00 -7.000e+00 -7.000e+00 -7.000e+00 -7.000e+00 -7.000e+00 -7.000e+00 -7.000e+00 -7.000e+00 -7.000e+00 -7.000e+00 -7.000e+00 -9.000e+00 -9.000e+00 -9.000e+00 -9.000e+00 -9.000e+00 -9.000e+00 -9.000e+00 -9.000e+00 -9.000e+00 -4.000e+00 -4.000e+00 -4.000e+00 -4.000e+00 -4.000e+00 -4.000e+00 -4.000e+00 -4.000e+00 -4.000e+00 -4.000e+00 -4.000e+00 -4.000e+00 -4.000e+00 -4.000e+00 -4.000e+00 -4.000e+00 -4.000e+00 -4.000e+00 -4.000e+00 -4.000e+00 -4.000e+00 -4.000e+00 -4.000e+00 -4.000e+00 -4.000e+00 -4.000e+00 -4.000e+00 -4.000e+00 -4.000e+00 -4.000e+00 -4.000e+00 -4.000e+00 -4.000e+00 -4.000e+00 -4.000e+00 -4.000e+00 -4.000e+00 -4.000e+00 -4.000e+00
           </DataArray>
           <DataArray type="Float32" Name="nitrate/minimalNutrientConcentration" NumberOfComponents="1" format="ascii">
 6.000e+02 6.000e+02 6.000e+02 6.000e+02 6.000e+02 6.000e+02 6.000e+02 6.000e+02 6.000e+02 6.000e+02 6.000e+02 6.000e+02 6.000e+02 6.000e+02 6.000e+02 6.000e+02 6.000e+02 6.000e+02 6.000e+02 6.000e+02 6.000e+02 6.000e+02 6.000e+02 6.000e+02 6.000e+02 6.000e+02 6.000e+02 6.000e+02 6.000e+02 6.000e+02 6.000e+02 6.000e+02 6.000e+02 6.000e+02 6.000e+02 6.000e+02 6.000e+02 6.000e+02 6.000e+02 6.000e+02 6.000e+02 6.000e+02 6.000e+02 6.000e+02 6.000e+02 6.000e+02 6.000e+02 6.000e+02 6.000e+02 6.000e+02 6.000e+02 6.000e+02 6.000e+02 6.000e+02 6.000e+02 6.000e+02 6.000e+02 6.000e+02 6.000e+02 6.000e+02 6.000e+02 6.000e+02 6.000e+02 6.000e+02 6.000e+02 6.000e+02 6.000e+02 6.000e+02 6.000e+02 6.000e+02 6.000e+02 6.000e+02 6.000e+02 6.000e+02 6.000e+02 6.000e+02 6.000e+02 6.000e+02 6.000e+02 6.000e+02 6.000e+02 6.000e+02 6.000e+02 6.000e+02 6.000e+02 6.000e+02 6.000e+02 6.000e+02 6.000e+02 6.000e+02 6.000e+02 6.000e+02 6.000e+02 6.000e+02 6.000e+02 6.000e+02 6.000e+02 6.000e+02 6.000e+02 6.000e+02 6.000e+02 6.000e+02 6.000e+02 6.000e+02 6.000e+02 6.000e+02 6.000e+02 6.000e+02 6.000e+02 6.000e+02 6.000e+02 6.000e+02 6.000e+02 6.000e+02 6.000e+02 6.000e+02 6.000e+02 6.000e+02 6.000e+02 6.000e+02 6.000e+02 6.000e+02 6.000e+02 6.000e+02 6.000e+02 6.000e+02 6.000e+02 6.000e+02 6.000e+02 6.000e+02 6.000e+02 6.000e+02 6.000e+02 6.000e+02 6.000e+02 6.000e+02 6.000e+02 6.000e+02 6.000e+02 6.000e+02 6.000e+02 6.000e+02 6.000e+02 6.000e+02 6.000e+02 6.000e+02 6.000e+02 6.000e+02 6.000e+02 6.000e+02 6.000e+02 6.000e+02 6.000e+02 6.000e+02 6.000e+02 6.000e+02 6.000e+02 6.000e+02 6.000e+02 6.000e+02 6.000e+02 6.000e+02 6.000e+02 6.000e+02 6.000e+02 6.000e+02 6.000e+02 6.000e+02 6.000e+02 6.000e+02 6.000e+02 6.000e+02 6.000e+02 6.000e+02 6.000e+02 6.000e+02 6.000e+02 6.000e+02 6.000e+02 6.000e+02 6.000e+02 6.000e+02 6.000e+02 6.000e+02 6.000e+02 6.000e+02 6.000e+02 6.000e+02 6.000e+02 6.000e+02 6.000e+02 6.000e+02 6.000e+02 6.000e+02 6.000e+02 6.000e+02 6.000e+02 6.000e+02 6.000e+02 6.000e+02 6.000e+02 6.000e+02 6.000e+02 6.000e+02 6.000e+02 6.000e+02 6.000e+02 6.000e+02 6.000e+02 6.000e+02 6.000e+02 6.000e+02 6.000e+02 6.000e+02 6.000e+02 6.000e+02 6.000e+02 6.000e+02 6.000e+02 6.000e+02 6.000e+02 6.000e+02 6.000e+02 6.000e+02 6.000e+02 6.000e+02 6.000e+02 6.000e+02 6.000e+02 6.000e+02 6.000e+02 6.000e+02 6.000e+02 6.000e+02 6.000e+02 6.000e+02 6.000e+02 6.000e+02 6.000e+02 6.000e+02 6.000e+02 6.000e+02 6.000e+02 6.000e+02 6.000e+02 6.000e+02 6.000e+02 6.000e+02 6.000e+02 6.000e+02 6.000e+02 6.000e+02 6.000e+02 6.000e+02 6.000e+02 6.000e+02 6.000e+02 6.000e+02 6.000e+02 6.000e+02 6.000e+02 6.000e+02 6.000e+02 6.000e+02 6.000e+02 6.000e+02 6.000e+02 6.000e+02 6.000e+02 6.000e+02 6.000e+02 6.000e+02 6.000e+02 6.000e+02 6.000e+02 6.000e+02 6.000e+02 6.000e+02 6.000e+02 6.000e+02 6.000e+02 6.000e+02 6.000e+02 6.000e+02 6.000e+02 6.000e+02 6.000e+02 6.000e+02 6.000e+02 6.000e+02 6.000e+02 6.000e+02 6.000e+02 6.000e+02 6.000e+02 6.000e+02 6.000e+02 6.000e+02 6.000e+02 6.000e+02 6.000e+02 6.000e+02 6.000e+02 6.000e+02 6.000e+02 6.000e+02 6.000e+02 6.000e+02 6.000e+02 6.000e+02 6.000e+02 6.000e+02 6.000e+02 6.000e+02 6.000e+02 6.000e+02 6.000e+02 6.000e+02 6.000e+02 6.000e+02 6.000e+02 6.000e+02 6.000e+02 6.000e+02 6.000e+02 6.000e+02 6.000e+02 6.000e+02 6.000e+02 6.000e+02 6.000e+02 6.000e+02 6.000e+02 6.000e+02 6.000e+02 6.000e+02 6.000e+02 6.000e+02 6.000e+02 6.000e+02 6.000e+02 6.000e+02 6.000e+02 6.000e+02 6.000e+02 6.000e+02 6.000e+02 6.000e+02 6.000e+02 6.000e+02 6.000e+02 6.000e+02 6.000e+02 6.000e+02 6.000e+02 6.000e+02
           </DataArray>
           <DataArray type="Float32" Name="nitrate/optimalNutrientConcentration" NumberOfComponents="1" format="ascii">
 1.200e+03 1.200e+03 1.200e+03 1.200e+03 1.200e+03 1.200e+03 1.200e+03 1.200e+03 1.200e+03 1.200e+03 1.200e+03 1.200e+03 1.200e+03 1.200e+03 1.200e+03 1.200e+03 1.200e+03 1.200e+03 1.200e+03 1.200e+03 1.200e+03 1.200e+03 1.200e+03 1.200e+03 1.200e+03 1.200e+03 1.200e+03 1.200e+03 1.200e+03 1.200e+03 1.200e+03 1.200e+03 1.200e+03 1.200e+03 1.200e+03 1.200e+03 1.200e+03 1.200e+03 1.200e+03 1.200e+03 1.200e+03 1.200e+03 1.200e+03 1.200e+03 1.200e+03 1.200e+03 1.200e+03 1.200e+03 1.200e+03 1.200e+03 1.200e+03 1.200e+03 1.200e+03 1.200e+03 1.200e+03 1.200e+03 1.200e+03 1.200e+03 1.200e+03 1.200e+03 1.200e+03 1.200e+03 1.200e+03 1.200e+03 1.200e+03 1.200e+03 1.200e+03 1.200e+03 1.200e+03 1.200e+03 1.200e+03 1.200e+03 1.200e+03 1.200e+03 1.200e+03 1.200e+03 1.200e+03 1.200e+03 1.200e+03 1.200e+03 1.200e+03 1.200e+03 1.200e+03 1.200e+03 1.200e+03 1.200e+03 1.200e+03 1.200e+03 1.200e+03 1.200e+03 1.200e+03 1.200e+03 1.200e+03 1.200e+03 1.200e+03 1.200e+03 1.200e+03 1.200e+03 1.200e+03 1.200e+03 1.200e+03 1.200e+03 1.200e+03 1.200e+03 1.200e+03 1.200e+03 1.200e+03 1.200e+03 1.200e+03 1.200e+03 1.200e+03 1.200e+03 1.200e+03 1.200e+03 1.200e+03 1.200e+03 1.200e+03 1.200e+03 1.200e+03 1.200e+03 1.200e+03 1.200e+03 1.200e+03 1.200e+03 1.200e+03 1.200e+03 1.200e+03 1.200e+03 1.200e+03 1.200e+03 1.200e+03 1.200e+03 1.200e+03 1.200e+03 1.200e+03 1.200e+03 1.200e+03 1.200e+03 1.200e+03 1.200e+03 1.200e+03 1.200e+03 1.200e+03 1.200e+03 1.200e+03 1.200e+03 1.200e+03 1.200e+03 1.200e+03 1.200e+03 1.200e+03 1.200e+03 1.200e+03 1.200e+03 1.200e+03 1.200e+03 1.200e+03 1.200e+03 1.200e+03 1.200e+03 1.200e+03 1.200e+03 1.200e+03 1.200e+03 1.200e+03 1.200e+03 1.200e+03 1.200e+03 1.200e+03 1.200e+03 1.200e+03 1.200e+03 1.200e+03 1.200e+03 1.200e+03 1.200e+03 1.200e+03 1.200e+03 1.200e+03 1.200e+03 1.200e+03 1.200e+03 1.200e+03 1.200e+03 1.200e+03 1.200e+03 1.200e+03 1.200e+03 1.200e+03 1.200e+03 1.200e+03 1.200e+03 1.200e+03 1.200e+03 1.200e+03 1.200e+03 1.200e+03 1.200e+03 1.200e+03 1.200e+03 1.200e+03 1.200e+03 1.200e+03 1.200e+03 1.200e+03 1.200e+03 1.200e+03 1.200e+03 1.200e+03 1.200e+03 1.200e+03 1.200e+03 1.200e+03 1.200e+03 1.200e+03 1.200e+03 1.200e+03 1.200e+03 1.200e+03 1.200e+03 1.200e+03 1.200e+03 1.200e+03 1.200e+03 1.200e+03 1.200e+03 1.200e+03 1.200e+03 1.200e+03 1.200e+03 1.200e+03 1.200e+03 1.200e+03 1.200e+03 1.200e+03 1.200e+03 1.200e+03 1.200e+03 1.200e+03 1.200e+03 1.200e+03 1.200e+03 1.200e+03 1.200e+03 1.200e+03 1.200e+03 1.200e+03 1.200e+03 1.200e+03 1.200e+03 1.200e+03 1.200e+03 1.200e+03 1.200e+03 1.200e+03 1.200e+03 1.200e+03 1.200e+03 1.200e+03 1.200e+03 1.200e+03 1.200e+03 1.200e+03 1.200e+03 1.200e+03 1.200e+03 1.200e+03 1.200e+03 1.200e+03 1.200e+03 1.200e+03 1.200e+03 1.200e+03 1.200e+03 1.200e+03 1.200e+03 1.200e+03 1.200e+03 1.200e+03 1.200e+03 1.200e+03 1.200e+03 1.200e+03 1.200e+03 1.200e+03 1.200e+03 1.200e+03 1.200e+03 1.200e+03 1.200e+03 1.200e+03 1.200e+03 1.200e+03 1.200e+03 1.200e+03 1.200e+03 1.200e+03 1.200e+03 1.200e+03 1.200e+03 1.200e+03 1.200e+03 1.200e+03 1.200e+03 1.200e+03 1.200e+03 1.200e+03 1.200e+03 1.200e+03 1.200e+03 1.200e+03 1.200e+03 1.200e+03 1.200e+03 1.200e+03 1.200e+03 1.200e+03 1.200e+03 1.200e+03 1.200e+03 1.200e+03 1.200e+03 1.200e+03 1.200e+03 1.200e+03 1.200e+03 1.200e+03 1.200e+03 1.200e+03 1.200e+03 1.200e+03 1.200e+03 1.200e+03 1.200e+03 1.200e+03 1.200e+03 1.200e+03 1.200e+03 1.200e+03 1.200e+03 1.200e+03 1.200e+03 1.200e+03 1.200e+03 1.200e+03 1.200e+03 1.200e+03 1.200e+03 1.200e+03 1.200e+03 1.200e+03 1.200e+03 1.200e+03 1.200e+03 1.200e+03 1.200e+03
           </DataArray>
           <DataArray type="Float32" Name="nitrate/radiusDepletionZone" NumberOfComponents="1" format="ascii">
 1.500e-02 1.500e-02 1.500e-02 1.500e-02 1.500e-02 1.500e-02 1.500e-02 1.500e-02 1.500e-02 3.409e-02 3.401e-02 1.497e+00 1.250e+00 1.190e+00 9.947e-01 9.650e-01 7.874e-01 6.199e-01 6.029e-01 4.492e-01 3.034e-01 1.651e-01 1.500e-02 1.500e-02 1.500e-02 1.500e-02 1.500e-02 1.500e-02 1.500e-02 1.500e-02 1.500e-02 3.409e-02 3.401e-02 1.497e+00 1.250e+00 1.190e+00 9.947e-01 9.650e-01 7.874e-01 6.199e-01 6.029e-01 4.492e-01 3.034e-01 1.651e-01 1.500e-02 1.500e-02 1.500e-02 1.500e-02 1.500e-02 1.500e-02 1.500e-02 1.500e-02 1.500e-02 3.409e-02 3.401e-02 1.640e+00 1.422e+00 1.190e+00 9.947e-01 9.650e-01 7.874e-01 6.199e-01 6.029e-01 4.492e-01 3.034e-01 1.651e-01 1.500e-02 1.500e-02 1.500e-02 1.500e-02 1.500e-02 1.500e-02 1.500e-02 1.500e-02 1.500e-02 3.409e-02 3.401e-02 1.547e+00 1.250e+00 1.190e+00 9.947e-01 9.650e-01 7.874e-01 6.199e-01 6.029e-01 4.492e-01 3.034e-01 1.651e-01 3.400e-02 3.400e-02 3.400e-02 3.400e-02 3.400e-02 3.400e-02 3.400e-02 3.400e-02 3.400e-02 3.400e-02 3.400e-02 6.075e-01 2.800e+00 3.700e+00 2.666e+01 2.132e+01 1.776e+01 1.448e+01 1.267e+01 1.126e+01 1.013e+01 2.076e-01 2.068e-01 2.055e-01 1.503e-02 1.502e-02 1.247e+00 1.500e-02 1.503e-02 1.501e-02 9.088e-01 1.607e-01 1.503e-02 1.501e-02 6.744e-01 2.867e-01 1.503e-02 1.501e-02 2.644e-01 1.502e-02 1.501e-02 6.033e-01 1.502e-02 1.501e-02 5.852e-01 2.403e-01 1.502e-02 1.501e-02 5.496e-01 1.358e-01 1.502e-02 1.501e-02 5.678e-01 1.459e-01 1.502e-02 1.501e-02 4.040e-01 1.502e-02 1.501e-02 5.957e-01 1.502e-02 1.501e-02 4.793e-01 1.502e-02 1.501e-02 5.975e-01 2.874e-01 1.503e-02 1.502e-02 7.775e-01 4.407e-01 1.502e-02 1.501e-02 3.617e-01 1.502e-02 1.501e-02 4.448e-01 1.502e-02 1.501e-02 4.653e-01 1.502e-02 1.500e-02 2.874e-01 1.502e-02 1.500e-02 2.347e-01 1.502e-02 1.501e-02 4.030e-01 1.502e-02 1.500e-02 2.791e-01 1.501e-02 1.500e-02 2.000e-01 1.501e-02 1.500e-02 2.874e-01 1.501e-02 1.500e-02 2.883e-01 1.503e-02 1.502e-02 1.118e+00 5.385e-07 1.501e-02 1.500e-02 8.922e-02 1.501e-02 1.500e-02 1.501e-02 1.500e-02 1.501e-02 1.500e-02 1.974e-01 1.501e-02 1.500e-02 1.501e-02 1.500e-02 1.484e-01 1.501e-02 1.500e-02 1.858e-01 1.501e-02 1.500e-02 2.005e-01 1.501e-02 1.500e-02 1.501e-02 1.500e-02 1.503e-02 1.502e-02 1.172e+00 1.500e-02 1.501e-02 1.500e-02 1.375e-01 1.501e-02 1.500e-02 1.501e-02 1.500e-02 1.501e-02 1.500e-02 1.501e-02 1.500e-02 1.501e-02 1.500e-02 1.501e-02 1.500e-02 1.501e-02 1.500e-02 1.501e-02 1.500e-02 1.500e-02 1.500e-02 1.503e-02 1.501e-02 7.453e-01 4.702e-01 1.500e-02 1.500e-02 1.500e-02 1.500e-02 1.500e-02 1.500e-02 1.500e-02 1.500e-02 1.500e-02 1.500e-02 1.500e-02 1.500e-02 1.500e-02 1.500e-02 1.500e-02 1.500e-02 1.500e-02 1.500e-02 1.500e-02 1.503e-02 1.501e-02 6.011e-01 1.500e-02 1.500e-02 1.500e-02 1.500e-02 1.500e-02 1.500e-02 1.500e-02 1.500e-02 1.500e-02 1.500e-02 1.503e-02 1.501e-02 4.427e-01 1.500e-02 1.500e-02 1.500e-02 1.500e-02 1.500e-02 1.500e-02 1.500e-02 1.500e-02 1.500e-02 1.500e-02 1.503e-02 1.501e-02 1.364e+00 1.500e-02 1.500e-02 1.500e-02 1.500e-02 1.500e-02 1.500e-02 1.500e-02 1.500e-02 1.500e-02 1.503e-02 1.501e-02 9.569e-01 1.247e-06 1.508e-02 1.505e-02 8.803e-01 6.438e-01 4.468e-01 1.477e-01 1.502e-02 1.501e-02 2.600e-01 2.250e+00 5.316e+01 2.825e+01 2.118e+01 1.694e+01 1.325e+01 1.136e+01 9.933e+00 8.254e+00 7.427e+00 6.750e+00 5.756e+00 5.312e+00 4.562e+00 4.257e+00 3.990e+00 3.451e+00 3.259e+00 3.087e+00 2.674e+00 2.547e+00 2.430e+00 2.100e+00 2.012e+00 1.932e+00 1.857e+00 1.597e+00 1.540e+00 1.487e+00 1.265e+00 1.224e+00 1.024e+00 9.932e-01 9.639e-01 7.888e-01 6.235e-01 6.066e-01 4.548e-01 3.108e-01
           </DataArray>
           <DataArray type="Float32" Name="nitrate/rootSegmentMinimalNutrientContent" NumberOfComponents="1" format="ascii">
 7.421e-03 7.747e-03 5.966e-03 5.657e-03 4.496e-03 3.304e-03 2.769e-03 1.672e-03 6.752e-04 1.958e-01 1.504e-01 1.406e-01 1.646e-01 1.230e-01 1.337e-01 1.443e-01 1.550e-01 1.621e-01 1.639e-01 1.639e-01 1.639e-01 8.193e-02 7.040e-03 7.849e-03 6.548e-03 5.661e-03 3.792e-03 3.656e-03 2.571e-03 2.109e-03 8.287e-04 1.958e-01 1.504e-01 1.406e-01 1.646e-01 1.230e-01 1.337e-01 1.443e-01 1.550e-01 1.621e-01 1.639e-01 1.639e-01 1.639e-01 8.193e-02 6.824e-03 7.765e-03 6.263e-03 5.274e-03 3.926e-03 4.064e-03 1.957e-03 1.517e-03 9.077e-04 1.958e-01 1.504e-01 1.406e-01 1.646e-01 1.230e-01 1.337e-01 1.443e-01 1.550e-01 1.621e-01 1.639e-01 1.639e-01 1.639e-01 8.193e-02 7.755e-03 8.393e-03 6.552e-03 5.470e-03 5.015e-03 3.951e-03 1.957e-03 1.862e-03 6.060e-04 1.958e-01 1.504e-01 1.406e-01 1.646e-01 1.230e-01 1.337e-01 1.443e-01 1.550e-01 1.621e-01 1.639e-01 1.639e-01 1.639e-01 8.193e-02 1.396e-01 1.307e-01 1.733e-01 1.396e-01 1.307e-01 1.733e-01 1.396e-01 1.307e-01 1.733e-01 1.396e-01 1.307e-01 1.733e-01 8.134e+00 3.985e+00 4.604e+00 4.885e+00 4.861e+00 4.816e+00 4.773e+00 4.731e+00 4.378e+00 3.722e+00 5.499e+00 5.985e+00 3.262e-02 3.501e-02 3.494e-02 5.818e-03 3.478e-02 3.549e-02 3.542e-02 2.950e-03 3.165e-02 3.188e-02 3.183e-02 9.542e-03 3.809e-02 3.433e-02 7.349e-03 3.278e-02 3.548e-02 2.657e-02 3.021e-02 3.129e-02 3.124e-02 6.245e-03 3.134e-02 3.396e-02 3.391e-02 6.778e-03 3.152e-02 3.215e-02 3.211e-02 3.209e-03 3.490e-02 3.678e-02 2.143e-02 3.147e-02 3.161e-02 3.157e-02 3.571e-02 3.095e-02 2.473e-02 3.339e-02 2.934e-02 2.930e-02 1.464e-02 2.992e-02 3.210e-02 3.204e-02 2.240e-02 3.931e-02 3.363e-02 2.351e-02 3.433e-02 3.048e-02 2.131e-02 3.217e-02 3.272e-02 2.615e-02 3.132e-02 3.293e-02 1.096e-02 3.555e-02 3.558e-02 8.886e-03 3.157e-02 3.303e-02 2.310e-02 3.280e-02 3.533e-02 8.825e-03 3.142e-02 3.219e-02 5.360e-03 3.448e-02 3.054e-02 1.221e-02 3.307e-02 3.354e-02 1.675e-02 3.337e-02 3.370e-02 3.364e-02 2.017e-02 3.375e-02 3.540e-02 2.948e-03 3.430e-02 3.425e-02 3.427e-02 3.547e-02 3.377e-02 3.024e-02 6.045e-03 3.320e-02 3.110e-02 3.484e-02 3.078e-02 3.077e-03 3.170e-02 3.206e-02 6.408e-03 3.246e-02 3.430e-02 6.857e-03 3.434e-02 3.110e-02 3.525e-02 1.811e-02 3.119e-02 3.291e-02 3.286e-02 1.970e-02 3.316e-02 2.887e-02 1.082e-02 3.480e-02 2.365e-02 3.139e-02 3.361e-02 3.313e-02 3.007e-02 3.329e-02 1.233e-02 3.416e-02 2.160e-02 3.065e-02 2.543e-02 3.401e-02 1.819e-02 3.063e-02 2.189e-02 3.398e-02 7.622e-03 3.442e-02 3.113e-02 3.108e-02 1.242e-02 3.526e-02 2.127e-02 3.220e-02 1.118e-02 3.063e-02 2.021e-02 3.145e-02 1.626e-02 3.234e-02 8.626e-03 3.523e-02 1.435e-02 3.546e-02 3.308e-02 9.952e-03 2.995e-02 9.411e-03 3.185e-02 2.863e-03 3.311e-02 3.415e-02 3.125e-02 3.508e-02 3.413e-02 3.243e-02 3.140e-02 3.245e-02 3.485e-02 2.824e-02 2.766e-02 2.851e-02 2.489e-02 3.265e-02 3.458e-02 1.726e-02 2.335e-02 1.991e-02 2.078e-02 2.125e-02 1.837e-02 1.633e-02 1.516e-02 1.497e-02 1.407e-02 1.085e-02 3.309e-02 3.385e-02 3.379e-02 1.351e-02 9.362e-03 7.675e-03 7.323e-03 5.550e-03 4.660e-03 3.302e-03 1.718e-03 5.899e-04 3.444e-02 2.946e-02 2.942e-02 2.940e-02 3.565e-02 2.989e-02 2.978e-02 2.971e-02 2.966e-02 9.880e-03 3.226e-02 3.435e-02 1.715e-02 5.236e-01 2.558e-01 2.501e-01 2.445e-01 2.391e-01 2.338e-01 2.288e-01 2.240e-01 2.195e-01 2.151e-01 2.110e-01 2.071e-01 2.033e-01 1.998e-01 1.965e-01 1.934e-01 1.907e-01 1.883e-01 1.862e-01 1.845e-01 1.830e-01 1.815e-01 1.802e-01 1.789e-01 1.777e-01 1.766e-01 1.756e-01 1.746e-01 1.737e-01 1.729e-01 1.722e-01 1.716e-01 1.710e-01 1.705e-01 1.701e-01 1.697e-01 1.695e-01 1.693e-01 1.692e-01
           </DataArray>
           <DataArray type="Float32" Name="nitrate/rootSegmentNutrientUptake" NumberOfComponents="1" format="ascii">