<?xml version="1.0"?>
<VTKFile type="UnstructuredGrid" version="0.1" byte_order="LittleEndian">
   <UnstructuredGrid>
      <Piece NumberOfPoints="2600" NumberOfCells="184">
         <Points>
            <DataArray type="Float32" Name="Position" NumberOfComponents="3" format="ascii">
0.023	-4.987	-0.025
0.029	-4.974	-0.010
0.024	-4.967	0.010
0.010	-4.969	0.025
-0.007	-4.979	0.032
-0.022	-4.993	0.026
-0.028	-5.006	0.010
-0.023	-5.013	-0.009
-0.009	-5.011	-0.025
0.008	-5.001	-0.031
0.462	-5.559	0.288
0.469	-5.548	0.304
0.464	-5.542	0.324
0.450	-5.543	0.339
0.432	-5.551	0.345
0.416	-5.563	0.338
0.409	-5.575	0.322
0.413	-5.581	0.302
0.427	-5.580	0.287
0.446	-5.571	0.281
0.789	-6.330	0.576
0.797	-6.321	0.593
0.793	-6.316	0.613
0.778	-6.316	0.628
0.758	-6.322	0.633
0.741	-6.331	0.625
0.733	-6.339	0.607
0.737	-6.345	0.588
0.752	-6.344	0.572
0.771	-6.339	0.568
0.986	-6.959	0.765
0.995	-6.952	0.783
0.991	-6.948	0.803
0.976	-6.949	0.818
0.956	-6.953	0.822
0.938	-6.960	0.813
0.929	-6.967	0.795
0.933	-6.971	0.775
0.948	-6.971	0.760
0.968	-6.966	0.756
1.165	-7.725	0.925
1.174	-7.720	0.943
1.171	-7.717	0.963
1.156	-7.718	0.978
1.136	-7.721	0.982
1.117	-7.727	0.973
1.108	-7.732	0.955
1.111	-7.734	0.935
1.126	-7.734	0.919
1.146	-7.731	0.916
1.268	-8.312	1.007
1.277	-8.307	1.025
1.274	-8.305	1.046
1.259	-8.305	1.060
1.239	-8.308	1.064
1.220	-8.312	1.055
1.211	-8.316	1.036
1.214	-8.318	1.016
1.229	-8.318	1.001
1.250	-8.316	0.997
1.352	-8.952	1.105
1.361	-8.948	1.124
1.358	-8.946	1.145
1.342	-8.946	1.159
1.322	-8.947	1.162
1.303	-8.951	1.153
1.294	-8.954	1.134
1.298	-8.957	1.114
1.313	-8.957	1.099
1.334	-8.955	1.096
1.408	-9.649	1.189
1.418	-9.646	1.207
1.414	-9.644	1.228
1.399	-9.644	1.243
1.378	-9.645	1.246
1.360	-9.648	1.236
1.350	-9.651	1.218
1.354	-9.653	1.197
1.369	-9.653	1.182
1.390	-9.652	1.179
1.444	-10.017	1.229
1.453	-10.014	1.247
1.450	-10.012	1.268
1.435	-10.012	1.283
1.414	-10.013	1.286
1.396	-10.016	1.277
1.387	-10.019	1.258
1.390	-10.021	1.237
1.405	-10.021	1.223
1.426	-10.019	1.219
-0.002	-4.965	-0.022
0.017	-4.964	-0.014
0.030	-4.973	0.000
0.032	-4.988	0.014
0.022	-5.005	0.023
0.004	-5.015	0.023
-0.016	-5.017	0.014
-0.029	-5.007	0.000
-0.031	-4.992	-0.013
-0.020	-4.975	-0.022
0.279	-5.437	-0.595
0.298	-5.437	-0.586
0.310	-5.447	-0.572
0.310	-5.462	-0.557
0.298	-5.476	-0.547
0.279	-5.485	-0.547
0.260	-5.484	-0.555
0.248	-5.475	-0.570
0.248	-5.460	-0.585
0.260	-5.445	-0.594
0.471	-6.107	-1.144
0.490	-6.110	-1.134
0.499	-6.120	-1.118
0.496	-6.133	-1.102
0.481	-6.144	-1.092
0.461	-6.149	-1.091
0.443	-6.146	-1.101
0.433	-6.136	-1.117
0.436	-6.123	-1.133
0.451	-6.112	-1.143
0.579	-6.667	-1.531
0.596	-6.671	-1.519
0.604	-6.680	-1.502
0.598	-6.691	-1.485
0.582	-6.701	-1.475
0.562	-6.704	-1.476
0.544	-6.701	-1.488
0.537	-6.692	-1.505
0.542	-6.680	-1.522
0.558	-6.671	-1.532
0.734	-7.362	-1.908
0.750	-7.365	-1.896
0.756	-7.373	-1.877
0.749	-7.383	-1.860
0.732	-7.392	-1.851
0.711	-7.395	-1.853
0.695	-7.392	-1.866
0.689	-7.384	-1.885
0.696	-7.374	-1.902
0.713	-7.366	-1.911
0.850	-7.901	-2.154
0.865	-7.904	-2.140
0.869	-7.911	-2.120
0.861	-7.919	-2.103
0.843	-7.926	-2.095
0.822	-7.929	-2.098
0.807	-7.926	-2.112
0.803	-7.919	-2.132
0.811	-7.910	-2.149
0.829	-7.903	-2.157
0.951	-8.510	-2.373
0.965	-8.512	-2.358
0.968	-8.518	-2.338
0.958	-8.525	-2.320
0.939	-8.531	-2.313
0.919	-8.532	-2.318
0.904	-8.529	-2.333
0.902	-8.523	-2.353
0.912	-8.517	-2.370
0.931	-8.511	-2.378
1.048	-9.184	-2.556
1.062	-9.187	-2.541
1.063	-9.193	-2.521
1.053	-9.199	-2.504
1.033	-9.203	-2.496
1.013	-9.204	-2.502
0.999	-9.201	-2.517
0.998	-9.196	-2.538
1.008	-9.190	-2.554
1.028	-9.185	-2.562
1.083	-9.539	-2.663
1.097	-9.542	-2.647
1.099	-9.548	-2.627
1.088	-9.554	-2.610
1.069	-9.558	-2.603
1.049	-9.559	-2.608
1.035	-9.555	-2.623
1.033	-9.550	-2.643
1.044	-9.543	-2.660
1.063	-9.539	-2.668
0.016	-5.018	0.013
0.003	-5.010	0.028
-0.010	-4.995	0.032
-0.020	-4.978	0.025
-0.022	-4.965	0.008
-0.015	-4.962	-0.012
-0.002	-4.970	-0.027
0.011	-4.985	-0.032
0.021	-5.002	-0.024
0.023	-5.015	-0.007
-0.577	-5.463	-0.251
-0.591	-5.455	-0.238
-0.607	-5.440	-0.237
-0.616	-5.425	-0.249
-0.617	-5.416	-0.267
-0.609	-5.415	-0.286
-0.594	-5.424	-0.299
-0.579	-5.438	-0.300
-0.569	-5.453	-0.288
-0.568	-5.463	-0.270
-1.067	-6.143	-0.499
-1.084	-6.137	-0.489
-1.102	-6.127	-0.490
-1.115	-6.116	-0.502
-1.116	-6.108	-0.522
-1.107	-6.107	-0.541
-1.090	-6.113	-0.552
-1.072	-6.124	-0.551
-1.060	-6.135	-0.538
-1.058	-6.142	-0.518
-1.324	-6.747	-0.684
-1.340	-6.745	-0.670
-1.360	-6.738	-0.668
-1.376	-6.729	-0.678
-1.382	-6.721	-0.697
-1.376	-6.717	-0.717
-1.360	-6.720	-0.730
-1.340	-6.727	-0.732
-1.325	-6.736	-0.722
-1.318	-6.744	-0.703
-1.581	-7.478	-0.891
-1.597	-7.477	-0.876
-1.617	-7.471	-0.873
-1.634	-7.463	-0.882
-1.641	-7.455	-0.900
-1.636	-7.451	-0.920
-1.621	-7.452	-0.935
-1.601	-7.458	-0.938
-1.584	-7.466	-0.929
-1.576	-7.474	-0.911
-1.752	-8.029	-1.054
-1.767	-8.029	-1.039
-1.787	-8.024	-1.035
-1.805	-8.017	-1.043
-1.813	-8.009	-1.061
-1.810	-8.004	-1.081
-1.795	-8.004	-1.096
-1.775	-8.009	-1.100
-1.757	-8.016	-1.092
-1.748	-8.024	-1.074
-1.910	-8.636	-1.228
-1.925	-8.636	-1.213
-1.945	-8.632	-1.209
-1.963	-8.625	-1.218
-1.971	-8.618	-1.236
-1.968	-8.614	-1.256
-1.953	-8.614	-1.271
-1.932	-8.619	-1.275
-1.915	-8.625	-1.266
-1.906	-8.632	-1.248
-2.077	-9.305	-1.367
-2.093	-9.304	-1.352
-2.113	-9.300	-1.349
-2.131	-9.294	-1.359
-2.139	-9.288	-1.377
-2.135	-9.285	-1.397
-2.120	-9.286	-1.412
-2.099	-9.290	-1.415
-2.082	-9.296	-1.406
-2.073	-9.302	-1.387
-2.161	-9.652	-1.476
-2.153	-9.657	-1.458
-2.157	-9.661	-1.437
-2.172	-9.660	-1.423
-2.192	-9.656	-1.420
-2.210	-9.650	-1.429
-2.219	-9.645	-1.447
-2.215	-9.642	-1.468
-2.200	-9.642	-1.482
-2.179	-9.646	-1.486
0.026	-5.012	-0.003
0.032	-4.997	0.011
0.026	-4.980	0.020
0.010	-4.966	0.022
-0.009	-4.961	0.016
-0.025	-4.968	0.003
-0.031	-4.983	-0.010
-0.025	-5.001	-0.019
-0.009	-5.014	-0.021
0.010	-5.019	-0.015
-0.264	-5.430	0.598
-0.259	-5.416	0.613
-0.266	-5.400	0.624
-0.282	-5.388	0.628
-0.302	-5.383	0.622
-0.317	-5.389	0.610
-0.323	-5.402	0.594
-0.316	-5.419	0.583
-0.300	-5.431	0.579
-0.280	-5.436	0.585
-0.530	-6.070	1.138
-0.525	-6.059	1.155
-0.532	-6.045	1.169
-0.549	-6.035	1.175
-0.569	-6.031	1.171
-0.585	-6.035	1.158
-0.590	-6.046	1.141
-0.583	-6.059	1.126
-0.566	-6.070	1.120
-0.545	-6.074	1.124
-0.701	-6.625	1.496
-0.696	-6.616	1.514
-0.703	-6.604	1.530
-0.720	-6.595	1.538
-0.740	-6.591	1.535
-0.756	-6.595	1.521
-0.762	-6.604	1.503
-0.754	-6.616	1.487
-0.737	-6.625	1.480
-0.717	-6.629	1.483
-0.868	-7.307	1.880
-0.863	-7.299	1.899
-0.870	-7.289	1.915
-0.887	-7.280	1.924
-0.908	-7.277	1.922
-0.924	-7.280	1.909
-0.930	-7.289	1.890
-0.922	-7.299	1.873
-0.905	-7.307	1.864
-0.885	-7.310	1.867
-0.972	-7.842	2.128
-0.966	-7.834	2.147
-0.973	-7.825	2.165
-0.990	-7.817	2.174
-1.011	-7.815	2.173
-1.027	-7.818	2.160
-1.033	-7.825	2.141
-1.026	-7.835	2.124
-1.009	-7.842	2.114
-0.989	-7.845	2.116
-1.060	-8.429	2.395
-1.054	-8.422	2.414
-1.061	-8.413	2.432
-1.078	-8.406	2.442
-1.099	-8.404	2.441
-1.116	-8.407	2.428
-1.122	-8.415	2.410
-1.115	-8.423	2.392
-1.098	-8.430	2.381
-1.077	-8.432	2.383
-1.140	-9.073	2.667
-1.134	-9.066	2.686
-1.140	-9.058	2.704
-1.157	-9.051	2.715
-1.178	-9.049	2.714
-1.195	-9.053	2.702
-1.201	-9.060	2.683
-1.195	-9.068	2.665
-1.178	-9.074	2.654
-1.157	-9.076	2.655
-1.174	-9.415	2.809
-1.167	-9.408	2.828
-1.174	-9.399	2.846
-1.190	-9.393	2.857
-1.211	-9.392	2.856
-1.228	-9.395	2.844
-1.235	-9.402	2.825
-1.228	-9.410	2.807
-1.211	-9.416	2.796
-1.190	-9.418	2.797
0.030	-4.690	-0.021
0.026	-4.673	-0.009
0.017	-4.667	0.009
0.006	-4.673	0.026
-0.002	-4.690	0.036
-0.005	-4.711	0.034
-0.001	-4.727	0.022
0.007	-4.734	0.004
0.018	-4.728	-0.013
0.027	-4.711	-0.022
0.409	-4.760	0.192
0.405	-4.743	0.204
0.396	-4.737	0.222
0.386	-4.743	0.239
0.377	-4.760	0.248
0.374	-4.780	0.247
0.378	-4.797	0.235
0.387	-4.804	0.217
0.398	-4.797	0.200
0.406	-4.781	0.190
-0.003	-4.673	-0.005
0.014	-4.667	0.004
0.031	-4.673	0.015
0.041	-4.690	0.022
0.040	-4.711	0.024
0.028	-4.728	0.019
0.010	-4.734	0.009
-0.007	-4.727	-0.001
-0.016	-4.710	-0.009
-0.015	-4.689	-0.010
0.217	-4.714	-0.384
0.235	-4.707	-0.375
0.252	-4.714	-0.364
0.261	-4.731	-0.357
0.260	-4.752	-0.355
0.248	-4.769	-0.360
0.231	-4.775	-0.370
0.214	-4.768	-0.380
0.204	-4.751	-0.388
0.205	-4.730	-0.389
-0.001	-4.714	0.035
-0.004	-4.694	0.036
-0.001	-4.675	0.026
0.008	-4.667	0.009
0.018	-4.671	-0.009
0.026	-4.686	-0.021
0.029	-4.707	-0.022
0.025	-4.725	-0.012
0.017	-4.734	0.005
0.007	-4.730	0.023
-0.387	-4.753	-0.176
-0.389	-4.733	-0.175
-0.386	-4.714	-0.184
-0.377	-4.706	-0.202
-0.367	-4.710	-0.219
-0.359	-4.725	-0.231
-0.356	-4.746	-0.232
-0.360	-4.764	-0.223
-0.368	-4.773	-0.205
-0.379	-4.769	-0.188
0.031	-4.727	0.015
0.041	-4.710	0.023
0.039	-4.689	0.025
0.027	-4.673	0.020
0.010	-4.667	0.010
-0.007	-4.673	-0.001
-0.016	-4.690	-0.009
-0.015	-4.711	-0.011
-0.003	-4.728	-0.006
0.015	-4.734	0.004
-0.214	-4.778	0.405
-0.214	-4.759	0.414
-0.214	-4.738	0.411
-0.214	-4.723	0.396
-0.214	-4.720	0.375
-0.214	-4.729	0.357
-0.214	-4.748	0.347
-0.214	-4.769	0.350
-0.214	-4.784	0.365
-0.214	-4.787	0.386
-0.153	-4.999	0.151
-0.035	-5.002	0.212
0.097	-5.005	0.192
0.191	-5.005	0.098
0.212	-5.004	-0.033
0.153	-5.001	-0.151
0.035	-4.998	-0.212
-0.097	-4.995	-0.192
-0.191	-4.995	-0.098
-0.212	-4.996	0.033
-0.134	-4.250	0.160
-0.017	-4.252	0.219
0.112	-4.253	0.199
0.205	-4.253	0.106
0.226	-4.253	-0.023
0.167	-4.251	-0.140
0.050	-4.249	-0.200
-0.080	-4.248	-0.180
-0.173	-4.247	-0.087
-0.194	-4.248	0.043
-0.131	-3.561	0.162
-0.015	-3.561	0.221
0.114	-3.561	0.200
0.206	-3.561	0.108
0.226	-3.560	-0.021
0.166	-3.560	-0.137
0.050	-3.559	-0.196
-0.079	-3.559	-0.175
-0.171	-3.560	-0.083
-0.191	-3.560	0.046
-0.131	-2.701	0.166
-0.015	-2.702	0.224
0.112	-2.701	0.204
0.204	-2.701	0.112
0.224	-2.700	-0.016
0.164	-2.699	-0.132
0.049	-2.699	-0.190
-0.079	-2.700	-0.169
-0.170	-2.700	-0.077
-0.190	-2.701	0.051
-0.132	-2.101	0.168
-0.016	-2.101	0.226
0.111	-2.101	0.206
0.202	-2.100	0.114
0.222	-2.100	-0.013
[...]
         <CellData>
           <DataArray type="Float32" Name="combinedRootClassID" NumberOfComponents="1" format="ascii">
 -5.000e+00 -5.000e+00 -5.000e+00 -5.000e+00 -5.000e+00 -5.000e+00 -5.000e+00 -5.000e+00 -5.000e+00 -5.000e+00 -5.000e+00 -5.000e+00 -5.000e+00 -5.000e+00 -5.000e+00 -5.000e+00 -5.000e+00 -5.000e+00 -5.000e+00 -5.000e+00 -5.000e+00 -5.000e+00 -5.000e+00 -5.000e+00 -5.000e+00 -5.000e+00 -5.000e+00 -5.000e+00 -5.000e+00 -5.000e+00 -5.000e+00 -5.000e+00 -1.100e+01 -1.100e+01 -1.100e+01 -1.100e+01 -2.000e+00 -2.000e+00 -2.000e+00 -2.000e+00 -2.000e+00 -2.000e+00 -2.000e+00 -2.000e+00 -2.000e+00 -2.000e+00 -7.000e+00 -7.000e+00 -7.000e+00 -7.000e+00 -7.000e+00 -7.000e+00 -7.000e+00 -7.000e+00 -7.000e+00 -7.000e+00 -7.000e+00 -7.000e+00 -7.000e+00 -7.000e+00 -7.000e+00 -7.000e+00 -7.000e+00 -7.000e+00 -7.000e+00 -7.000e+00 -7.000e+00 -7.000e+00 -7.000e+00 -7.000e+00 -7.000e+00 -7.000e+00 -7.000e+00 -7.000e+00 -7.000e+00 -7.000e+00 -7.000e+00 -7.000e+00 -7.000e+00 -7.000e+00 -7.000e+00 -7.000e+00 -7.000e+00 -7.000e+00 -7.000e+00 -7.000e+00 -7.000e+00 -7.000e+00 -7.000e+00 -7.000e+00 -7.000e+00 -7.000e+00 -7.000e+00 -7.000e+00 -7.000e+00 -7.000e+00 -7.000e+00 -7.000e+00 -7.000e+00 -7.000e+00 -7.000e+00 -7.000e+00 -7.000e+00 -7.000e+00 -7.000e+00 -7.000e+00 -7.000e+00 -7.000e+00 -7.000e+00 -7.000e+00 -7.000e+00 -7.000e+00 -7.000e+00 -7.000e+00 -7.000e+00 -7.000e+00 -7.000e+00 -7.000e+00 -7.000e+00 -7.000e+00 -7.000e+00 -7.000e+00 -7.000e+00 -7.000e+00 -7.000e+00 -7.000e+00 -7.000e+00 -7.000e+00 -7.000e+00 -7.000e+00 -7.000e+00 -7.000e+00 -7.000e+00 -7.000e+00 -7.000e+00 -7.000e+00 -7.000e+00 -7.000e+00 -7.000e+00 -7.000e+00 -7.000e+00 -7.000e+00 -7.000e+00 -7.000e+00 -7.000e+00 -7.000e+00 -7.000e+00 -7.000e+00 -7.000e+00 -7.000e+00 -7.000e+00 -7.000e+00 -7.000e+00 -7.000e+00 -7.000e+00 -7.000e+00 -7.000e+00 -9.000e+00 -9.000e+00 -9.000e+00 -4.000e+00 -4.000e+00 -4.000e+00 -4.000e+00 -4.000e+00 -4.000e+00 -4.000e+00 -4.000e+00 -4.000e+00 -4.000e+00 -4.000e+00 -4.000e+00 -4.000e+00 -4.000e+00 -4.000e+00 -4.000e+00 -4.000e+00 -4.000e+00 -4.000e+00 -4.000e+00 -4.000e+00 -4.000e+00 -4.000e+00 -4.000e+00
           </DataArray>
           <DataArray type="Float32" Name="nitrate/minimalNutrientConcentration" NumberOfComponents="1" format="ascii">
 6.000e+02 6.000e+02 6.000e+02 6.000e+02 6.000e+02 6.000e+02 6.000e+02 6.000e+02 6.000e+02 6.000e+02 6.000e+02 6.000e+02 6.000e+02 6.000e+02 6.000e+02 6.000e+02 6.000e+02 6.000e+02 6.000e+02 6.000e+02 6.000e+02 6.000e+02 6.000e+02 6.000e+02 6.000e+02 6.000e+02 6.000e+02 6.000e+02 6.000e+02 6.000e+02 6.000e+02 6.000e+02 6.000e+02 6.000e+02 6.000e+02 6.000e+02 6.000e+02 6.000e+02 6.000e+02 6.000e+02 6.000e+02 6.000e+02 6.000e+02 6.000e+02 6.000e+02 6.000e+02 6.000e+02 6.000e+02 6.000e+02 6.000e+02 6.000e+02 6.000e+02 6.000e+02 6.000e+02 6.000e+02 6.000e+02 6.000e+02 6.000e+02 6.000e+02 6.000e+02 6.000e+02 6.000e+02 6.000e+02 6.000e+02 6.000e+02 6.000e+02 6.000e+02 6.000e+02 6.000e+02 6.000e+02 6.000e+02 6.000e+02 6.000e+02 6.000e+02 6.000e+02 6.000e+02 6.000e+02 6.000e+02 6.000e+02 6.000e+02 6.000e+02 6.000e+02 6.000e+02 6.000e+02 6.000e+02 6.000e+02 6.000e+02 6.000e+02 6.000e+02 6.000e+02 6.000e+02 6.000e+02 6.000e+02 6.000e+02 6.000e+02 6.000e+02 6.000e+02 6.000e+02 6.000e+02 6.000e+02 6.000e+02 6.000e+02 6.000e+02 6.000e+02 6.000e+02 6.000e+02 6.000e+02 6.000e+02 6.000e+02 6.000e+02 6.000e+02 6.000e+02 6.000e+02 6.000e+02 6.000e+02 6.000e+02 6.000e+02 6.000e+02 6.000e+02 6.000e+02 6.000e+02 6.000e+02 6.000e+02 6.000e+02 6.000e+02 6.000e+02 6.000e+02 6.000e+02 6.000e+02 6.000e+02 6.000e+02 6.000e+02 6.000e+02 6.000e+02 6.000e+02 6.000e+02 6.000e+02 6.000e+02 6.000e+02 6.000e+02 6.000e+02 6.000e+02 6.000e+02 6.000e+02 6.000e+02 6.000e+02 6.000e+02 6.000e+02 6.000e+02 6.000e+02 6.000e+02 6.000e+02 6.000e+02 6.000e+02 6.000e+02 6.000e+02 6.000e+02 6.000e+02 6.000e+02 6.000e+02 6.000e+02 6.000e+02 6.000e+02 6.000e+02 6.000e+02 6.000e+02 6.000e+02 6.000e+02 6.000e+02 6.000e+02 6.000e+02 6.000e+02 6.000e+02 6.000e+02 6.000e+02 6.000e+02 6.000e+02 6.000e+02 6.000e+02 6.000e+02 6.000e+02 6.000e+02 6.000e+02 6.000e+02
           </DataArray>
           <DataArray type="Float32" Name="nitrate/optimalNutrientConcentration" NumberOfComponents="1" format="ascii">
 1.200e+03 1.200e+03 1.200e+03 1.200e+03 1.200e+03 1.200e+03 1.200e+03 1.200e+03 1.200e+03 1.200e+03 1.200e+03 1.200e+03 1.200e+03 1.200e+03 1.200e+03 1.200e+03 1.200e+03 1.200e+03 1.200e+03 1.200e+03 1.200e+03 1.200e+03 1.200e+03 1.200e+03 1.200e+03 1.200e+03 1.200e+03 1.200e+03 1.200e+03 1.200e+03 1.200e+03 1.200e+03 1.200e+03 1.200e+03 1.200e+03 1.200e+03 1.200e+03 1.200e+03 1.200e+03 1.200e+03 1.200e+03 1.200e+03 1.200e+03 1.200e+03 1.200e+03 1.200e+03 1.200e+03 1.200e+03 1.200e+03 1.200e+03 1.200e+03 1.200e+03 1.200e+03 1.200e+03 1.200e+03 1.200e+03 1.200e+03 1.200e+03 1.200e+03 1.200e+03 1.200e+03 1.200e+03 1.200e+03 1.200e+03 1.200e+03 1.200e+03 1.200e+03 1.200e+03 1.200e+03 1.200e+03 1.200e+03 1.200e+03 1.200e+03 1.200e+03 1.200e+03 1.200e+03 1.200e+03 1.200e+03 1.200e+03 1.200e+03 1.200e+03 1.200e+03 1.200e+03 1.200e+03 1.200e+03 1.200e+03 1.200e+03 1.200e+03 1.200e+03 1.200e+03 1.200e+03 1.200e+03 1.200e+03 1.200e+03 1.200e+03 1.200e+03 1.200e+03 1.200e+03 1.200e+03 1.200e+03 1.200e+03 1.200e+03 1.200e+03 1.200e+03 1.200e+03 1.200e+03 1.200e+03 1.200e+03 1.200e+03 1.200e+03 1.200e+03 1.200e+03 1.200e+03 1.200e+03 1.200e+03 1.200e+03 1.200e+03 1.200e+03 1.200e+03 1.200e+03 1.200e+03 1.200e+03 1.200e+03 1.200e+03 1.200e+03 1.200e+03 1.200e+03 1.200e+03 1.200e+03 1.200e+03 1.200e+03 1.200e+03 1.200e+03 1.200e+03 1.200e+03 1.200e+03 1.200e+03 1.200e+03 1.200e+03 1.200e+03 1.200e+03 1.200e+03 1.200e+03 1.200e+03 1.200e+03 1.200e+03 1.200e+03 1.200e+03 1.200e+03 1.200e+03 1.200e+03 1.200e+03 1.200e+03 1.200e+03 1.200e+03 1.200e+03 1.200e+03 1.200e+03 1.200e+03 1.200e+03 1.200e+03 1.200e+03 1.200e+03 1.200e+03 1.200e+03 1.200e+03 1.200e+03 1.200e+03 1.200e+03 1.200e+03 1.200e+03 1.200e+03 1.200e+03 1.200e+03 1.200e+03 1.200e+03 1.200e+03 1.200e+03 1.200e+03 1.200e+03 1.200e+03 1.200e+03 1.200e+03 1.200e+03
           </DataArray>
           <DataArray type="Float32" Name="nitrate/radiusDepletionZone" NumberOfComponents="1" format="ascii">
 3.401e-02 3.400e-02 3.400e-02 3.400e-02 3.400e-02 3.400e-02 3.400e-02 3.400e-02 3.401e-02 3.400e-02 9.861e-01 9.429e-01 6.113e-01 5.924e-01 4.400e-01 2.963e-01 3.401e-02 3.400e-02 9.925e-01 9.429e-01 6.113e-01 5.924e-01 4.400e-01 2.963e-01 3.401e-02 3.400e-02 9.925e-01 9.429e-01 6.113e-01 5.924e-01 4.400e-01 2.963e-01 3.400e-02 3.400e-02 3.400e-02 3.400e-02 2.666e+00 7.002e+00 2.216e+01 1.611e+01 1.293e+01 1.050e+01 8.841e+00 2.043e-01 2.035e-01 2.021e-01 1.502e-02 1.500e-02 2.896e-01 1.502e-02 1.500e-02 2.832e-01 1.501e-02 1.500e-02 3.218e-01 1.501e-02 1.500e-02 3.433e-01 1.501e-02 1.500e-02 3.232e-01 1.501e-02 1.500e-02 1.501e-02 1.500e-02 1.501e-02 1.500e-02 1.501e-02 1.500e-02 1.501e-02 1.500e-02 1.501e-02 1.500e-02 1.501e-02 1.500e-02 1.502e-02 1.500e-02 4.102e-01 1.501e-02 1.500e-02 1.501e-02 1.500e-02 1.501e-02 1.500e-02 1.501e-02 1.500e-02 1.501e-02 1.500e-02 1.500e-02 1.500e-02 1.500e-02 1.500e-02 1.500e-02 1.500e-02 1.500e-02 1.500e-02 1.500e-02 1.500e-02 1.501e-02 1.500e-02 6.074e-01 1.500e-02 1.500e-02 1.500e-02 1.500e-02 1.500e-02 1.500e-02 1.500e-02 1.500e-02 1.500e-02 1.500e-02 1.500e-02 1.500e-02 1.500e-02 1.500e-02 1.500e-02 1.500e-02 1.501e-02 1.500e-02 4.356e-01 1.500e-02 1.500e-02 1.500e-02 1.500e-02 1.500e-02 1.500e-02 1.500e-02 1.500e-02 1.500e-02 1.500e-02 1.501e-02 1.500e-02 4.020e-01 1.500e-02 1.500e-02 1.500e-02 1.500e-02 1.500e-02 1.500e-02 1.500e-02 1.500e-02 1.500e-02 1.500e-02 1.501e-02 1.500e-02 2.258e-01 1.500e-02 1.500e-02 1.500e-02 1.500e-02 1.501e-02 1.500e-02 3.525e-01 1.501e-02 1.500e-02 1.501e-02 1.500e-02 1.501e-02 1.500e-02 1.500e-02 2.118e+00 5.231e+01 2.318e+01 1.545e+01 1.083e+01 8.660e+00 6.713e+00 5.752e+00 4.655e+00 4.137e+00 3.421e+00 2.836e+00 2.599e+00 2.167e+00 2.012e+00 1.677e+00 1.572e+00 1.302e+00 1.062e+00 1.006e+00 8.053e-01 6.235e-01 4.583e-01 3.075e-01
           </DataArray>
           <DataArray type="Float32" Name="nitrate/rootSegmentMinimalNutrientContent" NumberOfComponents="1" format="ascii">
 1.635e-01 1.811e-01 1.406e-01 1.646e-01 1.230e-01 1.337e-01 1.443e-01 7.615e-02 1.635e-01 1.811e-01 1.406e-01 1.646e-01 1.230e-01 1.337e-01 1.443e-01 7.615e-02 1.635e-01 1.811e-01 1.406e-01 1.646e-01 1.230e-01 1.337e-01 1.443e-01 7.615e-02 1.635e-01 1.811e-01 1.406e-01 1.646e-01 1.230e-01 1.337e-01 1.443e-01 7.615e-02 9.025e-02 9.025e-02 9.025e-02 9.025e-02 6.064e+00 5.477e+00 6.739e+00 4.672e+00 6.912e+00 6.835e+00 6.464e+00 6.546e+00 6.432e+00 1.821e+00 3.569e-02 3.516e-02 1.222e-02 3.530e-02 3.458e-02 7.197e-03 3.537e-02 3.566e-02 1.069e-02 3.493e-02 3.493e-02 1.587e-03 3.527e-02 3.502e-02 3.334e-03 3.532e-02 3.032e-02 3.491e-02 3.418e-02 3.477e-02 3.219e-02 3.577e-02 2.312e-02 3.552e-02 3.229e-02 3.547e-02 1.769e-02 3.561e-02 2.302e-02 3.490e-02 3.547e-02 1.450e-02 3.556e-02 2.132e-02 3.514e-02 2.451e-02 3.507e-02 2.012e-02 3.542e-02 2.112e-02 3.482e-02 2.756e-02 3.538e-02 2.288e-02 3.502e-02 1.155e-02 3.582e-02 6.781e-03 3.471e-02 1.231e-02 3.468e-02 1.278e-02 3.434e-02 3.471e-02 2.081e-02 3.535e-02 3.491e-02 4.187e-03 3.551e-02 1.007e-02 3.474e-02 1.372e-03 3.465e-02 2.954e-03 3.563e-02 4.946e-03 3.493e-02 1.534e-03 2.980e-02 2.915e-02 3.375e-02 3.504e-02 3.512e-02 7.628e-03 2.494e-02 2.955e-02 2.529e-02 3.273e-02 2.672e-02 2.195e-02 2.279e-02 2.303e-02 2.083e-02 2.026e-02 3.526e-02 3.511e-02 1.336e-02 1.485e-02 1.684e-02 1.596e-02 1.434e-02 1.123e-02 1.211e-02 1.176e-02 7.553e-03 8.372e-03 6.409e-03 3.584e-02 3.547e-02 1.477e-03 5.204e-03 3.625e-03 2.680e-03 1.327e-03 3.587e-02 3.518e-02 1.406e-02 3.450e-02 3.516e-02 3.506e-02 3.402e-02 3.541e-02 2.358e-02 1.092e-02 3.586e-01 3.469e-01 3.360e-01 3.259e-01 3.165e-01 3.078e-01 2.997e-01 2.923e-01 2.860e-01 2.808e-01 2.768e-01 2.734e-01 2.703e-01 2.674e-01 2.649e-01 2.626e-01 2.606e-01 2.588e-01 2.573e-01 2.561e-01 2.551e-01 2.544e-01 2.539e-01 8.457e-02
           </DataArray>
           <DataArray type="Float32" Name="nitrate/rootSegmentNutrientUptake" NumberOfComponents="1" format="ascii">
 0.000e+00 0.000e+00 0.000e+00 0.000e+00 0.000e+00 0.000e+00 0.000e+00 0.000e+00 0.000e+00 0.000e+00 3.099e-01 2.658e-01 1.399e-01 9.984e-02 5.129e-02 5.148e-03 0.000e+00 0.000e+00 3.099e-01 2.658e-01 1.399e-01 9.985e-02 5.129e-02 5.146e-03 0.000e+00 0.000e+00 3.098e-01 2.657e-01 1.399e-01 9.983e-02 5.129e-02 5.150e-03 0.000e+00 0.000e+00 0.000e+00 0.000e+00 3.660e+00 2.872e+00 4.092e+00 2.911e+00 4.237e+00 4.174e+00 3.844e+00 0.000e+00 0.000e+00 0.000e+00 0.000e+00 0.000e+00 1.041e-02 0.000e+00 0.000e+00 3.737e-03 0.000e+00 0.000e+00 6.976e-03 0.000e+00 0.000e+00 1.564e-04 0.000e+00 0.000e+00 6.942e-04 0.000e+00 0.000e+00 0.000e+00 0.000e+00 0.000e+00 0.000e+00 0.000e+00 0.000e+00 0.000e+00 0.000e+00 0.000e+00 0.000e+00 0.000e+00 0.000e+00 0.000e+00 0.000e+00 1.435e-02 0.000e+00 0.000e+00 0.000e+00 0.000e+00 0.000e+00 0.000e+00 0.000e+00 0.000e+00 0.000e+00 0.000e+00 0.000e+00 0.000e+00 0.000e+00 0.000e+00 0.000e+00 0.000e+00 0.000e+00 0.000e+00 0.000e+00 0.000e+00 0.000e+00 0.000e+00 2.712e-02 0.000e+00 0.000e+00 0.000e+00 0.000e+00 0.000e+00 0.000e+00 0.000e+00 0.000e+00 0.000e+00 0.000e+00 0.000e+00 0.000e+00 0.000e+00 0.000e+00 0.000e+00 0.000e+00 0.000e+00 0.000e+00 4.086e-03 0.000e+00 0.000e+00 0.000e+00 0.000e+00 0.000e+00 0.000e+00 0.000e+00 0.000e+00 0.000e+00 0.000e+00 0.000e+00 0.000e+00 1.174e-02 0.000e+00 0.000e+00 0.000e+00 0.000e+00 0.000e+00 0.000e+00 0.000e+00 0.000e+00 0.000e+00 0.000e+00 0.000e+00 0.000e+00 1.359e-04 0.000e+00 0.000e+00 0.000e+00 0.000e+00 0.000e+00 0.000e+00 1.229e-02 0.000e+00 0.000e+00 0.000e+00 0.000e+00 0.000e+00 0.000e+00 0.000e+00 2.300e+00 1.785e+00 2.264e+00 2.214e+00 2.152e+00 2.070e+00 1.972e+00 1.866e+00 1.753e+00 1.637e+00 1.518e+00 1.398e+00 1.277e+00 1.155e+00 1.033e+00 9.103e-01 7.867e-01 6.635e-01 5.429e-01 4.255e-01 3.108e-01 1.985e-01 8.552e-02 4.021e-03
           </DataArray>
           <DataArray type="Float32" Name="nitrate/rootSegmentOptimalNutrientContent" NumberOfComponents="1" format="ascii">
 3.270e-01 3.621e-01 2.812e-01 3.291e-01 2.460e-01 2.673e-01 2.886e-01 1.523e-01 3.270e-01 3.621e-01 2.812e-01 3.291e-01 2.460e-01 2.673e-01 2.886e-01 1.523e-01 3.270e-01 3.621e-01 2.812e-01 3.291e-01 2.460e-01 2.673e-01 2.886e-01 1.523e-01 3.270e-01 3.621e-01 2.812e-01 3.291e-01 2.460e-01 2.673e-01 2.886e-01 1.523e-01 1.805e-01 1.805e-01 1.805e-01 1.805e-01 1.213e+01 1.095e+01 1.348e+01 9.344e+00 1.382e+01 1.367e+01 1.293e+01 1.309e+01 1.286e+01 3.643e+00 7.138e-02 7.032e-02 2.444e-02 7.059e-02 6.915e-02 1.439e-02 7.075e-02 7.131e-02 2.138e-02 6.986e-02 6.987e-02 3.174e-03 7.053e-02 7.004e-02 6.667e-03 7.064e-02 6.063e-02 6.982e-02 6.836e-02 6.954e-02 6.439e-02 7.154e-02 4.623e-02 7.104e-02 6.458e-02 7.094e-02 3.539e-02 7.123e-02 4.604e-02 6.979e-02 7.095e-02 2.900e-02 7.112e-02 4.263e-02 7.027e-02 4.902e-02 7.013e-02 4.024e-02 7.084e-02 4.224e-02 6.965e-02 5.512e-02 7.077e-02 4.576e-02 7.003e-02 2.309e-02 7.164e-02 1.356e-02 6.942e-02 2.462e-02 6.935e-02 2.556e-02 6.868e-02 6.942e-02 4.161e-02 7.071e-02 6.981e-02 8.373e-03 7.103e-02 2.014e-02 6.948e-02 2.745e-03 6.931e-02 5.908e-03 7.126e-02 9.891e-03 6.985e-02 3.069e-03 5.960e-02 5.831e-02 6.750e-02 7.007e-02 7.024e-02 1.526e-02 4.988e-02 5.911e-02 5.058e-02 6.546e-02 5.345e-02 4.389e-02 4.559e-02 4.606e-02 4.166e-02 4.052e-02 7.053e-02 7.022e-02 2.673e-02 2.970e-02 3.367e-02 3.192e-02 2.867e-02 2.247e-02 2.422e-02 2.352e-02 1.511e-02 1.674e-02 1.282e-02 7.169e-02 7.094e-02 2.954e-03 1.041e-02 7.251e-03 5.360e-03 2.655e-03 7.174e-02 7.036e-02 2.812e-02 6.900e-02 7.031e-02 7.012e-02 6.805e-02 7.082e-02 4.717e-02 2.183e-02 7.172e-01 6.939e-01 6.721e-01 6.518e-01 6.330e-01 6.155e-01 5.994e-01 5.847e-01 5.720e-01 5.617e-01 5.535e-01 5.467e-01 5.405e-01 5.349e-01 5.298e-01 5.252e-01 5.212e-01 5.176e-01 5.147e-01 5.122e-01 5.102e-01 5.088e-01 5.079e-01 1.691e-01
           </DataArray>
           <DataArray type="Float32" Name="parentRootClassID" NumberOfComponents="1" format="ascii">
 -2.000e+00 -2.000e+00 -2.000e+00 -2.000e+00 -2.000e+00 -2.000e+00 -2.000e+00 -2.000e+00 -2.000e+00 -2.000e+00 -2.000e+00 -2.000e+00 -2.000e+00 -2.000e+00 -2.000e+00 -2.000e+00 -2.000e+00 -2.000e+00 -2.000e+00 -2.000e+00 -2.000e+00 -2.000e+00 -2.000e+00 -2.000e+00 -2.000e+00 -2.000e+00 -2.000e+00 -2.000e+00 -2.000e+00 -2.000e+00 -2.000e+00 -2.000e+00 -2.000e+00 -2.000e+00 -2.000e+00 -2.000e+00 -3.000e+00 -3.000e+00 -3.000e+00 -3.000e+00 -3.000e+00 -3.000e+00 -3.000e+00 -3.000e+00 -3.000e+00 -3.000e+00 -4.000e+00 -4.000e+00 -4.000e+00 -4.000e+00 -4.000e+00 -4.000e+00 -4.000e+00 -4.000e+00 -4.000e+00 -4.000e+00 -4.000e+00 -4.000e+00 -4.000e+00 -4.000e+00 -4.000e+00 -4.000e+00 -4.000e+00 -4.000e+00 -4.000e+00 -4.000e+00 -4.000e+00 -4.000e+00 -4.000e+00 -4.000e+00 -4.000e+00 -4.000e+00 -4.000e+00 -4.000e+00 -4.000e+00 -4.000e+00 -4.000e+00 -4.000e+00 -4.000e+00 -4.000e+00 -4.000e+00 -4.000e+00 -4.000e+00 -4.000e+00 -4.000e+00 -4.000e+00 -4.000e+00 -4.000e+00 -4.000e+00 -4.000e+00 -4.000e+00 -4.000e+00 -4.000e+00 -4.000e+00 -4.000e+00 -4.000e+00 -4.000e+00 -4.000e+00 -4.000e+00 -4.000e+00 -4.000e+00 -4.000e+00 -4.000e+00 -4.000e+00 -4.000e+00 -4.000e+00 -4.000e+00 -4.000e+00 -4.000e+00 -4.000e+00 -4.000e+00 -4.000e+00 -4.000e+00 -4.000e+00 -4.000e+00 -4.000e+00 -4.000e+00 -4.000e+00 -4.000e+00 -4.000e+00 -4.000e+00 -4.000e+00 -4.000e+00 -4.000e+00 -4.000e+00 -4.000e+00 -4.000e+00 -4.000e+00 -4.000e+00 -4.000e+00 -4.000e+00 -4.000e+00 -4.000e+00 -4.000e+00 -4.000e+00 -4.000e+00 -4.000e+00 -4.000e+00 -4.000e+00 -4.000e+00 -4.000e+00 -4.000e+00 -4.000e+00 -4.000e+00 -4.000e+00 -4.000e+00 -4.000e+00 -4.000e+00 -4.000e+00 -4.000e+00 -4.000e+00 -4.000e+00 -4.000e+00 -4.000e+00 -4.000e+00 -4.000e+00 -4.000e+00 -4.000e+00 -4.000e+00 -4.000e+00 -3.000e+00 -3.000e+00 -3.000e+00 -3.000e+00 -3.000e+00 -3.000e+00 -3.000e+00 -3.000e+00 -3.000e+00 -3.000e+00 -3.000e+00 -3.000e+00 -3.000e+00 -3.000e+00 -3.000e+00 -3.000e+00 -3.000e+00 -3.000e+00 -3.000e+00 -3.000e+00 -3.000e+00 -3.000e+00 -3.000e+00 -3.000e+00
           </DataArray>
           <DataArray type="Float32" Name="plantID" NumberOfComponents="1" format="ascii">
 8.000e+00 8.000e+00 8.000e+00 8.000e+00 8.000e+00 8.000e+00 8.000e+00 8.000e+00 8.000e+00 8.000e+00 8.000e+00 8.000e+00 8.000e+00 8.000e+00 8.000e+00 8.000e+00 8.000e+00 8.000e+00 8.000e+00 8.000e+00 8.000e+00 8.000e+00 8.000e+00 8.000e+00 8.000e+00 8.000e+00 8.000e+00 8.000e+00 8.000e+00 8.000e+00 8.000e+00 8.000e+00 8.000e+00 8.000e+00 8.000e+00 8.000e+00 8.000e+00 8.000e+00 8.000e+00 8.000e+00 8.000e+00 8.000e+00 8.000e+00 8.000e+00 8.000e+00 8.000e+00 8.000e+00 8.000e+00 8.000e+00 8.000e+00 8.000e+00 8.000e+00 8.000e+00 8.000e+00 8.000e+00 8.000e+00 8.000e+00 8.000e+00 8.000e+00 8.000e+00 8.000e+00 8.000e+00 8.000e+00 8.000e+00 8.000e+00 8.000e+00 8.000e+00 8.000e+00 8.000e+00 8.000e+00 8.000e+00 8.000e+00 8.000e+00 8.000e+00 8.000e+00 8.000e+00 8.000e+00 8.000e+00 8.000e+00 8.000e+00 8.000e+00 8.000e+00 8.000e+00 8.000e+00 8.000e+00 8.000e+00 8.000e+00 8.000e+00 8.000e+00 8.000e+00 8.000e+00 8.000e+00 8.000e+00 8.000e+00 8.000e+00 8.000e+00 8.000e+00 8.000e+00 8.000e+00 8.000e+00 8.000e+00 8.000e+00 8.000e+00 8.000e+00 8.000e+00 8.000e+00 8.000e+00 8.000e+00 8.000e+00 8.000e+00 8.000e+00 8.000e+00 8.000e+00 8.000e+00 8.000e+00 8.000e+00 8.000e+00 8.000e+00 8.000e+00 8.000e+00 8.000e+00 8.000e+00 8.000e+00 8.000e+00 8.000e+00 8.000e+00 8.000e+00 8.000e+00 8.000e+00 8.000e+00 8.000e+00 8.000e+00 8.000e+00 8.000e+00 8.000e+00 8.000e+00 8.000e+00 8.000e+00 8.000e+00 8.000e+00 8.000e+00 8.000e+00 8.000e+00 8.000e+00 8.000e+00 8.000e+00 8.000e+00 8.000e+00 8.000e+00 8.000e+00 8.000e+00 8.000e+00 8.000e+00 8.000e+00 8.000e+00 8.000e+00 8.000e+00 8.000e+00 8.000e+00 8.000e+00 8.000e+00 8.000e+00 8.000e+00 8.000e+00 8.000e+00 8.000e+00 8.000e+00 8.000e+00 8.000e+00 8.000e+00 8.000e+00 8.000e+00 8.000e+00 8.000e+00 8.000e+00 8.000e+00 8.000e+00 8.000e+00 8.000e+00 8.000e+00 8.000e+00 8.000e+00 8.000e+00 8.000e+00
           </DataArray>
           <DataArray type="Float32" Name="plantTypeID" NumberOfComponents="1" format="ascii">