<?xml version="1.0"?>
<VTKFile type="UnstructuredGrid" version="0.1" byte_order="LittleEndian">
   <UnstructuredGrid>
      <Piece NumberOfPoints="260" NumberOfCells="24">
         <Points>
            <DataArray type="Float32" Name="Position" NumberOfComponents="3" format="ascii">
-0.145	-4.999	0.143
-0.033	-5.002	0.201
0.092	-5.004	0.182
0.181	-5.005	0.093
0.201	-5.004	-0.031
0.145	-5.001	-0.143
0.033	-4.998	-0.201
-0.092	-4.996	-0.182
-0.181	-4.995	-0.093
-0.201	-4.996	0.031
-0.127	-4.250	0.153
-0.016	-4.252	0.210
0.108	-4.253	0.190
0.197	-4.253	0.102
0.216	-4.252	-0.022
0.160	-4.251	-0.133
0.048	-4.249	-0.190
-0.076	-4.248	-0.171
-0.164	-4.248	-0.083
-0.184	-4.248	0.041
-0.125	-3.561	0.156
-0.014	-3.561	0.212
0.110	-3.561	0.192
0.198	-3.561	0.104
0.217	-3.560	-0.020
0.160	-3.560	-0.131
0.049	-3.559	-0.187
-0.075	-3.560	-0.168
-0.163	-3.560	-0.079
-0.182	-3.560	0.044
-0.126	-2.701	0.160
-0.014	-2.702	0.217
0.109	-2.701	0.197
0.197	-2.701	0.108
0.216	-2.700	-0.015
0.159	-2.699	-0.126
0.048	-2.699	-0.182
-0.076	-2.700	-0.162
-0.164	-2.700	-0.074
-0.183	-2.701	0.049
-0.127	-2.101	0.163
-0.015	-2.101	0.219
0.108	-2.101	0.199
0.195	-2.100	0.111
0.215	-2.100	-0.012
0.158	-2.100	-0.123
0.047	-2.100	-0.179
-0.076	-2.100	-0.159
-0.164	-2.101	-0.071
-0.183	-2.101	0.052
-0.129	-1.201	0.164
-0.018	-1.201	0.221
0.105	-1.201	0.201
0.192	-1.201	0.113
0.212	-1.201	-0.010
0.155	-1.200	-0.121
0.044	-1.200	-0.177
-0.079	-1.200	-0.157
-0.166	-1.200	-0.069
-0.186	-1.200	0.054
-0.124	-0.301	0.169
-0.013	-0.301	0.226
0.109	-0.301	0.206
0.197	-0.301	0.118
0.216	-0.301	-0.004
0.160	-0.300	-0.115
0.049	-0.300	-0.171
-0.073	-0.300	-0.152
-0.161	-0.300	-0.064
-0.181	-0.300	0.059
-0.124	0.560	0.171
-0.013	0.560	0.227
0.109	0.560	0.208
0.197	0.560	0.120
0.216	0.560	-0.002
0.160	0.559	-0.113
0.050	0.559	-0.169
-0.073	0.559	-0.150
-0.161	0.559	-0.062
-0.180	0.559	0.060
-0.125	1.440	0.167
-0.014	1.441	0.223
0.108	1.441	0.204
0.196	1.440	0.117
0.215	1.440	-0.006
0.159	1.439	-0.116
0.049	1.438	-0.172
-0.073	1.438	-0.153
-0.161	1.439	-0.066
-0.181	1.439	0.056
-0.126	2.316	0.161
-0.016	2.316	0.217
0.106	2.316	0.198
0.194	2.316	0.110
0.213	2.316	-0.012
0.157	2.316	-0.122
0.047	2.316	-0.178
-0.075	2.315	-0.159
-0.163	2.315	-0.072
-0.182	2.316	0.051
-0.126	2.469	0.162
-0.016	2.469	0.218
0.106	2.469	0.198
0.194	2.469	0.110
0.213	2.470	-0.012
0.156	2.470	-0.122
0.046	2.470	-0.178
-0.076	2.470	-0.158
-0.163	2.470	-0.070
-0.182	2.469	0.052
0.033	-4.999	-0.034
0.046	-4.996	-0.008
0.042	-4.994	0.021
0.021	-4.994	0.041
-0.007	-4.997	0.046
-0.033	-5.001	0.034
-0.046	-5.004	0.008
-0.042	-5.006	-0.021
-0.021	-5.006	-0.041
0.007	-5.003	-0.046
0.106	-5.699	0.023
0.119	-5.694	0.049
0.115	-5.692	0.077
0.095	-5.693	0.098
0.067	-5.697	0.103
0.042	-5.703	0.091
0.028	-5.707	0.066
0.032	-5.709	0.038
0.052	-5.708	0.017
0.080	-5.704	0.011
0.249	-6.384	0.094
0.263	-6.378	0.119
0.261	-6.377	0.147
0.242	-6.380	0.169
0.215	-6.386	0.176
0.189	-6.393	0.164
0.175	-6.399	0.140
0.178	-6.400	0.111
0.197	-6.397	0.090
0.224	-6.391	0.083
0.443	-7.061	0.126
0.457	-7.055	0.150
0.455	-7.054	0.178
0.437	-7.058	0.200
0.411	-7.066	0.207
0.385	-7.074	0.196
0.371	-7.079	0.172
0.373	-7.080	0.144
0.391	-7.076	0.122
0.418	-7.068	0.115
0.644	-7.739	0.168
0.658	-7.734	0.192
0.655	-7.732	0.221
0.637	-7.735	0.242
0.610	-7.742	0.248
0.585	-7.749	0.237
0.571	-7.754	0.213
0.574	-7.755	0.185
0.592	-7.752	0.164
0.619	-7.746	0.157
0.787	-8.431	0.223
0.801	-8.426	0.247
0.797	-8.425	0.276
0.778	-8.427	0.296
0.751	-8.431	0.302
0.726	-8.437	0.291
0.712	-8.442	0.266
0.716	-8.443	0.238
0.735	-8.441	0.217
0.762	-8.437	0.211
0.907	-9.125	0.286
0.920	-9.121	0.311
0.916	-9.119	0.339
0.897	-9.120	0.359
0.870	-9.125	0.365
0.845	-9.130	0.353
0.832	-9.135	0.329
0.835	-9.137	0.301
0.854	-9.135	0.280
0.882	-9.131	0.275
1.038	-9.816	0.345
1.051	-9.811	0.369
1.048	-9.810	0.397
1.029	-9.812	0.417
1.002	-9.817	0.423
0.978	-9.823	0.412
0.964	-9.828	0.388
0.967	-9.830	0.360
0.986	-9.828	0.339
1.013	-9.822	0.333
1.198	-10.501	0.404
1.211	-10.496	0.428
1.208	-10.494	0.456
1.190	-10.497	0.477
1.163	-10.503	0.483
1.139	-10.510	0.472
1.125	-10.515	0.448
1.128	-10.517	0.421
1.147	-10.514	0.400
1.173	-10.508	0.394
1.373	-11.184	0.464
1.386	-11.178	0.488
1.383	-11.176	0.515
1.365	-11.178	0.536
1.338	-11.185	0.543
1.314	-11.192	0.532
1.301	-11.198	0.508
1.304	-11.200	0.480
1.322	-11.198	0.459
1.348	-11.191	0.453
1.554	-11.861	0.547
1.568	-11.855	0.571
1.565	-11.853	0.598
1.547	-11.856	0.619
1.520	-11.863	0.626
1.496	-11.871	0.615
1.483	-11.877	0.591
1.486	-11.879	0.564
1.504	-11.876	0.543
1.530	-11.869	0.536
1.758	-12.535	0.602
1.771	-12.529	0.625
1.768	-12.527	0.653
1.751	-12.531	0.674
1.724	-12.538	0.681
1.700	-12.546	0.670
1.687	-12.552	0.647
1.689	-12.554	0.619
1.707	-12.550	0.598
1.733	-12.543	0.591
1.955	-13.211	0.668
1.968	-13.205	0.692
1.966	-13.203	0.720
1.948	-13.207	0.741
1.922	-13.214	0.747
1.897	-13.221	0.737
1.884	-13.227	0.713
1.886	-13.229	0.685
1.904	-13.225	0.664
1.930	-13.218	0.658
2.140	-13.892	0.708
2.154	-13.887	0.731
2.151	-13.886	0.759
2.133	-13.890	0.780
2.107	-13.895	0.786
2.082	-13.902	0.776
2.068	-13.906	0.752
2.071	-13.907	0.724
2.089	-13.904	0.703
2.115	-13.898	0.697
2.184	-14.124	0.718
2.198	-14.120	0.742
2.195	-14.120	0.769
2.177	-14.122	0.790
2.150	-14.127	0.796
2.125	-14.132	0.785
2.112	-14.136	0.761
2.114	-14.136	0.734
2.133	-14.134	0.713
2.159	-14.129	0.707
		    </DataArray>
         </Points>
         <Cells>
            <DataArray type="Int32" Name="connectivity" NumberOfComponents="1" format="ascii">
 0 10 1 11 2 12 3 13 4 14 5 15 6 16 7 17 8 18 9 19 0 10
 10 20 11 21 12 22 13 23 14 24 15 25 16 26 17 27 18 28 19 29 10 20
 20 30 21 31 22 32 23 33 24 34 25 35 26 36 27 37 28 38 29 39 20 30
 30 40 31 41 32 42 33 43 34 44 35 45 36 46 37 47 38 48 39 49 30 40
 40 50 41 51 42 52 43 53 44 54 45 55 46 56 47 57 48 58 49 59 40 50
 50 60 51 61 52 62 53 63 54 64 55 65 56 66 57 67 58 68 59 69 50 60
 60 70 61 71 62 72 63 73 64 74 65 75 66 76 67 77 68 78 69 79 60 70
 70 80 71 81 72 82 73 83 74 84 75 85 76 86 77 87 78 88 79 89 70 80
 80 90 81 91 82 92 83 93 84 94 85 95 86 96 87 97 88 98 89 99 80 90
 90 100 91 101 92 102 93 103 94 104 95 105 96 106 97 107 98 108 99 109 90 100
 110 120 111 121 112 122 113 123 114 124 115 125 116 126 117 127 118 128 119 129 110 120
 120 130 121 131 122 132 123 133 124 134 125 135 126 136 127 137 128 138 129 139 120 130
 130 140 131 141 132 142 133 143 134 144 135 145 136 146 137 147 138 148 139 149 130 140
 140 150 141 151 142 152 143 153 144 154 145 155 146 156 147 157 148 158 149 159 140 150
 150 160 151 161 152 162 153 163 154 164 155 165 156 166 157 167 158 168 159 169 150 160
 160 170 161 171 162 172 163 173 164 174 165 175 166 176 167 177 168 178 169 179 160 170
 170 180 171 181 172 182 173 183 174 184 175 185 176 186 177 187 178 188 179 189 170 180
 180 190 181 191 182 192 183 193 184 194 185 195 186 196 187 197 188 198 189 199 180 190
 190 200 191 201 192 202 193 203 194 204 195 205 196 206 197 207 198 208 199 209 190 200
 200 210 201 211 202 212 203 213 204 214 205 215 206 216 207 217 208 218 209 219 200 210
 210 220 211 221 212 222 213 223 214 224 215 225 216 226 217 227 218 228 219 229 210 220
 220 230 221 231 222 232 223 233 224 234 225 235 226 236 227 237 228 238 229 239 220 230
 230 240 231 241 232 242 233 243 234 244 235 245 236 246 237 247 238 248 239 249 230 240
 240 250 241 251 242 252 243 253 244 254 245 255 246 256 247 257 248 258 249 259 240 250

            </DataArray>
            <DataArray type="Int32" Name="offsets" NumberOfComponents="1" format="ascii">
 22 44 66 88 110 132 154 176 198 220 242 264 286 308 330 352 374 396 418 440 462 484 506 528
            </DataArray>
            <DataArray type="UInt8"  Name="types" NumberOfComponents="1" format="ascii">
6 6 6 6 6 6 6 6 6 6 6 6 6 6 6 6 6 6 6 6 6 6 6 6
            </DataArray>
         </Cells>
         <CellData>
           <DataArray type="Float32" Name="combinedRootClassID" NumberOfComponents="1" format="ascii">
 -2.000e+00 -2.000e+00 -2.000e+00 -2.000e+00 -2.000e+00 -2.000e+00 -2.000e+00 -2.000e+00 -2.000e+00 -2.000e+00 -4.000e+00 -4.000e+00 -4.000e+00 -4.000e+00 -4.000e+00 -4.000e+00 -4.000e+00 -4.000e+00 -4.000e+00 -4.000e+00 -4.000e+00 -4.000e+00 -4.000e+00 -4.000e+00
           </DataArray>
           <DataArray type="Float32" Name="nitrate/minimalNutrientConcentration" NumberOfComponents="1" format="ascii">
 6.000e+02 6.000e+02 6.000e+02 6.000e+02 6.000e+02 6.000e+02 6.000e+02 6.000e+02 6.000e+02 6.000e+02 6.000e+02 6.000e+02 6.000e+02 6.000e+02 6.000e+02 6.000e+02 6.000e+02 6.000e+02 6.000e+02 6.000e+02 6.000e+02 6.000e+02 6.000e+02 6.000e+02
           </DataArray>
           <DataArray type="Float32" Name="nitrate/optimalNutrientConcentration" NumberOfComponents="1" format="ascii">
 1.200e+03 1.200e+03 1.200e+03 1.200e+03 1.200e+03 1.200e+03 1.200e+03 1.200e+03 1.200e+03 1.200e+03 1.200e+03 1.200e+03 1.200e+03 1.200e+03 1.200e+03 1.200e+03 1.200e+03 1.200e+03 1.200e+03 1.200e+03 1.200e+03 1.200e+03 1.200e+03 1.200e+03
           </DataArray>
           <DataArray type="Float32" Name="nitrate/radiusDepletionZone" NumberOfComponents="1" format="ascii">
 2.139e+00 3.925e+00 9.397e+00 6.364e+00 5.384e+00 4.051e+00 3.411e+00 2.004e-01 2.002e-01 2.000e-01 1.595e+00 2.147e+01 9.771e+00 6.513e+00 4.454e+00 3.219e+00 2.682e+00 2.053e+00 1.581e+00 1.214e+00 9.203e-01 6.802e-01 4.801e-01 3.108e-01
           </DataArray>
           <DataArray type="Float32" Name="nitrate/rootSegmentMinimalNutrientContent" NumberOfComponents="1" format="ascii">
 5.503e+00 5.022e+00 6.232e+00 4.331e+00 6.481e+00 6.459e+00 6.154e+00 6.281e+00 6.238e+00 1.089e+00 2.768e-01 2.734e-01 2.703e-01 2.674e-01 2.649e-01 2.626e-01 2.606e-01 2.588e-01 2.573e-01 2.561e-01 2.551e-01 2.544e-01 2.539e-01 8.457e-02
           </DataArray>
           <DataArray type="Float32" Name="nitrate/rootSegmentNutrientUptake" NumberOfComponents="1" format="ascii">
 2.245e+00 1.510e+00 2.293e+00 1.604e+00 2.237e+00 2.085e+00 1.777e+00 0.000e+00 0.000e+00 0.000e+00 1.352e+00 1.039e+00 1.212e+00 1.115e+00 1.010e+00 8.965e-01 7.783e-01 6.591e-01 5.406e-01 4.244e-01 3.110e-01 1.984e-01 8.556e-02 3.990e-03
           </DataArray>
           <DataArray type="Float32" Name="nitrate/rootSegmentOptimalNutrientContent" NumberOfComponents="1" format="ascii">
 1.101e+01 1.004e+01 1.246e+01 8.662e+00 1.296e+01 1.292e+01 1.231e+01 1.256e+01 1.248e+01 2.178e+00 5.535e-01 5.467e-01 5.405e-01 5.349e-01 5.298e-01 5.252e-01 5.212e-01 5.176e-01 5.147e-01 5.122e-01 5.102e-01 5.088e-01 5.079e-01 1.691e-01
           </DataArray>
           <DataArray type="Float32" Name="parentRootClassID" NumberOfComponents="1" format="ascii">
 -3.000e+00 -3.000e+00 -3.000e+00 -3.000e+00 -3.000e+00 -3.000e+00 -3.000e+00 -3.000e+00 -3.000e+00 -3.000e+00 -3.000e+00 -3.000e+00 -3.000e+00 -3.000e+00 -3.000e+00 -3.000e+00 -3.000e+00 -3.000e+00 -3.000e+00 -3.000e+00 -3.000e+00 -3.000e+00 -3.000e+00 -3.000e+00
           </DataArray>
           <DataArray type="Float32" Name="plantID" NumberOfComponents="1" format="ascii">
 5.000e+00 5.000e+00 5.000e+00 5.000e+00 5.000e+00 5.000e+00 5.000e+00 5.000e+00 5.000e+00 5.000e+00 5.000e+00 5.000e+00 5.000e+00 5.000e+00 5.000e+00 5.000e+00 5.000e+00 5.000e+00 5.000e+00 5.000e+00 5.000e+00 5.000e+00 5.000e+00 5.000e+00
           </DataArray>
           <DataArray type="Float32" Name="plantTypeID" NumberOfComponents="1" format="ascii">
 0.000e+00 0.000e+00 0.000e+00 0.000e+00 0.000e+00 0.000e+00 0.000e+00 0.000e+00 0.000e+00 0.000e+00 0.000e+00 0.000e+00 0.000e+00 0.000e+00 0.000e+00 0.000e+00 0.000e+00 0.000e+00 0.000e+00 0.000e+00 0.000e+00 0.000e+00 0.000e+00 0.000e+00
           </DataArray>
           <DataArray type="Float32" Name="rootCircumference" NumberOfComponents="1" format="ascii">
 1.279e+00 1.273e+00 1.271e+00 1.268e+00 1.267e+00 1.265e+00 1.263e+00 1.261e+00 1.259e+00 1.257e+00 2.953e-01 2.935e-01 2.918e-01 2.903e-01 2.889e-01 2.877e-01 2.865e-01 2.856e-01 2.848e-01 2.841e-01 2.835e-01 2.831e-01 2.829e-01 2.828e-01
           </DataArray>
           <DataArray type="Float32" Name="rootClassID" NumberOfComponents="1" format="ascii">
 -2.000e+00 -2.000e+00 -2.000e+00 -2.000e+00 -2.000e+00 -2.000e+00 -2.000e+00 -2.000e+00 -2.000e+00 -2.000e+00 -4.000e+00 -4.000e+00 -4.000e+00 -4.000e+00 -4.000e+00 -4.000e+00 -4.000e+00 -4.000e+00 -4.000e+00 -4.000e+00 -4.000e+00 -4.000e+00 -4.000e+00 -4.000e+00
           </DataArray>
           <DataArray type="Float32" Name="rootDiameter" NumberOfComponents="1" format="ascii">
 4.070e-01 4.054e-01 4.045e-01 4.037e-01 4.032e-01 4.025e-01 4.019e-01 4.014e-01 4.009e-01 4.001e-01 9.400e-02 9.342e-02 9.289e-02 9.240e-02 9.196e-02 9.156e-02 9.121e-02 9.090e-02 9.064e-02 9.042e-02 9.025e-02 9.012e-02 9.004e-02 9.000e-02
           </DataArray>
           <DataArray type="Float32" Name="rootHairDensity" NumberOfComponents="1" format="ascii">
 0.000e+00 0.000e+00 0.000e+00 0.000e+00 0.000e+00 0.000e+00 0.000e+00 0.000e+00 0.000e+00 0.000e+00 2.000e+03 2.000e+03 2.000e+03 2.000e+03 2.000e+03 2.000e+03 2.000e+03 2.000e+03 2.000e+03 2.000e+03 2.000e+03 2.000e+03 2.000e+03 2.000e+03
           </DataArray>
           <DataArray type="Float32" Name="rootHairDiameter" NumberOfComponents="1" format="ascii">
 5.000e-04 5.000e-04 5.000e-04 5.000e-04 5.000e-04 5.000e-04 5.000e-04 5.000e-04 5.000e-04 5.000e-04 5.000e-04 5.000e-04 5.000e-04 5.000e-04 5.000e-04 5.000e-04 5.000e-04 5.000e-04 5.000e-04 5.000e-04 5.000e-04 5.000e-04 5.000e-04 5.000e-04
           </DataArray>
           <DataArray type="Float32" Name="rootHairLength" NumberOfComponents="1" format="ascii">
 3.000e-02 3.000e-02 3.000e-02 3.000e-02 3.000e-02 3.000e-02 3.000e-02 2.400e-02 1.200e-02 0.000e+00 3.000e-02 3.000e-02 3.000e-02 3.000e-02 3.000e-02 3.000e-02 3.000e-02 2.700e-02 1.800e-02 9.000e-03 0.000e+00 0.000e+00 0.000e+00 0.000e+00
           </DataArray>
           <DataArray type="Float32" Name="rootHairSurfaceArea" NumberOfComponents="1" format="ascii">
 0.000e+00 0.000e+00 0.000e+00 0.000e+00 0.000e+00 0.000e+00 0.000e+00 0.000e+00 0.000e+00 0.000e+00 9.425e-02 9.425e-02 9.425e-02 9.425e-02 9.425e-02 9.425e-02 9.425e-02 8.482e-02 5.655e-02 2.827e-02 0.000e+00 0.000e+00 0.000e+00 0.000e+00
           </DataArray>
           <DataArray type="Float32" Name="rootLength2Base" NumberOfComponents="1" format="ascii">
 0.000e+00 7.500e-01 1.440e+00 2.300e+00 2.900e+00 3.800e+00 4.700e+00 5.560e+00 6.440e+00 7.316e+00 0.000e+00 7.071e-01 1.414e+00 2.121e+00 2.828e+00 3.535e+00 4.243e+00 4.950e+00 5.657e+00 6.364e+00 7.071e+00 7.778e+00 8.485e+00 9.192e+00
           </DataArray>
           <DataArray type="Float32" Name="rootPotentialSecondaryGrowth" NumberOfComponents="1" format="ascii">
 4.070e-01 4.054e-01 4.045e-01 4.037e-01 4.032e-01 4.025e-01 4.019e-01 4.014e-01 4.009e-01 4.001e-01 9.400e-02 9.342e-02 9.289e-02 9.240e-02 9.196e-02 9.156e-02 9.121e-02 9.090e-02 9.064e-02 9.042e-02 9.025e-02 9.012e-02 9.004e-02 9.000e-02
           </DataArray>
           <DataArray type="Float32" Name="rootSegmentAge" NumberOfComponents="1" format="ascii">
 4.000e+00 3.500e+00 3.200e+00 2.900e+00 2.700e+00 2.400e+00 2.100e+00 1.800e+00 1.400e+00 5.000e-01 4.000e+00 3.700e+00 3.400e+00 3.100e+00 2.800e+00 2.500e+00 2.200e+00 1.900e+00 1.600e+00 1.300e+00 1.000e+00 7.000e-01 4.000e-01 1.000e-01
           </DataArray>
           <DataArray type="Float32" Name="rootSegmentCarbonCostOfExudates" NumberOfComponents="1" format="ascii">
 0.000e+00 0.000e+00 0.000e+00 0.000e+00 0.000e+00 0.000e+00 0.000e+00 0.000e+00 0.000e+00 0.000e+00 4.469e-05 4.143e-05 3.815e-05 3.454e-05 3.106e-05 2.752e-05 2.422e-05 2.086e-05 1.770e-05 1.425e-05 1.081e-05 7.083e-06 3.355e-06 2.239e-07
           </DataArray>
           <DataArray type="Float32" Name="rootSegmentDryWeight" NumberOfComponents="1" format="ascii">
 9.172e-03 8.370e-03 1.039e-02 7.218e-03 1.080e-02 1.077e-02 1.026e-02 1.047e-02 1.040e-02 1.815e-03 4.613e-04 4.556e-04 4.504e-04 4.457e-04 4.415e-04 4.377e-04 4.343e-04 4.314e-04 4.289e-04 4.268e-04 4.252e-04 4.240e-04 4.232e-04 1.410e-04
           </DataArray>
           <DataArray type="Float32" Name="rootSegmentLength" NumberOfComponents="1" format="ascii">
 7.500e-01 6.900e-01 8.600e-01 6.000e-01 9.000e-01 9.000e-01 8.600e-01 8.800e-01 8.764e-01 1.536e-01 7.071e-01 7.071e-01 7.071e-01 7.071e-01 7.071e-01 7.071e-01 7.071e-01 7.071e-01 7.071e-01 7.071e-01 7.071e-01 7.071e-01 7.071e-01 2.357e-01
           </DataArray>
           <DataArray type="Float32" Name="rootSegmentLengthDuration" NumberOfComponents="1" format="ascii">
 2.795e+00 2.311e+00 2.625e+00 1.680e+00 2.300e+00 2.030e+00 1.685e+00 1.419e+00 9.335e-01 4.388e-02 2.726e+00 2.514e+00 2.302e+00 2.090e+00 1.878e+00 1.666e+00 1.453e+00 1.241e+00 1.029e+00 8.171e-01 6.050e-01 3.928e-01 1.807e-01 2.357e-02
           </DataArray>
           <DataArray type="Float32" Name="rootSegmentRespiration" NumberOfComponents="1" format="ascii">
 3.669e-04 3.348e-04 4.155e-04 2.887e-04 4.321e-04 4.306e-04 4.103e-04 4.711e-04 5.718e-04 1.407e-04 1.845e-05 1.822e-05 1.802e-05 1.783e-05 1.766e-05 1.751e-05 1.737e-05 1.833e-05 2.144e-05 2.454e-05 2.764e-05 3.074e-05 3.386e-05 1.233e-05
           </DataArray>
           <DataArray type="Float32" Name="rootSegmentSecondaryPotentialCarbonSinkForGrowth" NumberOfComponents="1" format="ascii">
 1.239e-04 9.071e-05 9.363e-05 5.498e-05 6.841e-05 5.323e-05 3.820e-05 2.641e-05 1.039e-05 1.618e-07 1.603e-05 1.359e-05 1.136e-05 9.334e-06 7.515e-06 5.899e-06 4.482e-06 3.262e-06 2.239e-06 1.410e-06 7.729e-07 3.280e-07 7.402e-08 1.175e-09
           </DataArray>
           <DataArray type="Float32" Name="rootSegmentSurfaceArea" NumberOfComponents="1" format="ascii">
 9.590e-01 8.787e-01 1.093e+00 7.609e-01 1.140e+00 1.138e+00 1.086e+00 1.110e+00 1.104e+00 1.930e-01 2.088e-01 2.075e-01 2.063e-01 2.053e-01 2.043e-01 2.034e-01 2.026e-01 2.019e-01 2.013e-01 2.009e-01 2.005e-01 2.002e-01 2.000e-01 6.664e-02
           </DataArray>
           <DataArray type="Float32" Name="rootSegmentVolume" NumberOfComponents="1" format="ascii">
 9.758e-02 8.905e-02 1.105e-01 7.679e-02 1.149e-01 1.145e-01 1.091e-01 1.114e-01 1.106e-01 1.931e-02 4.907e-03 4.847e-03 4.792e-03 4.742e-03 4.696e-03 4.656e-03 4.620e-03 4.589e-03 4.563e-03 4.541e-03 4.523e-03 4.511e-03 4.502e-03 1.500e-03
           </DataArray>
           <DataArray type="Float32" Name="rootSegmentWaterUptake" NumberOfComponents="1" format="ascii">
 2.837e-02 2.610e-02 3.253e-02 2.269e-02 3.404e-02 3.404e-02 3.251e-02 0.000e+00 0.000e+00 0.000e+00 2.675e-02 2.675e-02 2.675e-02 2.675e-02 2.675e-02 2.675e-02 2.675e-02 2.661e-02 2.592e-02 2.400e-02 2.064e-02 1.520e-02 7.959e-03 5.638e-04
           </DataArray>
           <DataArray type="Float32" Name="spatialRootDensity" NumberOfComponents="1" format="ascii">
 3.376e-01 1.688e-01 0.000e+00 0.000e+00 0.000e+00 0.000e+00 0.000e+00 0.000e+00 0.000e+00 0.000e+00 3.438e-01 1.790e-01 0.000e+00 0.000e+00 0.000e+00 0.000e+00 0.000e+00 0.000e+00 0.000e+00 0.000e+00 0.000e+00 0.000e+00 0.000e+00 0.000e+00
           </DataArray>
           <DataArray type="Float32" Name="volumetricWaterContentAtTheRootSurface" NumberOfComponents="1" format="ascii">
 2.162e-01 2.160e-01 2.159e-01 2.157e-01 2.156e-01 2.154e-01 2.152e-01 0.000e+00 0.000e+00 0.000e+00 2.162e-01 2.163e-01 2.164e-01 2.166e-01 2.167e-01 2.169e-01 2.170e-01 2.172e-01 2.173e-01 2.174e-01 2.176e-01 2.178e-01 2.179e-01 2.181e-01
           </DataArray>
         </CellData>
      </Piece>
   </UnstructuredGrid>
</VTKFile>
